 Entering Link 1 = C:\G03W\l1.exe PID=      3848.
  
 Copyright (c) 1988,1990,1992,1993,1995,1998,2003,2004, Gaussian, Inc.
                  All Rights Reserved.
  
 This is the Gaussian(R) 03 program.  It is based on the
 the Gaussian(R) 98 system (copyright 1998, Gaussian, Inc.),
 the Gaussian(R) 94 system (copyright 1995, Gaussian, Inc.),
 the Gaussian 92(TM) system (copyright 1992, Gaussian, Inc.),
 the Gaussian 90(TM) system (copyright 1990, Gaussian, Inc.),
 the Gaussian 88(TM) system (copyright 1988, Gaussian, Inc.),
 the Gaussian 86(TM) system (copyright 1986, Carnegie Mellon
 University), and the Gaussian 82(TM) system (copyright 1983,
 Carnegie Mellon University). Gaussian is a federally registered
 trademark of Gaussian, Inc.
  
 This software contains proprietary and confidential information,
 including trade secrets, belonging to Gaussian, Inc.
  
 This software is provided under written license and may be
 used, copied, transmitted, or stored only in accord with that
 written license.
  
 The following legend is applicable only to US Government
 contracts under FAR:
  
                    RESTRICTED RIGHTS LEGEND
  
 Use, reproduction and disclosure by the US Government is
 subject to restrictions as set forth in subparagraphs (a)
 and (c) of the Commercial Computer Software - Restricted
 Rights clause in FAR 52.227-19.
  
 Gaussian, Inc.
 340 Quinnipiac St., Bldg. 40, Wallingford CT 06492
  
  
 ---------------------------------------------------------------
 Warning -- This program may not be used in any manner that
 competes with the business of Gaussian, Inc. or will provide
 assistance to any competitor of Gaussian, Inc.  The licensee
 of this program is prohibited from giving any competitor of
 Gaussian, Inc. access to this program.  By using this program,
 the user acknowledges that Gaussian, Inc. is engaged in the
 business of creating and licensing software in the field of
 computational chemistry and represents and warrants to the
 licensee that it is not a competitor of Gaussian, Inc. and that
 it will not use this program in any manner prohibited above.
 ---------------------------------------------------------------
  

 Cite this work as:
 Gaussian 03, Revision D.01,
 M. J. Frisch, G. W. Trucks, H. B. Schlegel, G. E. Scuseria, 
 M. A. Robb, J. R. Cheeseman, J. A. Montgomery, Jr., T. Vreven, 
 K. N. Kudin, J. C. Burant, J. M. Millam, S. S. Iyengar, J. Tomasi, 
 V. Barone, B. Mennucci, M. Cossi, G. Scalmani, N. Rega, 
 G. A. Petersson, H. Nakatsuji, M. Hada, M. Ehara, K. Toyota, 
 R. Fukuda, J. Hasegawa, M. Ishida, T. Nakajima, Y. Honda, O. Kitao, 
 H. Nakai, M. Klene, X. Li, J. E. Knox, H. P. Hratchian, J. B. Cross, 
 V. Bakken, C. Adamo, J. Jaramillo, R. Gomperts, R. E. Stratmann, 
 O. Yazyev, A. J. Austin, R. Cammi, C. Pomelli, J. W. Ochterski, 
 P. Y. Ayala, K. Morokuma, G. A. Voth, P. Salvador, J. J. Dannenberg, 
 V. G. Zakrzewski, S. Dapprich, A. D. Daniels, M. C. Strain, 
 O. Farkas, D. K. Malick, A. D. Rabuck, K. Raghavachari, 
 J. B. Foresman, J. V. Ortiz, Q. Cui, A. G. Baboul, S. Clifford, 
 J. Cioslowski, B. B. Stefanov, G. Liu, A. Liashenko, P. Piskorz, 
 I. Komaromi, R. L. Martin, D. J. Fox, T. Keith, M. A. Al-Laham, 
 C. Y. Peng, A. Nanayakkara, M. Challacombe, P. M. W. Gill, 
 B. Johnson, W. Chen, M. W. Wong, C. Gonzalez, and J. A. Pople, 
 Gaussian, Inc., Wallingford CT, 2004.
 
 ******************************************
 Gaussian 03:  IA32W-G03RevD.01 13-Oct-2005
                09-Apr-2008 
 ******************************************
 --------------
 # opt dreiding
 --------------
 1/6=10,10=10,14=-1,18=4000020,38=1,56=1,64=1/1,3;
 2/9=110,17=6,18=5,40=1/2;
 3/5=30,11=9,16=1,25=1,30=1/1;
 4/20=9,22=1001,24=3/2;
 7/44=-1/16;
 1/6=10,10=10,14=-1,18=4000020,64=1/3(2);
 2/9=110/2;
 99//99;
 2/9=110/2;
 3/5=30,11=9,16=1,25=1,30=1/1;
 4/16=2,20=9,22=1001,24=3/2;
 7/44=-1/16;
 1/6=10,10=10,14=-1,18=4000020,64=1/3(-4);
 2/9=110/2;
 99//99;
 ------------------
 propenoic acid-cis
 ------------------
 Symbolic Z-matrix:
 Charge =  0 Multiplicity = 1
 C                    -1.92932  -0.12832  -0.00855 
 C                    -0.70732  -0.68332   0.00245 
 C                     0.43268   0.05668   0.00145 
 O                     0.40268   1.26768  -0.00855 
 O                     1.65368  -0.52632   0.01245 
 H                    -2.82932  -0.76432  -0.00755 
 H                    -2.09532   0.96168  -0.01755 
 H                     2.31568   0.18468   0.01045 
 H                    -0.61832  -1.78332   0.01145 
 
 I=    1 IAn=  6 Valence= 6.
          JB=  1 J=    2 IAn=  6 IBT= 2 Dist= 1.34D+00
          JB=  2 J=    6 IAn=  1 IBT= 1 Dist= 1.10D+00
          JB=  3 J=    7 IAn=  1 IBT= 1 Dist= 1.10D+00
 I=    2 IAn=  6 Valence= 6.
          JB=  1 J=    1 IAn=  6 IBT= 2 Dist= 1.34D+00
          JB=  2 J=    3 IAn=  6 IBT= 2 Dist= 1.36D+00
          JB=  3 J=    9 IAn=  1 IBT= 1 Dist= 1.10D+00
 I=    3 IAn=  6 Valence= 6.
          JB=  1 J=    2 IAn=  6 IBT= 2 Dist= 1.36D+00
          JB=  2 J=    4 IAn=  8 IBT= 2 Dist= 1.21D+00
          JB=  3 J=    5 IAn=  8 IBT=12 Dist= 1.35D+00
 I=    5 IAn=  8 Valence=24.
          JB=  1 J=    3 IAn=  6 IBT=12 Dist= 1.35D+00
          JB=  2 J=    8 IAn=  1 IBT= 1 Dist= 9.71D-01
 Include all MM classes
 MMInit generated parameter data with length LenPar=   678.

 GradGradGradGradGradGradGradGradGradGradGradGradGradGradGradGradGradGrad
 Berny optimization.
 Initialization pass.
 No Z-matrix variables, so optimization will use Cartesian coordinates.
 Trust Radius=1.00D-01 FncErr=1.00D-07 GrdErr=1.00D-07
 Number of steps in this run=   2 maximum allowed number of steps=   2.
 GradGradGradGradGradGradGradGradGradGradGradGradGradGradGradGradGradGrad

                          Input orientation:                          
 ---------------------------------------------------------------------
 Center     Atomic     Atomic              Coordinates (Angstroms)
 Number     Number      Type              X           Y           Z
 ---------------------------------------------------------------------
    1          6      10061002       -1.929316   -0.128316   -0.008553
    2          6      10061000       -0.707316   -0.683316    0.002447
    3          6      10061000        0.432684    0.056684    0.001447
    4          8      10081002        0.402684    1.267684   -0.008553
    5          8      10081003        1.653684   -0.526316    0.012447
    6          1      10011000       -2.829316   -0.764316   -0.007553
    7          1      10011000       -2.095316    0.961684   -0.017553
    8          1      10011000        2.315684    0.184684    0.010447
    9          1      10011000       -0.618316   -1.783316    0.011447
 ---------------------------------------------------------------------
                    Distance matrix (angstroms):
                    1          2          3          4          5
     1  C    0.000000
     2  C    1.342174   0.000000
     3  C    2.369255   1.359118   0.000000
     4  O    2.717911   2.244688   1.211413   0.000000
     5  O    3.605098   2.366235   1.353089   2.187208   0.000000
     6  H    1.102042   2.123569   3.363743   3.817702   4.489358
     7  H    1.102605   2.152433   2.685176   2.516688   4.033614
     8  H    4.256566   3.145158   1.887367   2.198367   0.971478
     9  H    2.111432   1.103631   2.119033   3.217366   2.596543
                    6          7          8          9
     6  H    0.000000
     7  H    1.875615   0.000000
     8  H    5.231821   4.478999   0.000000
     9  H    2.434593   3.117274   3.532900   0.000000
 Stoichiometry    C3H4O2
 Framework group  C1[X(C3H4O2)]
 Deg. of freedom    21
 Full point group                 C1
 Largest Abelian subgroup         C1      NOp   1
 Largest concise Abelian subgroup C1      NOp   1
                         Standard orientation:                         
 ---------------------------------------------------------------------
 Center     Atomic     Atomic              Coordinates (Angstroms)
 Number     Number      Type              X           Y           Z
 ---------------------------------------------------------------------
    1          6      10061002       -1.933550    0.013478   -0.000154
    2          6      10061000       -0.755492   -0.629646    0.000259
    3          6      10061000        0.435678    0.024812   -0.000205
    4          8      10081002        0.494499    1.234796   -0.000034
    5          8      10081003        1.610686   -0.646162   -0.000018
    6          1      10011000       -2.877743   -0.554850   -0.000006
    7          1      10011000       -2.019228    1.112748    0.000682
    8          1      10011000        2.323016    0.014409    0.000621
    9          1      10011000       -0.747339   -1.733247   -0.000282
 ---------------------------------------------------------------------
 Rotational constants (GHZ):     12.5112300      4.2933790      3.1964715
 Standard basis: Dummy (5D, 7F)
 There are     9 symmetry adapted basis functions of A   symmetry.
 Integral buffers will be    262144 words long.
 Raffenetti 1 integral format.
 Two-electron integral symmetry is turned on.
     9 basis functions,     9 primitive gaussians,     9 cartesian basis functions
     7 alpha electrons        7 beta electrons
       nuclear repulsion energy        22.7770908616 Hartrees.
 NAtoms=    9 NActive=    9 NUniq=    9 SFac= 7.50D-01 NAtFMM=   80 NAOKFM=F Big=F
 Dreiding calculation of energy and first derivatives.
 MO and density RWFs will be updated without deorthogonalization.
 NRF= 0 NRA=   0 NVA=   9 HaveQM=F
 Convergence limit is  0.750E-04 MaxStp=  5000 StMxLn= 1.00D-04 StpMin= 1.00D-06.
 Convergence criteria           0.00011250 0.00007500 0.00045000 0.00030000
  Step  NS  ND Rises OKQ   Scale  Max. Force  RMS Force Max. Disp.  RMS Disp.     Energy   Flag
     1   0   0   F    T  1.00D+00 0.10034726 0.03663253 0.10034726 0.03663253    0.0349865 ----
     2   0   0   F    F -8.49D-02 0.10034726 0.03663253 0.10034726 0.03663253    0.0185488 ----
     3   0   0   F    T  1.91D+00 0.03744046 0.01608353 0.04570550 0.01756543    0.0184059 ----
     4   0   0   F    F -1.94D-01 0.03744046 0.01608353 0.08722430 0.03352184    0.0133434 ----
     5   0   0   F    T  2.62D+00 0.02960370 0.00883245 0.03353011 0.01031805    0.0130346 ----
     6   0   0   F    F -4.41D-01 0.02960370 0.00883245 0.08785289 0.02703453    0.0124576 ----
     7   0   0   F    T  1.35D+00 0.02390162 0.00779864 0.03328347 0.01122743    0.0114921 ----
     8   0   0   F    F -1.45D-01 0.02390162 0.00779864 0.04476830 0.01510158    0.0105764 ----
     9   0   0   F    T  3.39D+00 0.00808495 0.00326384 0.01085403 0.00381209    0.0105495 ----
    10   0   0   F    F -3.41D-01 0.00808495 0.00326384 0.03677126 0.01291461    0.0103143 ----
    11   0   0   F    T  2.04D+00 0.00744923 0.00288925 0.01161698 0.00416544    0.0102289 ----
    12   0   0   F    F -2.60D-01 0.00744923 0.00288925 0.02373659 0.00851111    0.0100796 ----
    13   0   0   F    T  1.33D+00 0.00942700 0.00276693 0.01150146 0.00473632    0.0100587 ----
    14   0   0   F    F  1.07D+00 0.00942700 0.00276693 0.01529849 0.00629994    0.0098500 ----
    15   0   0   F    T  3.83D+00 0.00512197 0.00206046 0.00799898 0.00340141    0.0097739 ----
    16   0   0   F    F -3.31D-01 0.00512197 0.00206046 0.03064276 0.01303024    0.0096632 ----
    17   0   0   F    T  2.47D+00 0.00403209 0.00192521 0.00812318 0.00352882    0.0096269 ----
    18   0   0   F    F  3.38D-01 0.00403209 0.00192521 0.02005635 0.00871276    0.0094728 ----
    19   0   0   F    T  2.02D+00 0.00795019 0.00235275 0.01353865 0.00577450    0.0094623 ----
    20   0   0   T    F  4.40D-01 0.00795019 0.00235275 0.02733010 0.01165683    0.0095031 ----
    21   0   0   F    T  2.87D+00 0.00268706 0.00113203 0.00586931 0.00178906    0.0093960 ----
    22   0   0   F    F  3.53D-01 0.00268706 0.00113203 0.01683673 0.00513212    0.0093334 ----
    23   0   0   F    T  1.69D+00 0.00401759 0.00163906 0.01280970 0.00409740    0.0093289 ----
    24   0   0   F    F -2.65D-01 0.00401759 0.00163906 0.02170610 0.00694306    0.0092897 ----
    25   0   0   F    T  1.74D+01 0.00069401 0.00026500 0.00082356 0.00029388    0.0092838 ---+
    26   0   0   T    F  1.40D-01 0.00069401 0.00026500 0.01429418 0.00510080    0.0093686 ----
    27   0   0   F    T  1.91D+00 0.00078609 0.00025580 0.00093025 0.00037474    0.0092815 ----
    28   0   0   F    F -1.86D-01 0.00078609 0.00025580 0.00177215 0.00071388    0.0092802 ----
    29   0   0   F    T  1.62D+00 0.00060699 0.00022216 0.00086071 0.00035936    0.0092801 ----
    30   0   0   F    T  4.76D+00 0.00027015 0.00009445 0.00031781 0.00012209    0.0092791 --++
    31   0   0   T    F  2.50D-01 0.00027015 0.00009445 0.00151274 0.00058111    0.0092802 ----
    32   0   0   F    T  2.68D+00 0.00013303 0.00004930 0.00013887 0.00005414    0.0092790 -+++
    33   0   0   T    F  4.37D-01 0.00013303 0.00004930 0.00037196 0.00014501    0.0092790 -+++
    34   0   0   F    T  1.08D+00 0.00008789 0.00004235 0.00016955 0.00005856    0.0092789 ====
 Energy=    0.009278938035 NIter=   0.
 Dipole moment=       0.000000       0.000000       0.000000
 ***** Axes restored to original set *****
 -------------------------------------------------------------------
 Center     Atomic                   Forces (Hartrees/Bohr)
 Number     Number              X              Y              Z
 -------------------------------------------------------------------
    1          6           0.000077394   -0.000057406    0.000002908
    2          6          -0.000068622   -0.000027310   -0.000002022
    3          6           0.000086393    0.000023626   -0.000000013
    4          8           0.000000785    0.000049835   -0.000001857
    5          8          -0.000072435    0.000008204   -0.000004205
    6          1           0.000041412    0.000024354   -0.000000865
    7          1          -0.000038440    0.000041856    0.000000110
    8          1           0.000033279    0.000021306    0.000004002
    9          1          -0.000059765   -0.000084464    0.000001942
 -------------------------------------------------------------------
 Cartesian Forces:  Max     0.000086393 RMS     0.000042348

 GradGradGradGradGradGradGradGradGradGradGradGradGradGradGradGradGradGrad
 Berny optimization.
 Search for a local minimum.
 Step number   1 out of a maximum of   2
 All quantities printed in internal units (Hartrees-Bohrs-Radians)
 Second derivative matrix not updated -- unit matrix used.
 RFO step:  Lambda=-4.84197005D-08.
 Linear search not attempted -- first point.
 TrRot=  0.000000  0.000000  0.000000  0.000000  0.000000  0.000000
 Variable       Old X    -DE/DX   Delta X   Delta X   Delta X     New X
                                 (Linear)    (Quad)   (Total)
    X1       -3.75833   0.00008   0.00000   0.00008   0.00008  -3.75826
    Y1       -0.27501  -0.00006   0.00000  -0.00006  -0.00006  -0.27507
    Z1       -0.01582   0.00000   0.00000   0.00000   0.00000  -0.01582
    X2       -1.36198  -0.00007   0.00000  -0.00007  -0.00007  -1.36205
    Y2       -1.24819  -0.00003   0.00000  -0.00003  -0.00003  -1.24822
    Z2        0.00363   0.00000   0.00000   0.00000   0.00000   0.00363
    X3        0.85461   0.00009   0.00000   0.00009   0.00009   0.85470
    Y3        0.19785   0.00002   0.00000   0.00002   0.00002   0.19787
    Z3        0.00242   0.00000   0.00000   0.00000   0.00000   0.00242
    X4        0.77047   0.00000   0.00000   0.00000   0.00000   0.77047
    Y4        2.57099   0.00005   0.00000   0.00005   0.00005   2.57104
    Z4       -0.01784   0.00000   0.00000   0.00000   0.00000  -0.01784
    X5        3.09688  -0.00007   0.00000  -0.00007  -0.00007   3.09681
    Y5       -1.05223   0.00001   0.00000   0.00001   0.00001  -1.05222
    Z5        0.02366   0.00000   0.00000   0.00000   0.00000   0.02366
    X6       -5.23626   0.00004   0.00000   0.00004   0.00004  -5.23622
    Y6       -1.42848   0.00002   0.00000   0.00002   0.00002  -1.42846
    Z6       -0.01404   0.00000   0.00000   0.00000   0.00000  -0.01405
    X7       -4.06599  -0.00004   0.00000  -0.00004  -0.00004  -4.06602
    Y7        1.57411   0.00004   0.00000   0.00004   0.00004   1.57415
    Z7       -0.03183   0.00000   0.00000   0.00000   0.00000  -0.03183
    X8        4.50584   0.00003   0.00000   0.00003   0.00003   4.50587
    Y8        0.16170   0.00002   0.00000   0.00002   0.00002   0.16172
    Z8        0.02214   0.00000   0.00000   0.00000   0.00000   0.02215
    X9       -1.18277  -0.00006   0.00000  -0.00006  -0.00006  -1.18283
    Y9       -3.17439  -0.00008   0.00000  -0.00008  -0.00008  -3.17448
    Z9        0.02017   0.00000   0.00000   0.00000   0.00000   0.02018
         Item               Value     Threshold  Converged?
 Maximum Force            0.000086     0.000450     YES
 RMS     Force            0.000042     0.000300     YES
 Maximum Displacement     0.000086     0.001800     YES
 RMS     Displacement     0.000042     0.001200     YES
 Predicted change in Energy=-2.420985D-08
 Optimization completed.
    -- Stationary point found.
 GradGradGradGradGradGradGradGradGradGradGradGradGradGradGradGradGradGrad

                          Input orientation:                          
 ---------------------------------------------------------------------
 Center     Atomic     Atomic              Coordinates (Angstroms)
 Number     Number      Type              X           Y           Z
 ---------------------------------------------------------------------
    1          6      10061002       -1.988824   -0.145530   -0.008373
    2          6      10061000       -0.720728   -0.660513    0.001921
    3          6      10061000        0.452240    0.104697    0.001282
    4          8      10081002        0.407714    1.360507   -0.009442
    5          8      10081003        1.638799   -0.556815    0.012522
    6          1      10011000       -2.770909   -0.755921   -0.007432
    7          1      10011000       -2.151627    0.832983   -0.016845
    8          1      10011000        2.384385    0.085567    0.011717
    9          1      10011000       -0.625892   -1.679817    0.010675
 ---------------------------------------------------------------------
                    Distance matrix (angstroms):
                    1          2          3          4          5
     1  C    0.000000
     2  C    1.368715   0.000000
     3  C    2.453874   1.400501   0.000000
     4  O    2.830467   2.314743   1.256645   0.000000
     5  O    3.650923   2.361829   1.358546   2.278635   0.000000
     6  H    0.992086   2.052421   3.336080   3.818758   4.414246
     7  H    0.992000   2.068418   2.703858   2.613152   4.037292
     8  H    4.379357   3.193503   1.932268   2.352265   0.984152
     9  H    2.052311   1.023743   2.084934   3.211280   2.527838
                    6          7          8          9
     6  H    0.000000
     7  H    1.705348   0.000000
     8  H    5.223555   4.597266   0.000000
     9  H    2.335596   2.939861   3.489750   0.000000
 Stoichiometry    C3H4O2
 Framework group  C1[X(C3H4O2)]
 Deg. of freedom    21
 Full point group                 C1
 Largest Abelian subgroup         C1      NOp   1
 Largest concise Abelian subgroup C1      NOp   1
                         Standard orientation:                         
 ---------------------------------------------------------------------
 Center     Atomic     Atomic              Coordinates (Angstroms)
 Number     Number      Type              X           Y           Z
 ---------------------------------------------------------------------
    1          6      10061002       -1.986773   -0.007928    0.000092
    2          6      10061000       -0.763046   -0.621014   -0.000040
    3          6      10061000        0.466425    0.049658   -0.000023
    4          8      10081002        0.520699    1.305130   -0.000113
    5          8      10081003        1.597355   -0.703100   -0.000029
    6          1      10011000       -2.814404   -0.554976   -0.000236
    7          1      10011000       -2.072195    0.980386    0.000527
    8          1      10011000        2.391116   -0.121295    0.000877
    9          1      10011000       -0.748586   -1.644655   -0.000202
 ---------------------------------------------------------------------
 Rotational constants (GHZ):     11.5376878      4.1901498      3.0738263
 1|1|UNPC-UNK|FOpt|Dreiding|ZDO|C3H4O2|PCUSER|09-Apr-2008|0||# opt drei
 ding||propenoic acid-cis||0,1|C,-1.988824,-0.1455296804,-0.0083727988|
 C,-0.7207281284,-0.6605132977,0.001921321|C,0.4522399221,0.1046973632,
 0.0012823971|O,0.4077137118,1.3605071396,-0.0094416984|O,1.6387990459,
 -0.5568153761,0.0125218124|H,-2.7709087099,-0.7559207082,-0.0074320467
 |H,-2.1516269141,0.8329827848,-0.0168450585|H,2.3843854297,0.085566515
 1,0.0117169229|H,-0.6258924671,-1.6798168503,0.010675479||Version=IA32
 W-G03RevD.01|HF=0.0092789|RMSD=0.000e+000|RMSF=4.235e-005|Thermal=0.|D
 ipole=0.,0.,0.|PG=C01 [X(C3H4O2)]||@


 THEORY:  SUPPOSITION WHICH HAS SCIENTIFIC BASIS,
          BUT NOT EXPERIMENTALLY PROVEN.
 FACT:    A THEORY WHICH HAS BEEN PROVEN BY ENOUGH 
          MONEY TO PAY FOR THE EXPERIMENTS.

                          --  THE WIZARD OF ID
 Job cpu time:  0 days  0 hours  0 minutes  2.0 seconds.
 File lengths (MBytes):  RWF=     11 Int=      0 D2E=      0 Chk=      4 Scr=      1
 Normal termination of Gaussian 03 at Wed Apr 09 19:57:49 2008.
