 Entering Gaussian System, Link 0=g09
 Input=1-4-diCl-cyclohexane-dieq.gjf
 Output=1-4-diCl-cyclohexane-dieq.out
 Initial command:
 /usr/local/g09/l1.exe /home/scratch/stylianakis/Gau-26730.inp -scrdir=/home/scratch/stylianakis/
 Entering Link 1 = /usr/local/g09/l1.exe PID=     26731.
  
 Copyright (c) 1988,1990,1992,1993,1995,1998,2003,2009, Gaussian, Inc.
                  All Rights Reserved.
  
 This is part of the Gaussian(R) 09 program.  It is based on
 the Gaussian(R) 03 system (copyright 2003, Gaussian, Inc.),
 the Gaussian(R) 98 system (copyright 1998, Gaussian, Inc.),
 the Gaussian(R) 94 system (copyright 1995, Gaussian, Inc.),
 the Gaussian 92(TM) system (copyright 1992, Gaussian, Inc.),
 the Gaussian 90(TM) system (copyright 1990, Gaussian, Inc.),
 the Gaussian 88(TM) system (copyright 1988, Gaussian, Inc.),
 the Gaussian 86(TM) system (copyright 1986, Carnegie Mellon
 University), and the Gaussian 82(TM) system (copyright 1983,
 Carnegie Mellon University). Gaussian is a federally registered
 trademark of Gaussian, Inc.
  
 This software contains proprietary and confidential information,
 including trade secrets, belonging to Gaussian, Inc.
  
 This software is provided under written license and may be
 used, copied, transmitted, or stored only in accord with that
 written license.
  
 The following legend is applicable only to US Government
 contracts under FAR:
  
                    RESTRICTED RIGHTS LEGEND
  
 Use, reproduction and disclosure by the US Government is
 subject to restrictions as set forth in subparagraphs (a)
 and (c) of the Commercial Computer Software - Restricted
 Rights clause in FAR 52.227-19.
  
 Gaussian, Inc.
 340 Quinnipiac St., Bldg. 40, Wallingford CT 06492
  
  
 ---------------------------------------------------------------
 Warning -- This program may not be used in any manner that
 competes with the business of Gaussian, Inc. or will provide
 assistance to any competitor of Gaussian, Inc.  The licensee
 of this program is prohibited from giving any competitor of
 Gaussian, Inc. access to this program.  By using this program,
 the user acknowledges that Gaussian, Inc. is engaged in the
 business of creating and licensing software in the field of
 computational chemistry and represents and warrants to the
 licensee that it is not a competitor of Gaussian, Inc. and that
 it will not use this program in any manner prohibited above.
 ---------------------------------------------------------------
  

 Cite this work as:
 Gaussian 09, Revision A.01,
 M. J. Frisch, G. W. Trucks, H. B. Schlegel, G. E. Scuseria, 
 M. A. Robb, J. R. Cheeseman, G. Scalmani, V. Barone, B. Mennucci, 
 G. A. Petersson, H. Nakatsuji, M. Caricato, X. Li, H. P. Hratchian, 
 A. F. Izmaylov, J. Bloino, G. Zheng, J. L. Sonnenberg, M. Hada, 
 M. Ehara, K. Toyota, R. Fukuda, J. Hasegawa, M. Ishida, T. Nakajima, 
 Y. Honda, O. Kitao, H. Nakai, T. Vreven, J. A. Montgomery, Jr., 
 J. E. Peralta, F. Ogliaro, M. Bearpark, J. J. Heyd, E. Brothers, 
 K. N. Kudin, V. N. Staroverov, R. Kobayashi, J. Normand, 
 K. Raghavachari, A. Rendell, J. C. Burant, S. S. Iyengar, J. Tomasi, 
 M. Cossi, N. Rega, J. M. Millam, M. Klene, J. E. Knox, J. B. Cross, 
 V. Bakken, C. Adamo, J. Jaramillo, R. Gomperts, R. E. Stratmann, 
 O. Yazyev, A. J. Austin, R. Cammi, C. Pomelli, J. W. Ochterski, 
 R. L. Martin, K. Morokuma, V. G. Zakrzewski, G. A. Voth, 
 P. Salvador, J. J. Dannenberg, S. Dapprich, A. D. Daniels, 
 O. Farkas, J. B. Foresman, J. V. Ortiz, J. Cioslowski, 
 and D. J. Fox, Gaussian, Inc., Wallingford CT, 2009.
 
 ******************************************
 Gaussian 09:  EM64L-G09RevA.01  8-May-2009
                 2-Mar-2016 
 ******************************************
 %mem=8000Mb
 %nproc=4
 Will use up to    4 processors via shared memory.
 -------------
 # mp2/cc-pVTZ
 -------------
 1/38=1/1;
 2/12=2,17=6,18=5,40=1/2;
 3/5=16,6=1,11=9,16=1,25=1,30=1/1,2,3;
 4//1;
 5/5=2,38=5/2;
 8/10=1/1;
 9/16=-3/6;
 6/7=2,8=2,9=2,10=2/1;
 99/5=1,9=1/99;
 --------------------------------------
 1-4-diCl-cyclohexane-dieq_single_point
 --------------------------------------
 Symbolic Z-matrix:
 Charge =  0 Multiplicity = 1
 c
 c                    1    cc2
 c                    2    cc3      1    ccc3
 c                    3    cc4      2    ccc4     1    dih4     0
 c                    4    cc5      3    ccc5     2    dih5     0
 c                    5    cc6      4    ccc6     3    dih6     0
 cl                   3    clc7     4    clcc7    5    dih7     0
 cl                   6    clc8     5    clcc8    4    dih8     0
 h                    4    hc9      3    hcc9     2    dih9     0
 h                    4    hc10     3    hcc10    2    dih10    0
 h                    3    hc11     4    hcc11    5    dih11    0
 h                    2    hc12     3    hcc12    4    dih12    0
 h                    2    hc13     3    hcc13    4    dih13    0
 h                    5    hc14     4    hcc14    3    dih14    0
 h                    5    hc15     4    hcc15    3    dih15    0
 h                    6    hc16     5    hcc16    4    dih16    0
 h                    1    hc17     2    hcc17    3    dih17    0
 h                    1    hc18     2    hcc18    3    dih18    0
       Variables:
  cc2                   1.5424                   
  cc3                   1.52875                  
  ccc3                110.526                    
  cc4                   1.52875                  
  ccc4                111.919                    
  dih4                -56.34                     
  cc5                   1.54239                  
  ccc5                110.527                    
  dih5                 56.341                    
  cc6                   1.52874                  
  ccc6                110.527                    
  dih6                -55.539                    
  clc7                  1.83189                  
  clcc7               110.052                    
  dih7                179.047                    
  clc8                  1.83189                  
  clcc8               110.052                    
  dih8                179.045                    
  hc9                   1.09704                  
  hcc9                108.939                    
  dih9                -64.801                    
  hc10                  1.09418                  
  hcc10               110.203                    
  dih10               178.081                    
  hc11                  1.09387                  
  hcc11               110.133                    
  dih11               -66.527                    
  hc12                  1.09417                  
  hcc12               110.204                    
  dih12              -178.08                     
  hc13                  1.09704                  
  hcc13               108.939                    
  dih13                64.8                      
  hc14                  1.09417                  
  hcc14               109.954                    
  dih14              -177.43                     
  hc15                  1.09706                  
  hcc15               110.139                    
  dih15                64.885                    
  hc16                  1.09389                  
  hcc16               110.134                    
  dih16               -66.532                    
  hc17                  1.09418                  
  hcc17               109.954                    
  dih17               177.429                    
  hc18                  1.09706                  
  hcc18               110.139                    
  dih18               -64.889                    
 
                          Input orientation:                          
 ---------------------------------------------------------------------
 Center     Atomic      Atomic             Coordinates (Angstroms)
 Number     Number       Type             X           Y           Z
 ---------------------------------------------------------------------
      1          6           0        0.000000    0.000000    0.000000
      2          6           0        0.000000    0.000000    1.542395
      3          6           0        1.431696    0.000000    2.078425
      4          6           0        2.241766   -1.180460    1.542349
      5          6           0        2.241752   -1.180442   -0.000045
      6          6           0        0.810074   -1.180390   -0.536081
      7         17           0        1.416660   -0.028670    3.910026
      8         17           0        0.825161   -1.151687   -2.367683
      9          1           0        1.804637   -2.113065    1.920051
     10          1           0        3.269228   -1.134308    1.915736
     11          1           0        1.927759    0.942032    1.827346
     12          1           0       -0.543302    0.873271    1.915787
     13          1           0       -0.521603   -0.888134    1.920085
     14          1           0        2.785073   -2.053692   -0.373463
     15          1           0        2.763354   -0.292298   -0.377754
     16          1           0        0.314001   -2.122465   -0.285083
     17          1           0       -1.027457   -0.046135   -0.373406
     18          1           0        0.437097    0.932637   -0.377715
 ---------------------------------------------------------------------
                    Distance matrix (angstroms):
                    1          2          3          4          5
     1  C    0.000000
     2  C    1.542395   0.000000
     3  C    2.523808   1.528752   0.000000
     4  C    2.966116   2.533575   1.528750   0.000000
     5  C    2.533554   2.966145   2.523820   1.542394   0.000000
     6  C    1.528700   2.523807   2.935196   2.523810   1.528737
     7  Cl   4.158852   2.759243   1.831887   2.759224   4.158847
     8  Cl   2.759202   4.158844   4.632726   4.158840   2.759215
     9  H    3.377625   2.804350   2.151560   1.097038   2.178904
    10  H    3.955319   3.480501   2.165559   1.094178   2.174409
    11  H    2.818310   2.164457   1.093866   2.164439   2.818305
    12  H    2.174401   1.094167   2.165565   3.480499   3.955335
    13  H    2.178894   1.097042   2.151565   2.804344   3.377643
    14  H    3.480483   3.955350   3.472900   2.174408   1.094169
    15  H    2.804329   3.377653   2.809193   2.178918   1.097056
    16  H    2.164423   2.818356   3.367531   2.818361   2.164457
    17  H    1.094179   2.174417   3.472900   3.955329   3.480485
    18  H    1.097057   2.178919   2.809211   3.377670   2.804374
                    6          7          8          9         10
     6  C    0.000000
     7  Cl   4.632740   0.000000
     8  Cl   1.831889   6.404738   0.000000
     9  H    2.809203   2.907788   4.502031   0.000000
    10  H    3.472891   2.937964   4.931678   1.761536   0.000000
    11  H    3.367445   2.353941   4.816394   3.058982   2.473568
    12  H    3.472868   2.938015   4.931660   3.798821   4.308800
    13  H    2.809187   2.907818   4.502021   2.629039   3.798818
    14  H    2.165577   4.931688   2.937990   2.494992   2.513982
    15  H    2.151529   4.502016   2.907741   3.084516   2.494992
    16  H    1.093889   4.816510   2.353916   2.661709   3.814895
    17  H    2.165529   4.931713   2.937955   4.189617   4.988566
    18  H    2.151528   4.502042   2.907743   4.052924   4.189647
                   11         12         13         14         15
    11  H    0.000000
    12  H    2.473598   0.000000
    13  H    3.059000   1.761544   0.000000
    14  H    3.814828   4.988573   4.189629   0.000000
    15  H    2.661627   4.189613   4.052904   1.761533   0.000000
    16  H    4.056810   3.814870   2.661686   2.473608   3.058991
    17  H    3.814850   2.513985   2.494985   4.308790   3.798798
    18  H    2.661664   2.494967   3.084510   3.798838   2.629056
                   16         17         18
    16  H    0.000000
    17  H    2.473551   0.000000
    18  H    3.058983   1.761514   0.000000
 Stoichiometry    C6H10Cl2
 Framework group  C1[X(C6H10Cl2)]
 Deg. of freedom    48
 Full point group                 C1      NOp   1
 Largest Abelian subgroup         C1      NOp   1
 Largest concise Abelian subgroup C1      NOp   1
                         Standard orientation:                         
 ---------------------------------------------------------------------
 Center     Atomic      Atomic             Coordinates (Angstroms)
 Number     Number       Type             X           Y           Z
 ---------------------------------------------------------------------
      1          6           0       -0.753931    1.266766   -0.162280
      2          6           0        0.753918    1.266799    0.162336
      3          6           0        1.418360    0.000010   -0.376967
      4          6           0        0.753924   -1.266776    0.162343
      5          6           0       -0.753921   -1.266788   -0.162281
      6          6           0       -1.418357    0.000009    0.376966
      7         17           0        3.202123   -0.000004    0.040164
      8         17           0       -3.202111   -0.000006   -0.040216
      9          1           0        0.906631   -1.314509    1.247652
     10          1           0        1.228314   -2.154388   -0.266988
     11          1           0        1.396975   -0.000008   -1.470623
     12          1           0        1.228275    2.154412   -0.267001
     13          1           0        0.906610    1.314530    1.247650
     14          1           0       -1.228297   -2.154409    0.267023
     15          1           0       -0.906630   -1.314515   -1.247608
     16          1           0       -1.397060    0.000016    1.470648
     17          1           0       -1.228334    2.154381    0.267031
     18          1           0       -0.906648    1.314542   -1.247604
 ---------------------------------------------------------------------
 Rotational constants (GHZ):      4.2679526      0.6150300      0.5561496
 Standard basis: CC-pVTZ (5D, 7F)
 There are   388 symmetry adapted basis functions of A   symmetry.
 Integral buffers will be    131072 words long.
 Raffenetti 1 integral format.
 Two-electron integral symmetry is turned on.
   388 basis functions,   670 primitive gaussians,   438 cartesian basis functions
    40 alpha electrons       40 beta electrons
       nuclear repulsion energy       522.7177791590 Hartrees.
 NAtoms=   18 NActive=   18 NUniq=   18 SFac= 7.50D-01 NAtFMM=   80 NAOKFM=F Big=F
 One-electron integrals computed using PRISM.
 NBasis=   388 RedAO= T  NBF=   388
 NBsUse=   388 1.00D-06 NBFU=   388
 Harris functional with IExCor=  205 diagonalized for initial guess.
 ExpMin= 1.03D-01 ExpMax= 4.56D+05 ExpMxC= 1.44D+03 IAcc=2 IRadAn=         0 AccDes= 0.00D+00
 HarFok:  IExCor=  205 AccDes= 0.00D+00 IRadAn=         0 IDoV= 1
 ScaDFX=  1.000000  1.000000  1.000000  1.000000
 FoFCou: FMM=F IPFlag=           0 FMFlag=      100000 FMFlg1=           0
         NFxFlg=           0 DoJE=T BraDBF=F KetDBF=T FulRan=T
         Omega=  0.000000  0.000000  1.000000  0.000000  0.000000 ICntrl=     500 IOpCl=  0
         NMat0=    1 NMatS0=    1 NMatT0=    0 NMatD0=    1 NMtDS0=    0 NMtDT0=    0
         I1Cent=           4 NGrid=           0.
 Petite list used in FoFCou.
 Initial guess orbital symmetries:
       Occupied  (A) (A) (A) (A) (A) (A) (A) (A) (A) (A) (A) (A)
                 (A) (A) (A) (A) (A) (A) (A) (A) (A) (A) (A) (A)
                 (A) (A) (A) (A) (A) (A) (A) (A) (A) (A) (A) (A)
                 (A) (A) (A) (A)
       Virtual   (A) (A) (A) (A) (A) (A) (A) (A) (A) (A) (A) (A)
                 (A) (A) (A) (A) (A) (A) (A) (A) (A) (A) (A) (A)
                 (A) (A) (A) (A) (A) (A) (A) (A) (A) (A) (A) (A)
                 (A) (A) (A) (A) (A) (A) (A) (A) (A) (A) (A) (A)
                 (A) (A) (A) (A) (A) (A) (A) (A) (A) (A) (A) (A)
                 (A) (A) (A) (A) (A) (A) (A) (A) (A) (A) (A) (A)
                 (A) (A) (A) (A) (A) (A) (A) (A) (A) (A) (A) (A)
                 (A) (A) (A) (A) (A) (A) (A) (A) (A) (A) (A) (A)
                 (A) (A) (A) (A) (A) (A) (A) (A) (A) (A) (A) (A)
                 (A) (A) (A) (A) (A) (A) (A) (A) (A) (A) (A) (A)
                 (A) (A) (A) (A) (A) (A) (A) (A) (A) (A) (A) (A)
                 (A) (A) (A) (A) (A) (A) (A) (A) (A) (A) (A) (A)
                 (A) (A) (A) (A) (A) (A) (A) (A) (A) (A) (A) (A)
                 (A) (A) (A) (A) (A) (A) (A) (A) (A) (A) (A) (A)
                 (A) (A) (A) (A) (A) (A) (A) (A) (A) (A) (A) (A)
                 (A) (A) (A) (A) (A) (A) (A) (A) (A) (A) (A) (A)
                 (A) (A) (A) (A) (A) (A) (A) (A) (A) (A) (A) (A)
                 (A) (A) (A) (A) (A) (A) (A) (A) (A) (A) (A) (A)
                 (A) (A) (A) (A) (A) (A) (A) (A) (A) (A) (A) (A)
                 (A) (A) (A) (A) (A) (A) (A) (A) (A) (A) (A) (A)
                 (A) (A) (A) (A) (A) (A) (A) (A) (A) (A) (A) (A)
                 (A) (A) (A) (A) (A) (A) (A) (A) (A) (A) (A) (A)
                 (A) (A) (A) (A) (A) (A) (A) (A) (A) (A) (A) (A)
                 (A) (A) (A) (A) (A) (A) (A) (A) (A) (A) (A) (A)
                 (A) (A) (A) (A) (A) (A) (A) (A) (A) (A) (A) (A)
                 (A) (A) (A) (A) (A) (A) (A) (A) (A) (A) (A) (A)
                 (A) (A) (A) (A) (A) (A) (A) (A) (A) (A) (A) (A)
                 (A) (A) (A) (A) (A) (A) (A) (A) (A) (A) (A) (A)
                 (A) (A) (A) (A) (A) (A) (A) (A) (A) (A) (A) (A)
 The electronic state of the initial guess is 1-A.
 Requested convergence on RMS density matrix=1.00D-08 within 128 cycles.
 Requested convergence on MAX density matrix=1.00D-06.
 Requested convergence on             energy=1.00D-06.
 No special actions if energy rises.
 Integral accuracy reduced to 1.0D-05 until final iterations.
 Initial convergence to 1.0D-05 achieved.  Increase integral accuracy.
 SCF Done:  E(RHF) =  -1152.16850974     A.U. after   12 cycles
             Convg  =    0.8967D-08             -V/T =  2.0004
 ExpMin= 1.03D-01 ExpMax= 4.56D+05 ExpMxC= 1.44D+03 IAcc=3 IRadAn=         5 AccDes= 0.00D+00
 HarFok:  IExCor=  205 AccDes= 0.00D+00 IRadAn=         5 IDoV=-2
 ScaDFX=  1.000000  1.000000  1.000000  1.000000
 Range of M.O.s used for correlation:    17   388
 NBasis=   388 NAE=    40 NBE=    40 NFC=    16 NFV=     0
 NROrb=    372 NOA=    24 NOB=    24 NVA=   348 NVB=   348

 **** Warning!!: The largest alpha MO coefficient is  0.12279070D+02

 Fully direct method using O(OVN) memory.
 JobTyp=1 Pass  1:  I=   1 to  24 NPSUse=  4 ParTrn=T ParDer=T DoDerP=F.
 Spin components of T(2) and E(2):
     alpha-alpha T2 =       0.5989996235D-01 E2=     -0.1682166835D+00
     alpha-beta  T2 =       0.3415922465D+00 E2=     -0.1066692659D+01
     beta-beta   T2 =       0.5989996235D-01 E2=     -0.1682166835D+00
 ANorm=    0.1208880545D+01
 E2 =    -0.1403126025D+01 EUMP2 =    -0.11535716357681D+04

 **********************************************************************

            Population analysis using the SCF density.

 **********************************************************************

 Orbital symmetries:
       Occupied  (A) (A) (A) (A) (A) (A) (A) (A) (A) (A) (A) (A)
                 (A) (A) (A) (A) (A) (A) (A) (A) (A) (A) (A) (A)
                 (A) (A) (A) (A) (A) (A) (A) (A) (A) (A) (A) (A)
                 (A) (A) (A) (A)
       Virtual   (A) (A) (A) (A) (A) (A) (A) (A) (A) (A) (A) (A)
                 (A) (A) (A) (A) (A) (A) (A) (A) (A) (A) (A) (A)
                 (A) (A) (A) (A) (A) (A) (A) (A) (A) (A) (A) (A)
                 (A) (A) (A) (A) (A) (A) (A) (A) (A) (A) (A) (A)
                 (A) (A) (A) (A) (A) (A) (A) (A) (A) (A) (A) (A)
                 (A) (A) (A) (A) (A) (A) (A) (A) (A) (A) (A) (A)
                 (A) (A) (A) (A) (A) (A) (A) (A) (A) (A) (A) (A)
                 (A) (A) (A) (A) (A) (A) (A) (A) (A) (A) (A) (A)
                 (A) (A) (A) (A) (A) (A) (A) (A) (A) (A) (A) (A)
                 (A) (A) (A) (A) (A) (A) (A) (A) (A) (A) (A) (A)
                 (A) (A) (A) (A) (A) (A) (A) (A) (A) (A) (A) (A)
                 (A) (A) (A) (A) (A) (A) (A) (A) (A) (A) (A) (A)
                 (A) (A) (A) (A) (A) (A) (A) (A) (A) (A) (A) (A)
                 (A) (A) (A) (A) (A) (A) (A) (A) (A) (A) (A) (A)
                 (A) (A) (A) (A) (A) (A) (A) (A) (A) (A) (A) (A)
                 (A) (A) (A) (A) (A) (A) (A) (A) (A) (A) (A) (A)
                 (A) (A) (A) (A) (A) (A) (A) (A) (A) (A) (A) (A)
                 (A) (A) (A) (A) (A) (A) (A) (A) (A) (A) (A) (A)
                 (A) (A) (A) (A) (A) (A) (A) (A) (A) (A) (A) (A)
                 (A) (A) (A) (A) (A) (A) (A) (A) (A) (A) (A) (A)
                 (A) (A) (A) (A) (A) (A) (A) (A) (A) (A) (A) (A)
                 (A) (A) (A) (A) (A) (A) (A) (A) (A) (A) (A) (A)
                 (A) (A) (A) (A) (A) (A) (A) (A) (A) (A) (A) (A)
                 (A) (A) (A) (A) (A) (A) (A) (A) (A) (A) (A) (A)
                 (A) (A) (A) (A) (A) (A) (A) (A) (A) (A) (A) (A)
                 (A) (A) (A) (A) (A) (A) (A) (A) (A) (A) (A) (A)
                 (A) (A) (A) (A) (A) (A) (A) (A) (A) (A) (A) (A)
                 (A) (A) (A) (A) (A) (A) (A) (A) (A) (A) (A) (A)
                 (A) (A) (A) (A) (A) (A) (A) (A) (A) (A) (A) (A)
 The electronic state is 1-A.
 Alpha  occ. eigenvalues -- -104.82012-104.82012 -11.30840 -11.30839 -11.24989
 Alpha  occ. eigenvalues --  -11.24987 -11.24930 -11.24929 -10.54513 -10.54512
 Alpha  occ. eigenvalues --   -8.01179  -8.01179  -8.01019  -8.01018  -8.01017
 Alpha  occ. eigenvalues --   -8.01017  -1.17644  -1.13223  -1.06312  -1.03510
 Alpha  occ. eigenvalues --   -0.97013  -0.86865  -0.82665  -0.78742  -0.67302
 Alpha  occ. eigenvalues --   -0.63162  -0.62602  -0.62548  -0.57876  -0.55783
 Alpha  occ. eigenvalues --   -0.55151  -0.52547  -0.51680  -0.49485  -0.48970
 Alpha  occ. eigenvalues --   -0.46727  -0.43466  -0.43265  -0.43155  -0.42817
 Alpha virt. eigenvalues --    0.12058   0.13647   0.15299   0.17740   0.18446
 Alpha virt. eigenvalues --    0.18967   0.20401   0.20531   0.21604   0.22019
 Alpha virt. eigenvalues --    0.23157   0.23368   0.28396   0.28519   0.32593
 Alpha virt. eigenvalues --    0.34014   0.34538   0.35522   0.38208   0.40386
 Alpha virt. eigenvalues --    0.41109   0.41566   0.43051   0.45601   0.45669
 Alpha virt. eigenvalues --    0.45899   0.46725   0.49048   0.49923   0.50480
 Alpha virt. eigenvalues --    0.50486   0.52493   0.54457   0.55934   0.57257
 Alpha virt. eigenvalues --    0.58165   0.58393   0.58957   0.60616   0.60910
 Alpha virt. eigenvalues --    0.61380   0.61577   0.62935   0.63114   0.64727
 Alpha virt. eigenvalues --    0.65446   0.66232   0.66304   0.67632   0.67839
 Alpha virt. eigenvalues --    0.69868   0.71687   0.72271   0.74855   0.75182
 Alpha virt. eigenvalues --    0.77189   0.77618   0.82109   0.85419   0.86762
 Alpha virt. eigenvalues --    0.87476   0.88445   0.89988   0.93260   0.95335
 Alpha virt. eigenvalues --    0.96276   0.97305   0.97638   1.01478   1.06393
 Alpha virt. eigenvalues --    1.06522   1.09544   1.09651   1.10534   1.13992
 Alpha virt. eigenvalues --    1.14812   1.15880   1.17402   1.18933   1.20429
 Alpha virt. eigenvalues --    1.22626   1.25492   1.25660   1.26259   1.26605
 Alpha virt. eigenvalues --    1.28305   1.28690   1.29293   1.30018   1.33494
 Alpha virt. eigenvalues --    1.34015   1.35038   1.36232   1.36434   1.37332
 Alpha virt. eigenvalues --    1.39558   1.40657   1.41699   1.46548   1.47087
 Alpha virt. eigenvalues --    1.47130   1.48026   1.48557   1.52727   1.54098
 Alpha virt. eigenvalues --    1.54620   1.56323   1.57871   1.58158   1.58982
 Alpha virt. eigenvalues --    1.59006   1.62819   1.63843   1.64078   1.64301
 Alpha virt. eigenvalues --    1.65991   1.66941   1.70135   1.74798   1.78591
 Alpha virt. eigenvalues --    1.80348   1.81646   1.83383   1.86601   1.89604
 Alpha virt. eigenvalues --    1.91797   1.98933   2.00160   2.02603   2.03741
 Alpha virt. eigenvalues --    2.28576   2.30148   2.30784   2.31439   2.31631
 Alpha virt. eigenvalues --    2.31814   2.34464   2.36695   2.37100   2.39685
 Alpha virt. eigenvalues --    2.43059   2.43352   2.43751   2.43915   2.45074
 Alpha virt. eigenvalues --    2.46331   2.46970   2.49223   2.49872   2.50882
 Alpha virt. eigenvalues --    2.53496   2.58700   2.59238   2.60751   2.62271
 Alpha virt. eigenvalues --    2.63246   2.63575   2.64107   2.66399   2.68159
 Alpha virt. eigenvalues --    2.68554   2.69612   2.70387   2.74966   2.78164
 Alpha virt. eigenvalues --    2.80000   2.82907   2.83858   2.84047   2.84339
 Alpha virt. eigenvalues --    2.85880   2.87989   2.88843   2.91188   2.92875
 Alpha virt. eigenvalues --    2.93181   2.95188   2.97477   2.97944   3.01330
 Alpha virt. eigenvalues --    3.01500   3.01522   3.05723   3.08216   3.08538
 Alpha virt. eigenvalues --    3.08566   3.12785   3.13798   3.16903   3.17829
 Alpha virt. eigenvalues --    3.20515   3.22593   3.24393   3.24535   3.24610
 Alpha virt. eigenvalues --    3.28337   3.28974   3.30892   3.31338   3.35684
 Alpha virt. eigenvalues --    3.38084   3.40321   3.43214   3.43707   3.44298
 Alpha virt. eigenvalues --    3.46365   3.46850   3.47129   3.47189   3.50414
 Alpha virt. eigenvalues --    3.51153   3.51464   3.52274   3.54138   3.54435
 Alpha virt. eigenvalues --    3.57157   3.57925   3.60024   3.60855   3.63390
 Alpha virt. eigenvalues --    3.63789   3.67226   3.68142   3.68438   3.71129
 Alpha virt. eigenvalues --    3.76955   3.78390   3.79611   3.81780   3.82224
 Alpha virt. eigenvalues --    3.82325   3.85760   3.86184   3.86278   3.90403
 Alpha virt. eigenvalues --    3.91350   3.93343   3.97353   3.97749   3.99970
 Alpha virt. eigenvalues --    4.02399   4.05661   4.06522   4.07166   4.09564
 Alpha virt. eigenvalues --    4.10264   4.12103   4.13669   4.16365   4.17057
 Alpha virt. eigenvalues --    4.17423   4.17604   4.17876   4.21682   4.22230
 Alpha virt. eigenvalues --    4.22769   4.25944   4.26565   4.30264   4.32242
 Alpha virt. eigenvalues --    4.33158   4.34206   4.34399   4.35650   4.37204
 Alpha virt. eigenvalues --    4.39374   4.41294   4.41516   4.46987   4.47791
 Alpha virt. eigenvalues --    4.49238   4.49355   4.49908   4.51264   4.52634
 Alpha virt. eigenvalues --    4.52857   4.54611   4.56576   4.57886   4.57901
 Alpha virt. eigenvalues --    4.58836   4.62659   4.65325   4.65934   4.68444
 Alpha virt. eigenvalues --    4.70656   4.72174   4.72301   4.81541   4.81643
 Alpha virt. eigenvalues --    4.83284   4.84894   4.88280   4.94293   4.95028
 Alpha virt. eigenvalues --    4.97463   4.99110   5.04049   5.05591   5.07760
 Alpha virt. eigenvalues --    5.11614   5.14179   5.16761   5.20079   5.21874
 Alpha virt. eigenvalues --    5.23091   5.29219   5.31556   5.31649   5.32869
 Alpha virt. eigenvalues --    5.35250   5.36840   5.38549   5.39047   5.39757
 Alpha virt. eigenvalues --    5.41246   5.42522   5.55519   5.56764   5.57602
 Alpha virt. eigenvalues --    5.59910   5.66270   5.69312   5.69897   5.72831
 Alpha virt. eigenvalues --    5.78277   5.80309   5.80312   5.82568   5.84327
 Alpha virt. eigenvalues --    5.85966   5.95723   5.97211   5.98066   6.02222
 Alpha virt. eigenvalues --    6.09450   6.15803   6.18171   6.35598   6.39418
 Alpha virt. eigenvalues --    6.40522   6.46637  11.64517  11.69963  13.21716
 Alpha virt. eigenvalues --   13.41171  13.58188  13.59473
          Condensed to atoms (all electrons):
              1          2          3          4          5          6
     1  C    4.914275   0.330932  -0.040093   0.005246  -0.034330   0.324013
     2  C    0.330932   4.914255   0.324022  -0.034334   0.005246  -0.040089
     3  C   -0.040093   0.324022   4.851246   0.324019  -0.040090   0.000742
     4  C    0.005246  -0.034334   0.324019   4.914268   0.330930  -0.040091
     5  C   -0.034330   0.005246  -0.040090   0.330930   4.914266   0.324021
     6  C    0.324013  -0.040089   0.000742  -0.040091   0.324021   4.851240
     7  Cl   0.001933  -0.061817   0.278882  -0.061820   0.001933   0.001152
     8  Cl  -0.061820   0.001933   0.001152   0.001933  -0.061820   0.278886
     9  H    0.000337  -0.002581  -0.034963   0.417274  -0.033837  -0.000751
    10  H   -0.000841   0.006107  -0.034167   0.433183  -0.031566   0.004646
    11  H    0.002031  -0.031239   0.425821  -0.031240   0.002031  -0.001005
    12  H   -0.031565   0.433184  -0.034167   0.006107  -0.000841   0.004646
    13  H   -0.033839   0.417275  -0.034963  -0.002581   0.000337  -0.000750
    14  H    0.006107  -0.000841   0.004646  -0.031564   0.433183  -0.034164
    15  H   -0.002580   0.000337  -0.000752  -0.033838   0.417273  -0.034969
    16  H   -0.031243   0.002030  -0.001005   0.002031  -0.031241   0.425820
    17  H    0.433184  -0.031564   0.004646  -0.000841   0.006107  -0.034169
    18  H    0.417273  -0.033837  -0.000752   0.000338  -0.002581  -0.034966
              7          8          9         10         11         12
     1  C    0.001933  -0.061820   0.000337  -0.000841   0.002031  -0.031565
     2  C   -0.061817   0.001933  -0.002581   0.006107  -0.031239   0.433184
     3  C    0.278882   0.001152  -0.034963  -0.034167   0.425821  -0.034167
     4  C   -0.061820   0.001933   0.417274   0.433183  -0.031240   0.006107
     5  C    0.001933  -0.061820  -0.033837  -0.031566   0.002031  -0.000841
     6  C    0.001152   0.278886  -0.000751   0.004646  -0.001005   0.004646
     7  Cl  17.112520   0.000013   0.001895   0.000679  -0.034210   0.000679
     8  Cl   0.000013  17.112528   0.000064  -0.000270  -0.000108  -0.000270
     9  H    0.001895   0.000064   0.555817  -0.024720   0.005582  -0.000162
    10  H    0.000679  -0.000270  -0.024720   0.526624  -0.003985  -0.000266
    11  H   -0.034210  -0.000108   0.005582  -0.003985   0.519634  -0.003985
    12  H    0.000679  -0.000270  -0.000162  -0.000266  -0.003985   0.526613
    13  H    0.001894   0.000064   0.002281  -0.000162   0.005582  -0.024719
    14  H   -0.000270   0.000679  -0.004215  -0.004775  -0.000021   0.000095
    15  H    0.000064   0.001894   0.005298  -0.004215   0.000673  -0.000084
    16  H   -0.000108  -0.034213   0.000673  -0.000021  -0.000094  -0.000021
    17  H   -0.000270   0.000678  -0.000084   0.000095  -0.000021  -0.004775
    18  H    0.000064   0.001894   0.000029  -0.000084   0.000673  -0.004215
             13         14         15         16         17         18
     1  C   -0.033839   0.006107  -0.002580  -0.031243   0.433184   0.417273
     2  C    0.417275  -0.000841   0.000337   0.002030  -0.031564  -0.033837
     3  C   -0.034963   0.004646  -0.000752  -0.001005   0.004646  -0.000752
     4  C   -0.002581  -0.031564  -0.033838   0.002031  -0.000841   0.000338
     5  C    0.000337   0.433183   0.417273  -0.031241   0.006107  -0.002581
     6  C   -0.000750  -0.034164  -0.034969   0.425820  -0.034169  -0.034966
     7  Cl   0.001894  -0.000270   0.000064  -0.000108  -0.000270   0.000064
     8  Cl   0.000064   0.000679   0.001894  -0.034213   0.000678   0.001894
     9  H    0.002281  -0.004215   0.005298   0.000673  -0.000084   0.000029
    10  H   -0.000162  -0.004775  -0.004215  -0.000021   0.000095  -0.000084
    11  H    0.005582  -0.000021   0.000673  -0.000094  -0.000021   0.000673
    12  H   -0.024719   0.000095  -0.000084  -0.000021  -0.004775  -0.004215
    13  H    0.555819  -0.000084   0.000029   0.000673  -0.004215   0.005298
    14  H   -0.000084   0.526612  -0.024721  -0.003985  -0.000266  -0.000162
    15  H    0.000029  -0.024721   0.555837   0.005583  -0.000162   0.002282
    16  H    0.000673  -0.003985   0.005583   0.519656  -0.003987   0.005583
    17  H   -0.004215  -0.000266  -0.000162  -0.003987   0.526627  -0.024723
    18  H    0.005298  -0.000162   0.002282   0.005583  -0.024723   0.555836
 Mulliken atomic charges:
              1
     1  C   -0.199019
     2  C   -0.199020
     3  C    0.005775
     4  C   -0.199021
     5  C   -0.199020
     6  C    0.005790
     7  Cl  -0.243214
     8  Cl  -0.243217
     9  H    0.112063
    10  H    0.133739
    11  H    0.143880
    12  H    0.133745
    13  H    0.112060
    14  H    0.133747
    15  H    0.112050
    16  H    0.143870
    17  H    0.133740
    18  H    0.112052
 Sum of Mulliken atomic charges =   0.00000
 Mulliken charges with hydrogens summed into heavy atoms:
              1
     1  C    0.046773
     2  C    0.046785
     3  C    0.149655
     4  C    0.046781
     5  C    0.046778
     6  C    0.149660
     7  Cl  -0.243214
     8  Cl  -0.243217
 Sum of Mulliken charges with hydrogens summed into heavy atoms =   0.00000
 Electronic spatial extent (au):  <R**2>=           1856.3580
 Charge=              0.0000 electrons
 Dipole moment (field-independent basis, Debye):
    X=              0.0000    Y=              0.0000    Z=              0.0001  Tot=              0.0001
 Quadrupole moment (field-independent basis, Debye-Ang):
   XX=            -83.3388   YY=            -61.2782   ZZ=            -61.8391
   XY=              0.0000   XZ=             -1.3138   YZ=              0.0000
 Traceless Quadrupole moment (field-independent basis, Debye-Ang):
   XX=            -14.5201   YY=              7.5405   ZZ=              6.9796
   XY=              0.0000   XZ=             -1.3138   YZ=              0.0000
 Octapole moment (field-independent basis, Debye-Ang**2):
  XXX=              0.0003  YYY=              0.0000  ZZZ=              0.0001  XYY=             -0.0001
  XXY=             -0.0001  XXZ=              0.0006  XZZ=              0.0000  YZZ=              0.0001
  YYZ=             -0.0001  XYZ=              0.0000
 Hexadecapole moment (field-independent basis, Debye-Ang**3):
 XXXX=          -2064.9578 YYYY=           -364.9537 ZZZZ=           -120.9693 XXXY=             -0.0002
 XXXZ=             12.7568 YYYX=              0.0006 YYYZ=             -0.0007 ZZZX=             -2.8294
 ZZZY=              0.0000 XXYY=           -387.1367 XXZZ=           -345.1252 YYZZ=            -84.0586
 XXYZ=              0.0000 YYXZ=             -3.3106 ZZXY=             -0.0001
 N-N= 5.227177791590D+02 E-N=-3.776002622439D+03  KE= 1.151700091908D+03
 1\1\GINC-ROCK\SP\RMP2-FC\CC-pVTZ\C6H10Cl2\STYLIANAKIS\02-Mar-2016\0\\#
  mp2/cc-pVTZ\\1-4-diCl-cyclohexane-dieq_single_point\\0,1\C\C,1,1.5423
 95\C,2,1.528752,1,110.526\C,3,1.52875,2,111.919,1,-56.34,0\C,4,1.54239
 4,3,110.527,2,56.341,0\C,5,1.528737,4,110.527,3,-55.539,0\Cl,3,1.83188
 7,4,110.052,5,179.047,0\Cl,6,1.831889,5,110.052,4,179.045,0\H,4,1.0970
 38,3,108.939,2,-64.801,0\H,4,1.094178,3,110.203,2,178.081,0\H,3,1.0938
 66,4,110.133,5,-66.527,0\H,2,1.094167,3,110.204,4,-178.08,0\H,2,1.0970
 42,3,108.939,4,64.8,0\H,5,1.094169,4,109.954,3,-177.43,0\H,5,1.097056,
 4,110.139,3,64.885,0\H,6,1.093889,5,110.134,4,-66.532,0\H,1,1.094179,2
 ,109.954,3,177.429,0\H,1,1.097057,2,110.139,3,-64.889,0\\Version=EM64L
 -G09RevA.01\State=1-A\HF=-1152.1685097\MP2=-1153.5716358\RMSD=8.967e-0
 9\PG=C01 [X(C6H10Cl2)]\\@


 IN THE UNIVERSE THE DIFFICULT THINGS ARE DONE AS IF THEY WERE EASY.

                                                          -- LAO-TSU
 Job cpu time:  0 days  0 hours 58 minutes 50.7 seconds.
 File lengths (MBytes):  RWF=     84 Int=      0 D2E=      0 Chk=      7 Scr=      1
 Normal termination of Gaussian 09 at Wed Mar  2 00:38:42 2016.
