 Entering Gaussian System, Link 0=g09
 Input=1-4-diF-cyclohexane-dieq.gjf
 Output=1-4-diF-cyclohexane-dieq.out
 Initial command:
 /usr/local/g09/l1.exe /home/scratch/stylianakis/Gau-27090.inp -scrdir=/home/scratch/stylianakis/
 Entering Link 1 = /usr/local/g09/l1.exe PID=     27091.
  
 Copyright (c) 1988,1990,1992,1993,1995,1998,2003,2009, Gaussian, Inc.
                  All Rights Reserved.
  
 This is part of the Gaussian(R) 09 program.  It is based on
 the Gaussian(R) 03 system (copyright 2003, Gaussian, Inc.),
 the Gaussian(R) 98 system (copyright 1998, Gaussian, Inc.),
 the Gaussian(R) 94 system (copyright 1995, Gaussian, Inc.),
 the Gaussian 92(TM) system (copyright 1992, Gaussian, Inc.),
 the Gaussian 90(TM) system (copyright 1990, Gaussian, Inc.),
 the Gaussian 88(TM) system (copyright 1988, Gaussian, Inc.),
 the Gaussian 86(TM) system (copyright 1986, Carnegie Mellon
 University), and the Gaussian 82(TM) system (copyright 1983,
 Carnegie Mellon University). Gaussian is a federally registered
 trademark of Gaussian, Inc.
  
 This software contains proprietary and confidential information,
 including trade secrets, belonging to Gaussian, Inc.
  
 This software is provided under written license and may be
 used, copied, transmitted, or stored only in accord with that
 written license.
  
 The following legend is applicable only to US Government
 contracts under FAR:
  
                    RESTRICTED RIGHTS LEGEND
  
 Use, reproduction and disclosure by the US Government is
 subject to restrictions as set forth in subparagraphs (a)
 and (c) of the Commercial Computer Software - Restricted
 Rights clause in FAR 52.227-19.
  
 Gaussian, Inc.
 340 Quinnipiac St., Bldg. 40, Wallingford CT 06492
  
  
 ---------------------------------------------------------------
 Warning -- This program may not be used in any manner that
 competes with the business of Gaussian, Inc. or will provide
 assistance to any competitor of Gaussian, Inc.  The licensee
 of this program is prohibited from giving any competitor of
 Gaussian, Inc. access to this program.  By using this program,
 the user acknowledges that Gaussian, Inc. is engaged in the
 business of creating and licensing software in the field of
 computational chemistry and represents and warrants to the
 licensee that it is not a competitor of Gaussian, Inc. and that
 it will not use this program in any manner prohibited above.
 ---------------------------------------------------------------
  

 Cite this work as:
 Gaussian 09, Revision A.01,
 M. J. Frisch, G. W. Trucks, H. B. Schlegel, G. E. Scuseria, 
 M. A. Robb, J. R. Cheeseman, G. Scalmani, V. Barone, B. Mennucci, 
 G. A. Petersson, H. Nakatsuji, M. Caricato, X. Li, H. P. Hratchian, 
 A. F. Izmaylov, J. Bloino, G. Zheng, J. L. Sonnenberg, M. Hada, 
 M. Ehara, K. Toyota, R. Fukuda, J. Hasegawa, M. Ishida, T. Nakajima, 
 Y. Honda, O. Kitao, H. Nakai, T. Vreven, J. A. Montgomery, Jr., 
 J. E. Peralta, F. Ogliaro, M. Bearpark, J. J. Heyd, E. Brothers, 
 K. N. Kudin, V. N. Staroverov, R. Kobayashi, J. Normand, 
 K. Raghavachari, A. Rendell, J. C. Burant, S. S. Iyengar, J. Tomasi, 
 M. Cossi, N. Rega, J. M. Millam, M. Klene, J. E. Knox, J. B. Cross, 
 V. Bakken, C. Adamo, J. Jaramillo, R. Gomperts, R. E. Stratmann, 
 O. Yazyev, A. J. Austin, R. Cammi, C. Pomelli, J. W. Ochterski, 
 R. L. Martin, K. Morokuma, V. G. Zakrzewski, G. A. Voth, 
 P. Salvador, J. J. Dannenberg, S. Dapprich, A. D. Daniels, 
 O. Farkas, J. B. Foresman, J. V. Ortiz, J. Cioslowski, 
 and D. J. Fox, Gaussian, Inc., Wallingford CT, 2009.
 
 ******************************************
 Gaussian 09:  EM64L-G09RevA.01  8-May-2009
                 2-Mar-2016 
 ******************************************
 %mem=8000Mb
 %nproc=4
 Will use up to    4 processors via shared memory.
 -------------
 # mp2/cc-pVTZ
 -------------
 1/38=1/1;
 2/12=2,17=6,18=5,40=1/2;
 3/5=16,6=1,11=9,16=1,25=1,30=1/1,2,3;
 4//1;
 5/5=2,38=5/2;
 8/10=1/1;
 9/16=-3/6;
 6/7=2,8=2,9=2,10=2/1;
 99/5=1,9=1/99;
 -------------------------------------
 1-4-diF-cyclohexane-dieq_single_point
 -------------------------------------
 Symbolic Z-matrix:
 Charge =  0 Multiplicity = 1
 c
 c                    1    cc2
 c                    2    cc3      1    ccc3
 c                    3    cc4      2    ccc4     1    dih4     0
 c                    4    cc5      3    ccc5     2    dih5     0
 c                    5    cc6      4    ccc6     3    dih6     0
 f                    3    fc7      4    fcc7     5    dih7     0
 f                    6    fc8      5    fcc8     4    dih8     0
 h                    4    hc9      3    hcc9     2    dih9     0
 h                    4    hc10     3    hcc10    2    dih10    0
 h                    3    hc11     4    hcc11    5    dih11    0
 h                    2    hc12     3    hcc12    4    dih12    0
 h                    2    hc13     3    hcc13    4    dih13    0
 h                    5    hc14     4    hcc14    3    dih14    0
 h                    5    hc15     4    hcc15    3    dih15    0
 h                    6    hc16     5    hcc16    4    dih16    0
 h                    1    hc17     2    hcc17    3    dih17    0
 h                    1    hc18     2    hcc18    3    dih18    0
       Variables:
  cc2                   1.53997                  
  cc3                   1.52512                  
  ccc3                110.7                      
  cc4                   1.52517                  
  ccc4                112.215                    
  dih4                -55.774                    
  cc5                   1.53995                  
  ccc5                110.699                    
  dih5                 55.774                    
  cc6                   1.52512                  
  ccc6                110.699                    
  dih6                -54.913                    
  fc7                   1.41366                  
  fcc7                108.911                    
  dih7                176.436                    
  fc8                   1.41367                  
  fcc8                108.911                    
  dih8                176.437                    
  hc9                   1.09451                  
  hcc9                109.903                    
  dih9                178.156                    
  hc10                  1.09781                  
  hcc10               108.235                    
  dih10               -65.243                    
  hc11                  1.09804                  
  hcc11               110.391                    
  dih11               -67.824                    
  hc12                  1.0978                   
  hcc12               108.24                     
  dih12                65.247                    
  hc13                  1.09452                  
  hcc13               109.902                    
  dih13              -178.151                    
  hc14                  1.09781                  
  hcc14               110.319                    
  dih14                64.867                    
  hc15                  1.09452                  
  hcc15               110.531                    
  dih15              -176.925                    
  hc16                  1.09806                  
  hcc16               110.392                    
  dih16               -67.822                    
  hc17                  1.09781                  
  hcc17               110.318                    
  dih17               -64.862                    
  hc18                  1.0945                   
  hcc18               110.533                    
  dih18               176.924                    
 
                          Input orientation:                          
 ---------------------------------------------------------------------
 Center     Atomic      Atomic             Coordinates (Angstroms)
 Number     Number       Type             X           Y           Z
 ---------------------------------------------------------------------
      1          6           0        0.000000    0.000000    0.000000
      2          6           0        0.000000    0.000000    1.539966
      3          6           0        1.426664    0.000000    2.079058
      4          6           0        2.246796   -1.167441    1.539987
      5          6           0        2.246821   -1.167439    0.000038
      6          6           0        0.820155   -1.167462   -0.539052
      7          9           0        1.383445   -0.083134    3.489609
      8          9           0        0.863371   -1.084348   -1.949610
      9          1           0        3.270290   -1.112474    1.923889
     10          1           0        1.809477   -2.099450    1.921161
     11          1           0        1.921905    0.953087    1.850883
     12          1           0       -0.511357   -0.893517    1.921147
     13          1           0       -0.543337    0.869166    1.923788
     14          1           0        2.758134   -0.273890   -0.381164
     15          1           0        2.790191   -2.036567   -0.383819
     16          1           0        0.324929   -2.120563   -0.310852
     17          1           0        0.437332    0.931994   -0.381192
     18          1           0       -1.023489   -0.055000   -0.383892
 ---------------------------------------------------------------------
                    Distance matrix (angstroms):
                    1          2          3          4          5
     1  C    0.000000
     2  C    1.539966   0.000000
     3  C    2.521478   1.525120   0.000000
     4  C    2.963540   2.531998   1.525166   0.000000
     5  C    2.532019   2.963528   2.521487   1.539949   0.000000
     6  C    1.525188   2.521495   2.930071   2.521450   1.525121
     7  F    3.754757   2.392057   1.413660   2.392096   3.754763
     8  F    2.392112   3.754778   4.209902   3.754738   2.392063
     9  H    3.953953   3.475599   2.158849   1.094505   2.179843
    10  H    3.372352   2.797715   2.139899   1.097808   2.179593
    11  H    2.833348   2.167663   1.098045   2.167683   2.833343
    12  H    2.179602   1.097797   2.139915   2.797808   3.372423
    13  H    2.179823   1.094525   2.158811   3.475617   3.953930
    14  H    2.797786   3.372397   2.810786   2.179615   1.097810
    15  H    3.475642   3.953950   3.474561   2.179837   1.094523
    16  H    2.167716   2.833354   3.379686   2.833306   2.167663
    17  H    1.097807   2.179615   2.810733   3.372346   2.797715
    18  H    1.094499   2.179859   3.474536   3.953935   3.475608
                    6          7          8          9         10
     6  C    0.000000
     7  F    4.209890   0.000000
     8  F    1.413665   5.554998   0.000000
     9  H    3.474517   2.659173   4.560488   0.000000
    10  H    2.810695   2.589800   4.111984   1.762981   0.000000
    11  H    3.379700   2.012242   4.440201   2.467795   3.055415
    12  H    2.810791   2.589801   4.112061   3.787981   2.615444
    13  H    3.474557   2.659165   4.560511   4.297749   3.787931
    14  H    2.139898   4.112061   2.589786   2.505753   3.087607
    15  H    2.158816   4.560513   2.659146   2.531790   2.505730
    16  H    1.098055   4.440166   2.012259   3.832162   2.680711
    17  H    2.139904   4.112021   2.589803   4.185558   4.046389
    18  H    2.158858   4.560497   2.659186   4.988050   4.185540
                   11         12         13         14         15
    11  H    0.000000
    12  H    3.055430   0.000000
    13  H    2.467748   1.762976   0.000000
    14  H    2.680818   4.046498   4.185582   0.000000
    15  H    3.832212   4.185648   4.988061   1.762971   0.000000
    16  H    4.082984   2.680827   3.832230   3.055426   2.467771
    17  H    2.680776   3.087599   2.505712   2.615393   3.787917
    18  H    3.832206   2.505712   2.531802   3.787954   4.297763
                   16         17         18
    16  H    0.000000
    17  H    3.055436   0.000000
    18  H    2.467816   1.762999   0.000000
 Stoichiometry    C6H10F2
 Framework group  C1[X(C6H10F2)]
 Deg. of freedom    48
 Full point group                 C1      NOp   1
 Largest Abelian subgroup         C1      NOp   1
 Largest concise Abelian subgroup C1      NOp   1
                         Standard orientation:                         
 ---------------------------------------------------------------------
 Center     Atomic      Atomic             Coordinates (Angstroms)
 Number     Number       Type             X           Y           Z
 ---------------------------------------------------------------------
      1          6           0        0.749630    1.266034    0.175757
      2          6           0       -0.749682    1.265986   -0.175752
      3          6           0       -1.424649    0.000000    0.341634
      4          6           0       -0.749621   -1.266012   -0.175749
      5          6           0        0.749671   -1.265984    0.175769
      6          6           0        1.424642   -0.000007   -0.341637
      7          9           0       -2.776576   -0.000025   -0.071560
      8          9           0        2.776579    0.000011    0.071538
      9          1           0       -1.242211   -2.148891    0.243562
     10          1           0       -0.885930   -1.307686   -1.264264
     11          1           0       -1.447664   -0.000011    1.439437
     12          1           0       -0.886004    1.307758   -1.264251
     13          1           0       -1.242264    2.148858    0.243633
     14          1           0        0.886012   -1.307703    1.264280
     15          1           0        1.242276   -2.148869   -0.243560
     16          1           0        1.447634   -0.000016   -1.439452
     17          1           0        0.885958    1.307690    1.264270
     18          1           0        1.242216    2.148894   -0.243583
 ---------------------------------------------------------------------
 Rotational constants (GHZ):      4.2910555      1.2711871      1.0427204
 Standard basis: CC-pVTZ (5D, 7F)
 There are   380 symmetry adapted basis functions of A   symmetry.
 Integral buffers will be    131072 words long.
 Raffenetti 1 integral format.
 Two-electron integral symmetry is turned on.
   380 basis functions,   586 primitive gaussians,   430 cartesian basis functions
    32 alpha electrons       32 beta electrons
       nuclear repulsion energy       405.4946734199 Hartrees.
 NAtoms=   18 NActive=   18 NUniq=   18 SFac= 7.50D-01 NAtFMM=   80 NAOKFM=F Big=F
 One-electron integrals computed using PRISM.
 NBasis=   380 RedAO= T  NBF=   380
 NBsUse=   380 1.00D-06 NBFU=   380
 Harris functional with IExCor=  205 diagonalized for initial guess.
 ExpMin= 1.03D-01 ExpMax= 1.95D+04 ExpMxC= 6.65D+02 IAcc=1 IRadAn=         1 AccDes= 0.00D+00
 HarFok:  IExCor=  205 AccDes= 0.00D+00 IRadAn=         1 IDoV= 1
 ScaDFX=  1.000000  1.000000  1.000000  1.000000
 FoFCou: FMM=F IPFlag=           0 FMFlag=      100000 FMFlg1=           0
         NFxFlg=           0 DoJE=T BraDBF=F KetDBF=T FulRan=T
         Omega=  0.000000  0.000000  1.000000  0.000000  0.000000 ICntrl=     500 IOpCl=  0
         NMat0=    1 NMatS0=    1 NMatT0=    0 NMatD0=    1 NMtDS0=    0 NMtDT0=    0
         I1Cent=           4 NGrid=           0.
 Petite list used in FoFCou.
 Initial guess orbital symmetries:
       Occupied  (A) (A) (A) (A) (A) (A) (A) (A) (A) (A) (A) (A)
                 (A) (A) (A) (A) (A) (A) (A) (A) (A) (A) (A) (A)
                 (A) (A) (A) (A) (A) (A) (A) (A)
       Virtual   (A) (A) (A) (A) (A) (A) (A) (A) (A) (A) (A) (A)
                 (A) (A) (A) (A) (A) (A) (A) (A) (A) (A) (A) (A)
                 (A) (A) (A) (A) (A) (A) (A) (A) (A) (A) (A) (A)
                 (A) (A) (A) (A) (A) (A) (A) (A) (A) (A) (A) (A)
                 (A) (A) (A) (A) (A) (A) (A) (A) (A) (A) (A) (A)
                 (A) (A) (A) (A) (A) (A) (A) (A) (A) (A) (A) (A)
                 (A) (A) (A) (A) (A) (A) (A) (A) (A) (A) (A) (A)
                 (A) (A) (A) (A) (A) (A) (A) (A) (A) (A) (A) (A)
                 (A) (A) (A) (A) (A) (A) (A) (A) (A) (A) (A) (A)
                 (A) (A) (A) (A) (A) (A) (A) (A) (A) (A) (A) (A)
                 (A) (A) (A) (A) (A) (A) (A) (A) (A) (A) (A) (A)
                 (A) (A) (A) (A) (A) (A) (A) (A) (A) (A) (A) (A)
                 (A) (A) (A) (A) (A) (A) (A) (A) (A) (A) (A) (A)
                 (A) (A) (A) (A) (A) (A) (A) (A) (A) (A) (A) (A)
                 (A) (A) (A) (A) (A) (A) (A) (A) (A) (A) (A) (A)
                 (A) (A) (A) (A) (A) (A) (A) (A) (A) (A) (A) (A)
                 (A) (A) (A) (A) (A) (A) (A) (A) (A) (A) (A) (A)
                 (A) (A) (A) (A) (A) (A) (A) (A) (A) (A) (A) (A)
                 (A) (A) (A) (A) (A) (A) (A) (A) (A) (A) (A) (A)
                 (A) (A) (A) (A) (A) (A) (A) (A) (A) (A) (A) (A)
                 (A) (A) (A) (A) (A) (A) (A) (A) (A) (A) (A) (A)
                 (A) (A) (A) (A) (A) (A) (A) (A) (A) (A) (A) (A)
                 (A) (A) (A) (A) (A) (A) (A) (A) (A) (A) (A) (A)
                 (A) (A) (A) (A) (A) (A) (A) (A) (A) (A) (A) (A)
                 (A) (A) (A) (A) (A) (A) (A) (A) (A) (A) (A) (A)
                 (A) (A) (A) (A) (A) (A) (A) (A) (A) (A) (A) (A)
                 (A) (A) (A) (A) (A) (A) (A) (A) (A) (A) (A) (A)
                 (A) (A) (A) (A) (A) (A) (A) (A) (A) (A) (A) (A)
                 (A) (A) (A) (A) (A) (A) (A) (A) (A) (A) (A) (A)
 The electronic state of the initial guess is 1-A.
 Requested convergence on RMS density matrix=1.00D-08 within 128 cycles.
 Requested convergence on MAX density matrix=1.00D-06.
 Requested convergence on             energy=1.00D-06.
 No special actions if energy rises.
 Integral accuracy reduced to 1.0D-05 until final iterations.
 Initial convergence to 1.0D-05 achieved.  Increase integral accuracy.
 SCF Done:  E(RHF) =  -432.074754782     A.U. after   11 cycles
             Convg  =    0.7216D-08             -V/T =  2.0014
 ExpMin= 1.03D-01 ExpMax= 1.95D+04 ExpMxC= 6.65D+02 IAcc=1 IRadAn=         1 AccDes= 0.00D+00
 HarFok:  IExCor=  205 AccDes= 0.00D+00 IRadAn=         1 IDoV=-2
 ScaDFX=  1.000000  1.000000  1.000000  1.000000
 Range of M.O.s used for correlation:     9   380
 NBasis=   380 NAE=    32 NBE=    32 NFC=     8 NFV=     0
 NROrb=    372 NOA=    24 NOB=    24 NVA=   348 NVB=   348

 **** Warning!!: The largest alpha MO coefficient is  0.11561973D+02

 Fully direct method using O(OVN) memory.
 JobTyp=1 Pass  1:  I=   1 to  24 NPSUse=  4 ParTrn=T ParDer=T DoDerP=F.
 Spin components of T(2) and E(2):
     alpha-alpha T2 =       0.5100313030D-01 E2=     -0.1841169586D+00
     alpha-beta  T2 =       0.2988597672D+00 E2=     -0.1150664338D+01
     beta-beta   T2 =       0.5100313030D-01 E2=     -0.1841169586D+00
 ANorm=    0.1183581864D+01
 E2 =    -0.1518898255D+01 EUMP2 =    -0.43359365303684D+03

 **********************************************************************

            Population analysis using the SCF density.

 **********************************************************************

 Orbital symmetries:
       Occupied  (A) (A) (A) (A) (A) (A) (A) (A) (A) (A) (A) (A)
                 (A) (A) (A) (A) (A) (A) (A) (A) (A) (A) (A) (A)
                 (A) (A) (A) (A) (A) (A) (A) (A)
       Virtual   (A) (A) (A) (A) (A) (A) (A) (A) (A) (A) (A) (A)
                 (A) (A) (A) (A) (A) (A) (A) (A) (A) (A) (A) (A)
                 (A) (A) (A) (A) (A) (A) (A) (A) (A) (A) (A) (A)
                 (A) (A) (A) (A) (A) (A) (A) (A) (A) (A) (A) (A)
                 (A) (A) (A) (A) (A) (A) (A) (A) (A) (A) (A) (A)
                 (A) (A) (A) (A) (A) (A) (A) (A) (A) (A) (A) (A)
                 (A) (A) (A) (A) (A) (A) (A) (A) (A) (A) (A) (A)
                 (A) (A) (A) (A) (A) (A) (A) (A) (A) (A) (A) (A)
                 (A) (A) (A) (A) (A) (A) (A) (A) (A) (A) (A) (A)
                 (A) (A) (A) (A) (A) (A) (A) (A) (A) (A) (A) (A)
                 (A) (A) (A) (A) (A) (A) (A) (A) (A) (A) (A) (A)
                 (A) (A) (A) (A) (A) (A) (A) (A) (A) (A) (A) (A)
                 (A) (A) (A) (A) (A) (A) (A) (A) (A) (A) (A) (A)
                 (A) (A) (A) (A) (A) (A) (A) (A) (A) (A) (A) (A)
                 (A) (A) (A) (A) (A) (A) (A) (A) (A) (A) (A) (A)
                 (A) (A) (A) (A) (A) (A) (A) (A) (A) (A) (A) (A)
                 (A) (A) (A) (A) (A) (A) (A) (A) (A) (A) (A) (A)
                 (A) (A) (A) (A) (A) (A) (A) (A) (A) (A) (A) (A)
                 (A) (A) (A) (A) (A) (A) (A) (A) (A) (A) (A) (A)
                 (A) (A) (A) (A) (A) (A) (A) (A) (A) (A) (A) (A)
                 (A) (A) (A) (A) (A) (A) (A) (A) (A) (A) (A) (A)
                 (A) (A) (A) (A) (A) (A) (A) (A) (A) (A) (A) (A)
                 (A) (A) (A) (A) (A) (A) (A) (A) (A) (A) (A) (A)
                 (A) (A) (A) (A) (A) (A) (A) (A) (A) (A) (A) (A)
                 (A) (A) (A) (A) (A) (A) (A) (A) (A) (A) (A) (A)
                 (A) (A) (A) (A) (A) (A) (A) (A) (A) (A) (A) (A)
                 (A) (A) (A) (A) (A) (A) (A) (A) (A) (A) (A) (A)
                 (A) (A) (A) (A) (A) (A) (A) (A) (A) (A) (A) (A)
                 (A) (A) (A) (A) (A) (A) (A) (A) (A) (A) (A) (A)
 The electronic state is 1-A.
 Alpha  occ. eigenvalues --  -26.26858 -26.26858 -11.31679 -11.31679 -11.24130
 Alpha  occ. eigenvalues --  -11.24128 -11.24071 -11.24070  -1.57483  -1.57463
 Alpha  occ. eigenvalues --   -1.13661  -1.03066  -1.01302  -0.86954  -0.84867
 Alpha  occ. eigenvalues --   -0.79449  -0.70297  -0.69258  -0.68871  -0.67088
 Alpha  occ. eigenvalues --   -0.65136  -0.64367  -0.60575  -0.58650  -0.58289
 Alpha  occ. eigenvalues --   -0.55332  -0.52120  -0.51014  -0.50284  -0.49777
 Alpha  occ. eigenvalues --   -0.47070  -0.45251
 Alpha virt. eigenvalues --    0.13382   0.13852   0.15512   0.17672   0.19647
 Alpha virt. eigenvalues --    0.20722   0.21181   0.21966   0.23721   0.23736
 Alpha virt. eigenvalues --    0.27239   0.29297   0.31056   0.32367   0.35761
 Alpha virt. eigenvalues --    0.37071   0.37634   0.37884   0.38676   0.42677
 Alpha virt. eigenvalues --    0.44044   0.46278   0.48863   0.49105   0.52243
 Alpha virt. eigenvalues --    0.53115   0.54522   0.55991   0.56736   0.57917
 Alpha virt. eigenvalues --    0.58323   0.58618   0.60150   0.61281   0.61517
 Alpha virt. eigenvalues --    0.62434   0.63885   0.64710   0.65801   0.66460
 Alpha virt. eigenvalues --    0.67940   0.68125   0.68571   0.68687   0.73826
 Alpha virt. eigenvalues --    0.74292   0.81211   0.82485   0.82929   0.85647
 Alpha virt. eigenvalues --    0.90158   0.94153   0.94224   0.94808   0.97029
 Alpha virt. eigenvalues --    0.97869   1.01797   1.02204   1.05324   1.07648
 Alpha virt. eigenvalues --    1.08300   1.10555   1.10905   1.11046   1.11181
 Alpha virt. eigenvalues --    1.14170   1.17085   1.17746   1.19261   1.20466
 Alpha virt. eigenvalues --    1.22531   1.26155   1.26493   1.27132   1.27653
 Alpha virt. eigenvalues --    1.29808   1.29908   1.32183   1.33382   1.33882
 Alpha virt. eigenvalues --    1.34040   1.36909   1.37049   1.37296   1.38243
 Alpha virt. eigenvalues --    1.42570   1.43303   1.45598   1.46879   1.47776
 Alpha virt. eigenvalues --    1.47918   1.48720   1.48860   1.51550   1.53616
 Alpha virt. eigenvalues --    1.55960   1.56154   1.60017   1.61501   1.61791
 Alpha virt. eigenvalues --    1.63279   1.64137   1.65067   1.65676   1.67748
 Alpha virt. eigenvalues --    1.68456   1.75463   1.78831   1.79704   1.85054
 Alpha virt. eigenvalues --    1.85230   1.87266   1.87716   1.93744   1.95149
 Alpha virt. eigenvalues --    2.01407   2.01960   2.04170   2.23948   2.26017
 Alpha virt. eigenvalues --    2.36053   2.37799   2.41272   2.41792   2.44749
 Alpha virt. eigenvalues --    2.46572   2.52841   2.53898   2.58485   2.67677
 Alpha virt. eigenvalues --    2.70246   2.70317   2.71332   2.74856   2.76454
 Alpha virt. eigenvalues --    2.78127   2.78213   2.82658   2.84257   2.84425
 Alpha virt. eigenvalues --    2.85087   2.86148   2.86540   2.88434   2.88529
 Alpha virt. eigenvalues --    2.88904   2.89779   2.93533   2.96007   2.96176
 Alpha virt. eigenvalues --    2.96852   2.98950   3.00673   3.03687   3.06993
 Alpha virt. eigenvalues --    3.08858   3.11298   3.14133   3.15938   3.16519
 Alpha virt. eigenvalues --    3.19765   3.20777   3.21888   3.21966   3.25894
 Alpha virt. eigenvalues --    3.27893   3.29897   3.30680   3.31618   3.35367
 Alpha virt. eigenvalues --    3.37631   3.37945   3.40260   3.42673   3.43044
 Alpha virt. eigenvalues --    3.43468   3.43586   3.45936   3.46154   3.46812
 Alpha virt. eigenvalues --    3.47727   3.48545   3.52193   3.53077   3.55371
 Alpha virt. eigenvalues --    3.56046   3.57128   3.57927   3.58748   3.59895
 Alpha virt. eigenvalues --    3.59937   3.63414   3.63951   3.65833   3.68280
 Alpha virt. eigenvalues --    3.71997   3.74196   3.75053   3.76079   3.80266
 Alpha virt. eigenvalues --    3.84415   3.85365   3.86020   3.86557   3.86745
 Alpha virt. eigenvalues --    3.87280   3.87950   3.87962   3.96015   3.96479
 Alpha virt. eigenvalues --    4.00431   4.01487   4.02926   4.03133   4.05066
 Alpha virt. eigenvalues --    4.07247   4.08746   4.10239   4.12058   4.13654
 Alpha virt. eigenvalues --    4.13743   4.13858   4.14090   4.15746   4.16666
 Alpha virt. eigenvalues --    4.21039   4.22837   4.23404   4.25830   4.26577
 Alpha virt. eigenvalues --    4.29621   4.30579   4.32555   4.32625   4.33280
 Alpha virt. eigenvalues --    4.35797   4.37921   4.38966   4.42158   4.43103
 Alpha virt. eigenvalues --    4.44132   4.48213   4.48774   4.50041   4.50096
 Alpha virt. eigenvalues --    4.50553   4.50916   4.53415   4.54435   4.54850
 Alpha virt. eigenvalues --    4.55461   4.58687   4.59741   4.62993   4.64154
 Alpha virt. eigenvalues --    4.67651   4.69814   4.71585   4.76877   4.80799
 Alpha virt. eigenvalues --    4.80929   4.83163   4.85323   4.93452   4.95185
 Alpha virt. eigenvalues --    4.95295   4.98055   5.02975   5.03283   5.07059
 Alpha virt. eigenvalues --    5.08059   5.09697   5.15287   5.18805   5.19772
 Alpha virt. eigenvalues --    5.21580   5.27439   5.30660   5.31004   5.31912
 Alpha virt. eigenvalues --    5.34241   5.36080   5.36602   5.37290   5.39116
 Alpha virt. eigenvalues --    5.39499   5.40145   5.47722   5.52439   5.53711
 Alpha virt. eigenvalues --    5.57523   5.57601   5.59017   5.60145   5.64082
 Alpha virt. eigenvalues --    5.70591   5.71029   5.74475   5.74697   5.79224
 Alpha virt. eigenvalues --    5.80000   5.81261   5.85595   5.85714   5.86871
 Alpha virt. eigenvalues --    5.96332   5.96751   6.08551   6.13126   6.13568
 Alpha virt. eigenvalues --    6.35711   6.37443   6.37591   6.46883   6.61049
 Alpha virt. eigenvalues --    6.65907   7.43190   7.43688   7.44055   7.44390
 Alpha virt. eigenvalues --    7.53487   7.54511   7.56900   7.57842   7.77319
 Alpha virt. eigenvalues --    7.77668   7.78320   7.78563   7.87617   7.88138
 Alpha virt. eigenvalues --    9.02497   9.04953   9.05072   9.05840   9.47644
 Alpha virt. eigenvalues --    9.50026   9.51412   9.52334   9.63188   9.63479
 Alpha virt. eigenvalues --   11.81011  12.06992  12.49642  12.54204  13.17312
 Alpha virt. eigenvalues --   13.46079  13.59190  13.71209
          Condensed to atoms (all electrons):
              1          2          3          4          5          6
     1  C    5.010395   0.234428  -0.026324   0.018213  -0.058477   0.358572
     2  C    0.234428   5.010398   0.358562  -0.058478   0.018214  -0.026333
     3  C   -0.026324   0.358562   4.486102   0.358571  -0.026330  -0.005677
     4  C    0.018213  -0.058478   0.358571   5.010405   0.234422  -0.026326
     5  C   -0.058477   0.018214  -0.026330   0.234422   5.010404   0.358558
     6  C    0.358572  -0.026333  -0.005677  -0.026326   0.358558   4.486118
     7  F    0.002768  -0.037318   0.285201  -0.037317   0.002768   0.000288
     8  F   -0.037318   0.002768   0.000288   0.002768  -0.037318   0.285199
     9  H   -0.001768   0.007890  -0.032314   0.421880  -0.024985   0.004306
    10  H    0.001363  -0.006744  -0.028425   0.409444  -0.032550  -0.000766
    11  H    0.006156  -0.050640   0.434069  -0.050642   0.006158  -0.001613
    12  H   -0.032549   0.409447  -0.028419  -0.006746   0.001364  -0.000767
    13  H   -0.024988   0.421878  -0.032319   0.007891  -0.001768   0.004307
    14  H   -0.006746   0.001364  -0.000766  -0.032550   0.409446  -0.028422
    15  H    0.007891  -0.001768   0.004306  -0.024986   0.421878  -0.032318
    16  H   -0.050638   0.006158  -0.001613   0.006157  -0.050643   0.434065
    17  H    0.409444  -0.032549  -0.000765   0.001363  -0.006744  -0.028426
    18  H    0.421881  -0.024983   0.004305  -0.001768   0.007890  -0.032313
              7          8          9         10         11         12
     1  C    0.002768  -0.037318  -0.001768   0.001363   0.006156  -0.032549
     2  C   -0.037318   0.002768   0.007890  -0.006744  -0.050640   0.409447
     3  C    0.285201   0.000288  -0.032314  -0.028425   0.434069  -0.028419
     4  C   -0.037317   0.002768   0.421880   0.409444  -0.050642  -0.006746
     5  C    0.002768  -0.037318  -0.024985  -0.032550   0.006158   0.001364
     6  C    0.000288   0.285199   0.004306  -0.000766  -0.001613  -0.000767
     7  F    9.131566   0.000000   0.002022   0.002463  -0.033054   0.002462
     8  F    0.000000   9.131571  -0.000123   0.000044   0.000005   0.000044
     9  H    0.002022  -0.000123   0.544997  -0.027841  -0.007736  -0.000306
    10  H    0.002463   0.000044  -0.027841   0.569712   0.007098   0.002740
    11  H   -0.033054   0.000005  -0.007736   0.007098   0.604725   0.007097
    12  H    0.002462   0.000044  -0.000306   0.002740   0.007097   0.569688
    13  H    0.002022  -0.000123  -0.000271  -0.000307  -0.007738  -0.027842
    14  H    0.000044   0.002462  -0.004366   0.005642   0.000792   0.000070
    15  H   -0.000123   0.002022  -0.005191  -0.004368  -0.000181  -0.000154
    16  H    0.000005  -0.033053  -0.000181   0.000793  -0.000218   0.000792
    17  H    0.000044   0.002463  -0.000154   0.000070   0.000793   0.005642
    18  H   -0.000123   0.002022   0.000102  -0.000154  -0.000181  -0.004366
             13         14         15         16         17         18
     1  C   -0.024988  -0.006746   0.007891  -0.050638   0.409444   0.421881
     2  C    0.421878   0.001364  -0.001768   0.006158  -0.032549  -0.024983
     3  C   -0.032319  -0.000766   0.004306  -0.001613  -0.000765   0.004305
     4  C    0.007891  -0.032550  -0.024986   0.006157   0.001363  -0.001768
     5  C   -0.001768   0.409446   0.421878  -0.050643  -0.006744   0.007890
     6  C    0.004307  -0.028422  -0.032318   0.434065  -0.028426  -0.032313
     7  F    0.002022   0.000044  -0.000123   0.000005   0.000044  -0.000123
     8  F   -0.000123   0.002462   0.002022  -0.033053   0.002463   0.002022
     9  H   -0.000271  -0.004366  -0.005191  -0.000181  -0.000154   0.000102
    10  H   -0.000307   0.005642  -0.004368   0.000793   0.000070  -0.000154
    11  H   -0.007738   0.000792  -0.000181  -0.000218   0.000793  -0.000181
    12  H   -0.027842   0.000070  -0.000154   0.000792   0.005642  -0.004366
    13  H    0.545028  -0.000154   0.000102  -0.000181  -0.004368  -0.005190
    14  H   -0.000154   0.569704  -0.027844   0.007097   0.002740  -0.000306
    15  H    0.000102  -0.027844   0.545020  -0.007738  -0.000307  -0.000271
    16  H   -0.000181   0.007097  -0.007738   0.604730   0.007097  -0.007736
    17  H   -0.004368   0.002740  -0.000307   0.007097   0.569707  -0.027839
    18  H   -0.005190  -0.000306  -0.000271  -0.007736  -0.027839   0.544987
 Mulliken atomic charges:
              1
     1  C   -0.232303
     2  C   -0.232292
     3  C    0.251549
     4  C   -0.232300
     5  C   -0.232288
     6  C    0.251547
     7  F   -0.323717
     8  F   -0.323721
     9  H    0.124039
    10  H    0.101788
    11  H    0.085110
    12  H    0.101804
    13  H    0.124022
    14  H    0.101794
    15  H    0.124028
    16  H    0.085106
    17  H    0.101790
    18  H    0.124044
 Sum of Mulliken atomic charges =   0.00000
 Mulliken charges with hydrogens summed into heavy atoms:
              1
     1  C   -0.006469
     2  C   -0.006467
     3  C    0.336659
     4  C   -0.006472
     5  C   -0.006466
     6  C    0.336653
     7  F   -0.323717
     8  F   -0.323721
 Sum of Mulliken charges with hydrogens summed into heavy atoms =   0.00000
 Electronic spatial extent (au):  <R**2>=           1068.8819
 Charge=              0.0000 electrons
 Dipole moment (field-independent basis, Debye):
    X=              0.0000    Y=              0.0000    Z=              0.0000  Tot=              0.0000
 Quadrupole moment (field-independent basis, Debye-Ang):
   XX=            -65.1022   YY=            -45.0472   ZZ=            -45.5486
   XY=             -0.0001   XZ=             -2.2417   YZ=             -0.0002
 Traceless Quadrupole moment (field-independent basis, Debye-Ang):
   XX=            -13.2029   YY=              6.8522   ZZ=              6.3507
   XY=             -0.0001   XZ=             -2.2417   YZ=             -0.0002
 Octapole moment (field-independent basis, Debye-Ang**2):
  XXX=             -0.0005  YYY=             -0.0002  ZZZ=             -0.0002  XYY=              0.0002
  XXY=              0.0000  XXZ=              0.0003  XZZ=             -0.0001  YZZ=              0.0001
  YYZ=             -0.0002  XYZ=              0.0000
 Hexadecapole moment (field-independent basis, Debye-Ang**3):
 XXXX=           -925.5896 YYYY=           -343.6086 ZZZZ=            -97.6233 XXXY=              0.0001
 XXXZ=             -7.3400 YYYX=              0.0021 YYYZ=             -0.0014 ZZZX=              1.1648
 ZZZY=             -0.0007 XXYY=           -179.3262 XXZZ=           -139.5625 YYZZ=            -76.3023
 XXYZ=             -0.0003 YYXZ=             -2.4820 ZZXY=              0.0000
 N-N= 4.054946734199D+02 E-N=-1.829979794993D+03  KE= 4.314628991653D+02
 1\1\GINC-ROCK\SP\RMP2-FC\CC-pVTZ\C6H10F2\STYLIANAKIS\02-Mar-2016\0\\# 
 mp2/cc-pVTZ\\1-4-diF-cyclohexane-dieq_single_point\\0,1\C\C,1,1.539966
 \C,2,1.52512,1,110.7\C,3,1.525166,2,112.215,1,-55.774,0\C,4,1.539949,3
 ,110.699,2,55.774,0\C,5,1.525121,4,110.699,3,-54.913,0\F,3,1.41366,4,1
 08.911,5,176.436,0\F,6,1.413665,5,108.911,4,176.437,0\H,4,1.094505,3,1
 09.903,2,178.156,0\H,4,1.097808,3,108.235,2,-65.243,0\H,3,1.098045,4,1
 10.391,5,-67.824,0\H,2,1.097797,3,108.24,4,65.247,0\H,2,1.094525,3,109
 .902,4,-178.151,0\H,5,1.09781,4,110.319,3,64.867,0\H,5,1.094523,4,110.
 531,3,-176.925,0\H,6,1.098055,5,110.392,4,-67.822,0\H,1,1.097807,2,110
 .318,3,-64.862,0\H,1,1.094499,2,110.533,3,176.924,0\\Version=EM64L-G09
 RevA.01\State=1-A\HF=-432.0747548\MP2=-433.593653\RMSD=7.216e-09\PG=C0
 1 [X(C6H10F2)]\\@


 Discoveries are often made by not following instructions,
 by going off the main road, by trying the untried.
 -- Frank Tyger
 Job cpu time:  0 days  0 hours 51 minutes 20.2 seconds.
 File lengths (MBytes):  RWF=     81 Int=      0 D2E=      0 Chk=      7 Scr=      1
 Normal termination of Gaussian 09 at Wed Mar  2 01:04:48 2016.
