 Entering Gaussian System, Link 0=g09
 Input=BisSiMe3_cycl_dieq_sp.gjf
 Output=BisSiMe3_cycl_dieq_sp.out
 Initial command:
 /usr/local/g09/l1.exe /home/scratch/stylianakis/Gau-11852.inp -scrdir=/home/scratch/stylianakis/
 Entering Link 1 = /usr/local/g09/l1.exe PID=     11853.
  
 Copyright (c) 1988,1990,1992,1993,1995,1998,2003,2009, Gaussian, Inc.
                  All Rights Reserved.
  
 This is part of the Gaussian(R) 09 program.  It is based on
 the Gaussian(R) 03 system (copyright 2003, Gaussian, Inc.),
 the Gaussian(R) 98 system (copyright 1998, Gaussian, Inc.),
 the Gaussian(R) 94 system (copyright 1995, Gaussian, Inc.),
 the Gaussian 92(TM) system (copyright 1992, Gaussian, Inc.),
 the Gaussian 90(TM) system (copyright 1990, Gaussian, Inc.),
 the Gaussian 88(TM) system (copyright 1988, Gaussian, Inc.),
 the Gaussian 86(TM) system (copyright 1986, Carnegie Mellon
 University), and the Gaussian 82(TM) system (copyright 1983,
 Carnegie Mellon University). Gaussian is a federally registered
 trademark of Gaussian, Inc.
  
 This software contains proprietary and confidential information,
 including trade secrets, belonging to Gaussian, Inc.
  
 This software is provided under written license and may be
 used, copied, transmitted, or stored only in accord with that
 written license.
  
 The following legend is applicable only to US Government
 contracts under FAR:
  
                    RESTRICTED RIGHTS LEGEND
  
 Use, reproduction and disclosure by the US Government is
 subject to restrictions as set forth in subparagraphs (a)
 and (c) of the Commercial Computer Software - Restricted
 Rights clause in FAR 52.227-19.
  
 Gaussian, Inc.
 340 Quinnipiac St., Bldg. 40, Wallingford CT 06492
  
  
 ---------------------------------------------------------------
 Warning -- This program may not be used in any manner that
 competes with the business of Gaussian, Inc. or will provide
 assistance to any competitor of Gaussian, Inc.  The licensee
 of this program is prohibited from giving any competitor of
 Gaussian, Inc. access to this program.  By using this program,
 the user acknowledges that Gaussian, Inc. is engaged in the
 business of creating and licensing software in the field of
 computational chemistry and represents and warrants to the
 licensee that it is not a competitor of Gaussian, Inc. and that
 it will not use this program in any manner prohibited above.
 ---------------------------------------------------------------
  

 Cite this work as:
 Gaussian 09, Revision A.01,
 M. J. Frisch, G. W. Trucks, H. B. Schlegel, G. E. Scuseria, 
 M. A. Robb, J. R. Cheeseman, G. Scalmani, V. Barone, B. Mennucci, 
 G. A. Petersson, H. Nakatsuji, M. Caricato, X. Li, H. P. Hratchian, 
 A. F. Izmaylov, J. Bloino, G. Zheng, J. L. Sonnenberg, M. Hada, 
 M. Ehara, K. Toyota, R. Fukuda, J. Hasegawa, M. Ishida, T. Nakajima, 
 Y. Honda, O. Kitao, H. Nakai, T. Vreven, J. A. Montgomery, Jr., 
 J. E. Peralta, F. Ogliaro, M. Bearpark, J. J. Heyd, E. Brothers, 
 K. N. Kudin, V. N. Staroverov, R. Kobayashi, J. Normand, 
 K. Raghavachari, A. Rendell, J. C. Burant, S. S. Iyengar, J. Tomasi, 
 M. Cossi, N. Rega, J. M. Millam, M. Klene, J. E. Knox, J. B. Cross, 
 V. Bakken, C. Adamo, J. Jaramillo, R. Gomperts, R. E. Stratmann, 
 O. Yazyev, A. J. Austin, R. Cammi, C. Pomelli, J. W. Ochterski, 
 R. L. Martin, K. Morokuma, V. G. Zakrzewski, G. A. Voth, 
 P. Salvador, J. J. Dannenberg, S. Dapprich, A. D. Daniels, 
 O. Farkas, J. B. Foresman, J. V. Ortiz, J. Cioslowski, 
 and D. J. Fox, Gaussian, Inc., Wallingford CT, 2009.
 
 ******************************************
 Gaussian 09:  EM64L-G09RevA.01  8-May-2009
                27-Sep-2016 
 ******************************************
 %mem=8000Mb
 %nproc=8
 Will use up to    8 processors via shared memory.
 %RWF=/media/S/Gaussian_scratch/,140GB,/media/TOSHIBA\ EXT/,200GB,/home/scratch/s
 tylianakis/,60GB,
 %NoSave
 -------------
 # mp2/cc-pVTZ
 -------------
 1/38=1/1;
 2/12=2,17=6,18=5,40=1/2;
 3/5=16,6=1,11=9,16=1,25=1,30=1/1,2,3;
 4//1;
 5/5=2,38=5/2;
 8/10=1/1;
 9/16=-3/6;
 6/7=2,8=2,9=2,10=2/1;
 99/5=1,9=1/99;
 ----------------------------------
 BisSiMe3_cycl_dieq_sp_single_point
 ----------------------------------
 Symbolic Z-matrix:
 Charge =  0 Multiplicity = 1
 c
 c                    1    cc2
 c                    2    cc3      1    ccc3
 c                    3    cc4      2    ccc4     1    dih4     0
 c                    4    cc5      3    ccc5     2    dih5     0
 c                    5    cc6      4    ccc6     3    dih6     0
 si                   4    sic7     3    sicc7    2    dih7     0
 c                    7    csi8     4    csic8    3    dih8     0
 si                   5    sic9     4    sicc9    3    dih9     0
 c                    9    csi10    5    csic10   4    dih10    0
 c                    7    csi11    4    csic11   3    dih11    0
 c                    7    csi12    4    csic12   3    dih12    0
 c                    9    csi13    5    csic13   4    dih13    0
 c                    9    csi14    5    csic14   4    dih14    0
 h                    3    hc15     4    hcc15    5    dih15    0
 h                    3    hc16     4    hcc16    5    dih16    0
 h                    4    hc17     3    hcc17    2    dih17    0
 h                    5    hc18     4    hcc18    3    dih18    0
 h                    2    hc19     3    hcc19    4    dih19    0
 h                    2    hc20     3    hcc20    4    dih20    0
 h                    6    hc21     5    hcc21    4    dih21    0
 h                    6    hc22     5    hcc22    4    dih22    0
 h                    1    hc23     2    hcc23    3    dih23    0
 h                    1    hc24     2    hcc24    3    dih24    0
 h                    11   hc25     7    hcsi25   4    dih25    0
 h                    11   hc26     7    hcsi26   4    dih26    0
 h                    11   hc27     7    hcsi27   4    dih27    0
 h                    12   hc28     7    hcsi28   4    dih28    0
 h                    12   hc29     7    hcsi29   4    dih29    0
 h                    12   hc30     7    hcsi30   4    dih30    0
 h                    8    hc31     7    hcsi31   4    dih31    0
 h                    8    hc32     7    hcsi32   4    dih32    0
 h                    8    hc33     7    hcsi33   4    dih33    0
 h                    13   hc34     9    hcsi34   5    dih34    0
 h                    13   hc35     9    hcsi35   5    dih35    0
 h                    13   hc36     9    hcsi36   5    dih36    0
 h                    14   hc37     9    hcsi37   5    dih37    0
 h                    14   hc38     9    hcsi38   5    dih38    0
 h                    14   hc39     9    hcsi39   5    dih39    0
 h                    10   hc40     9    hcsi40   5    dih40    0
 h                    10   hc41     9    hcsi41   5    dih41    0
 h                    10   hc42     9    hcsi42   5    dih42    0
       Variables:
  cc2                   1.52785                  
  cc3                   1.53329                  
  ccc3                110.668                    
  cc4                   1.55748                  
  ccc4                114.106                    
  dih4                 55.936                    
  cc5                   1.57109                  
  ccc5                110.749                    
  dih5                -52.528                    
  cc6                   1.55749                  
  ccc6                110.752                    
  dih6                 49.008                    
  sic7                  1.93208                  
  sicc7               107.31                     
  dih7                176.973                    
  csi8                  1.90185                  
  csic8               109.484                    
  dih8                -34.87                     
  sic9                  1.93208                  
  sicc9               118.321                    
  dih9                173.46                     
  csi10                 1.90185                  
  csic10              109.486                    
  dih10              -161.01                     
  csi11                 1.89772                  
  csic11              110.966                    
  dih11                83.182                    
  csi12                 1.90055                  
  csic12              113.508                    
  dih12              -150.778                    
  csi13                 1.89773                  
  csic13              110.968                    
  dih13               -42.959                    
  csi14                 1.90055                  
  csic14              113.504                    
  dih14                83.084                    
  hc15                  1.09483                  
  hcc15               109.776                    
  dih15              -175.11                     
  hc16                  1.10124                  
  hcc16               109.211                    
  dih16                68.805                    
  hc17                  1.10347                  
  hcc17               106.644                    
  dih17                64.119                    
  hc18                  1.10347                  
  hcc18               107.475                    
  dih18               -67.119                    
  hc19                  1.10025                  
  hcc19               109.342                    
  dih19               -64.622                    
  hc20                  1.09778                  
  hcc20               109.869                    
  dih20               178.71                     
  hc21                  1.09482                  
  hcc21               109.777                    
  dih21              -175.105                    
  hc22                  1.10125                  
  hcc22               109.211                    
  dih22                68.809                    
  hc23                  1.10025                  
  hcc23               109.387                    
  dih23                64.769                    
  hc24                  1.09779                  
  hcc24               110.878                    
  dih24              -177.948                    
  hc25                  1.0966                   
  hcsi25              110.331                    
  dih25              -177.309                    
  hc26                  1.0965                   
  hcsi26              110.563                    
  dih26               -58.747                    
  hc27                  1.09386                  
  hcsi27              113.093                    
  dih27                62.018                    
  hc28                  1.09706                  
  hcsi28              109.123                    
  dih28               177.142                    
  hc29                  1.09155                  
  hcsi29              115.077                    
  dih29               -61.965                    
  hc30                  1.0969                   
  hcsi30              110.074                    
  dih30                59.856                    
  hc31                  1.09682                  
  hcsi31              109.232                    
  dih31              -173.447                    
  hc32                  1.09658                  
  hcsi32              111.93                     
  dih32               -54.788                    
  hc33                  1.0948                   
  hcsi33              112.822                    
  dih33                67.025                    
  hc34                  1.0966                   
  hcsi34              110.33                     
  dih34              -177.312                    
  hc35                  1.0965                   
  hcsi35              110.564                    
  dih35               -58.75                     
  hc36                  1.09384                  
  hcsi36              113.093                    
  dih36                62.015                    
  hc37                  1.09706                  
  hcsi37              109.124                    
  dih37               177.151                    
  hc38                  1.09156                  
  hcsi38              115.078                    
  dih38               -61.955                    
  hc39                  1.0969                   
  hcsi39              110.073                    
  dih39                59.864                    
  hc40                  1.09683                  
  hcsi40              109.232                    
  dih40              -173.446                    
  hc41                  1.09658                  
  hcsi41              111.93                     
  dih41               -54.788                    
  hc42                  1.0948                   
  hcsi42              112.823                    
  dih42                67.025                    
 
                          Input orientation:                          
 ---------------------------------------------------------------------
 Center     Atomic      Atomic             Coordinates (Angstroms)
 Number     Number       Type             X           Y           Z
 ---------------------------------------------------------------------
      1          6           0        0.000000    0.000000    0.000000
      2          6           0        0.000000    0.000000    1.527849
      3          6           0        1.434612    0.000000    2.069028
      4          6           0        2.310845    1.177719    1.548499
      5          6           0        2.273727    1.247907   -0.020579
      6          6           0        0.807138    1.186021   -0.541216
      7         14           0        4.030203    1.043747    2.419576
      8          6           0        3.794687    0.394529    4.191605
      9         14           0        3.130424    2.744639   -0.891665
     10          6           0        2.461698    2.914912   -2.663913
     11          6           0        5.154458   -0.190125    1.516829
     12          6           0        4.896117    2.719854    2.649649
     13          6           0        2.742520    4.368433    0.010662
     14          6           0        5.003335    2.517470   -1.121196
     15          1           0        1.401410    0.018429    3.163197
     16          1           0        1.908645   -0.954503    1.791618
     17          1           0        1.853668    2.105640    1.932682
     18          1           0        2.783672    0.347872   -0.404686
     19          1           0       -0.527245    0.893963    1.893066
     20          1           0       -0.546351   -0.868084    1.919076
     21          1           0        0.803758    1.148127   -1.635375
     22          1           0        0.284667    2.114926   -0.263892
     23          1           0        0.442407   -0.938844   -0.365223
     24          1           0       -1.025050    0.036727   -0.391229
     25          1           0        6.109012   -0.293913    2.046526
     26          1           0        4.689410   -1.182600    1.484575
     27          1           0        5.376216    0.105346    0.487245
     28          1           0        5.836451    2.566905    3.193634
     29          1           0        5.134410    3.248294    1.724743
     30          1           0        4.273643    3.384386    3.261297
     31          1           0        4.755018    0.430730    4.720260
     32          1           0        3.085882    1.007223    4.761420
     33          1           0        3.441037   -0.641168    4.220905
     34          1           0        3.193905    5.215884   -0.519060
     35          1           0        1.660363    4.542328    0.042544
     36          1           0        3.111219    4.385733    1.040349
     37          1           0        5.406125    3.380898   -1.665061
     38          1           0        5.574021    2.417134   -0.196128
     39          1           0        5.202646    1.628967   -1.732773
     40          1           0        3.032038    3.688425   -3.192512
     41          1           0        2.569668    1.984149   -3.233572
     42          1           0        1.406490    3.205165   -2.693576
 ---------------------------------------------------------------------
                    Distance matrix (angstroms):
                    1          2          3          4          5
     1  C    0.000000
     2  C    1.527849   0.000000
     3  C    2.517735   1.533293   0.000000
     4  C    3.020741   2.593733   1.557484   0.000000
     5  C    2.593748   3.020718   2.574460   1.571085   0.000000
     6  C    1.533307   2.517766   2.934918   2.574512   1.557491
     7  Si   4.815215   4.257596   2.819465   1.932076   3.013510
     8  C    5.667879   4.653052   3.198584   3.130685   4.558954
     9  Si   4.257660   4.815251   4.378873   3.013528   1.932079
    10  C    4.653289   5.668116   5.652641   4.559057   3.130727
    11  C    5.376370   5.157975   3.765411   3.155651   3.567935
    12  C    6.195983   5.712093   4.440354   3.205362   4.021651
    13  C    5.157978   5.376475   5.003069   3.568185   3.155698
    14  C    5.712101   6.195842   5.408416   4.021406   3.205294
    15  H    3.459784   2.153753   1.094827   2.185926   3.522638
    16  H    2.786377   2.150250   1.101244   2.183401   2.875404
    17  H    3.406621   2.834377   2.151260   1.103469   2.174255
    18  H    2.834363   3.406543   2.839056   2.174199   1.103469
    19  H    2.158902   1.100246   2.163104   2.872977   3.410683
    20  H    2.175988   1.097783   2.168011   3.533582   4.023993
    21  H    2.153758   3.459799   3.929221   3.522675   2.185940
    22  H    2.150253   2.786446   3.352283   2.875502   2.183411
    23  H    1.100245   2.158906   2.791322   3.410752   2.873046
    24  H    1.097787   2.175991   3.479102   4.024003   3.533592
    25  H    6.449394   6.138032   4.683685   4.103634   4.621638
    26  H    5.058960   4.836423   3.511957   3.351532   3.742776
    27  H    5.399278   5.477011   4.248455   3.416540   3.344961
    28  H    7.131091   6.589992   5.218230   4.131126   4.976336
    29  H    6.315720   6.078844   4.935428   3.505833   3.902717
    30  H    6.352492   5.720396   4.575551   3.414035   4.397149
    31  H    6.713909   5.743450   4.270791   4.073333   5.412959
    32  H    5.762663   4.581828   3.315141   3.309473   4.856443
    33  H    5.483418   4.416376   3.011214   3.424535   4.787629
    34  H    6.138070   6.449521   6.082661   4.621837   4.103664
    35  H    4.836461   5.059217   4.978990   3.743209   3.351628
    36  H    5.476921   5.399259   4.806646   3.345171   3.416565
    37  H    6.590074   7.131012   6.414578   4.976115   4.131088
    38  H    6.078710   6.315406   5.301715   3.902332   3.505689
    39  H    5.720451   6.352379   5.595114   4.396918   3.413998
    40  H    5.743680   6.714130   6.621182   5.413035   4.073368
    41  H    4.582142   5.762913   5.774320   4.856492   3.309525
    42  H    4.416633   5.483769   5.740755   4.787859   3.424599
                    6          7          8          9         10
     6  C    0.000000
     7  Si   4.378890   0.000000
     8  C    5.652566   1.901852   0.000000
     9  Si   2.819533   3.829746   5.639495   0.000000
    10  C    3.198824   5.639443   7.424777   1.901854   0.000000
    11  C    5.002851   1.897720   3.056996   4.302371   5.862662
    12  C    5.408698   1.900546   2.999653   3.957170   5.847938
    13  C    3.765372   4.302851   5.863383   1.897727   3.056948
    14  C    4.440406   3.956755   5.847526   1.900549   2.999642
    15  H    3.929262   2.918014   2.631891   5.183012   6.593104
    16  H    3.352204   2.981333   3.337211   4.730370   5.927056
    17  H    2.839207   2.470220   3.434849   3.164705   4.706730
    18  H    2.151237   3.164575   4.706402   2.470198   3.434744
    19  H    2.791344   4.590205   4.920550   4.955630   5.812406
    20  H    3.479125   4.985022   5.059959   5.871176   6.660571
    21  H    1.094820   5.182998   6.592971   2.918104   2.632144
    22  H    1.101249   4.730482   5.927180   2.981437   3.337595
    23  H    2.163111   4.955608   5.812086   4.590275   4.920665
    24  H    2.168014   5.871141   6.660349   4.985097   5.060282
    25  H    6.082473   2.499990   3.229771   5.170856   6.766660
    26  H    4.978577   2.503079   3.258202   4.847697   6.241975
    27  H    4.806461   2.535004   4.038210   3.729725   5.130094
    28  H    6.414821   2.486303   3.143877   4.903451   6.769115
    29  H    5.302153   2.561658   4.003029   3.333949   5.149255
    30  H    5.595407   2.499270   3.167668   4.354689   6.213828
    31  H    6.621129   2.488834   1.096824   6.283883   8.121359
    32  H    5.774304   2.525334   1.096580   5.914217   7.691843
    33  H    5.740543   2.535911   1.094803   6.139914   7.810603
    34  H    4.683690   5.171238   6.767331   2.499983   3.229705
    35  H    3.511918   4.848349   6.242939   2.503100   3.258148
    36  H    4.248329   3.730371   5.131009   2.535002   4.038162
    37  H    5.218352   4.903029   6.768728   2.486319   3.143961
    38  H    4.935373   3.333387   5.148705   2.561679   4.003036
    39  H    4.575642   4.354205   6.213247   2.499259   3.167566
    40  H    4.271016   6.283803   8.121365   2.488837   1.096826
    41  H    3.315464   5.914017   7.691607   2.525336   1.096580
    42  H    3.011448   6.140026   7.810818   2.535925   1.094802
                   11         12         13         14         15
    11  C    0.000000
    12  C    3.133369   0.000000
    13  C    5.372749   3.784184   0.000000
    14  C    3.783263   3.777794   3.133440   0.000000
    15  H    4.103582   4.446842   5.537110   6.129852   0.000000
    16  H    3.345906   4.812703   5.674575   5.487822   1.756448
    17  H    4.042113   3.185560   3.099105   4.406379   2.464783
    18  H    3.098755   4.406551   4.042167   3.185506   3.840438
    19  H    5.796426   5.772274   5.129011   6.504526   2.469717
    20  H    5.755055   6.559535   6.471462   7.176646   2.475382
    21  H    5.536777   6.130184   4.103487   4.447014   4.965853
    22  H    5.674424   5.488181   3.345850   4.812779   4.169814
    23  H    5.128949   6.504695   5.796464   5.772319   3.779657
    24  H    6.471357   7.176791   5.754978   6.559601   4.303717
    25  H    1.096597   3.304190   6.100449   4.377312   4.848301
    26  H    1.096502   4.077901   6.064385   4.536420   3.882163
    27  H    1.093856   3.426681   5.033627   2.923092   4.792426
    28  H    3.298182   1.097060   4.790535   4.394801   5.115197
    29  H    3.444757   1.091551   3.148639   2.941199   5.141640
    30  H    4.073836   1.096900   3.725496   4.526615   4.425948
    31  H    3.287398   3.089891   6.460338   6.207958   3.720366
    32  H    4.029891   3.266440   5.829694   6.368881   2.523782
    33  H    3.232844   3.985294   6.581047   6.399672   2.390375
    34  H    6.100290   4.378174   1.096598   3.304246   6.617068
    35  H    6.064513   4.537456   1.096503   4.077965   5.501926
    36  H    5.033919   2.924185   1.093844   3.426775   5.148133
    37  H    4.789568   4.394749   3.298191   1.097058   7.117303
    38  H    3.147706   2.941027   3.444957   1.091559   5.869372
    39  H    3.724423   4.526546   4.073875   1.096900   6.404197
    40  H    6.459544   6.208363   3.287332   3.089903   7.518168
    41  H    5.828800   6.369138   4.029856   3.266389   6.793197
    42  H    6.580483   6.400240   3.232811   3.985298   6.667615
                   16         17         18         19         20
    16  H    0.000000
    17  H    3.063885   0.000000
    18  H    2.699186   3.068867   0.000000
    19  H    3.059522   2.671793   4.066946   0.000000
    20  H    2.459821   3.821428   4.238806   1.762342   0.000000
    21  H    4.169665   3.840595   2.464764   3.779691   4.303722
    22  H    4.035321   2.699405   3.063874   2.608145   3.788705
    23  H    2.608076   4.067051   2.671838   3.065824   2.490115
    24  H    3.788657   4.238866   3.821434   2.490113   2.526924
    25  H    4.259629   4.886590   4.180695   6.743479   6.681300
    26  H    2.806949   4.365175   3.089254   5.629607   5.263166
    27  H    3.853403   4.301024   2.752389   6.119567   6.170454
    28  H    5.458353   4.203013   5.214544   6.707223   7.359606
    29  H    5.298446   3.480253   4.298009   6.133967   7.018075
    30  H    5.155495   3.042480   4.987972   5.578780   6.566384
    31  H    4.312500   4.358181   5.491643   6.009153   6.134987
    32  H    3.748863   3.275153   5.216773   4.614647   4.978836
    33  H    2.889263   3.911605   4.775607   4.850023   4.609682
    34  H    6.713032   4.181016   4.886606   6.192278   7.546436
    35  H    5.773738   3.089893   4.365237   4.639033   6.137061
    36  H    5.525279   2.752547   4.301132   5.114490   6.461623
    37  H    6.555661   5.214402   4.202981   7.351870   8.144437
    38  H    5.362281   4.297661   3.480143   6.626480   7.261247
    39  H    5.472302   4.987828   3.042442   6.820454   7.254118
    40  H    6.903647   5.491938   4.358091   6.807394   7.726252
    41  H    5.858768   5.217048   3.275026   6.087839   6.662926
    42  H    6.137749   4.776106   3.911492   5.488011   6.456121
                   21         22         23         24         25
    21  H    0.000000
    22  H    1.756451   0.000000
    23  H    2.469678   3.059519   0.000000
    24  H    2.475409   2.459773   1.762341   0.000000
    25  H    6.616766   6.712937   6.192163   7.546311   0.000000
    26  H    5.501334   5.773437   4.638772   6.136811   1.766585
    27  H    5.147843   5.525078   5.114636   6.461627   1.768546
    28  H    7.117602   6.555995   7.351969   8.144522   3.094257
    29  H    5.869893   5.362760   6.626837   7.261573   3.687902
    30  H    6.404557   5.472697   6.820582   7.254234   4.286506
    31  H    7.518059   6.903790   6.807091   7.726043   3.083385
    32  H    6.793153   5.858974   6.087496   6.662688   4.266488
    33  H    6.667296   6.137762   5.487528   6.455792   3.459277
    34  H    4.848259   4.259662   6.743522   6.681287   6.740767
    35  H    3.881982   2.806906   5.629648   5.263083   6.869909
    36  H    4.792282   3.853181   6.119584   6.170251   5.647853
    37  H    5.115459   5.458506   6.707327   7.359765   5.270120
    38  H    5.141715   5.298414   6.133894   7.017988   3.558861
    39  H    4.426163   5.155607   5.578864   6.566519   4.336134
    40  H    3.720621   4.312860   6.009273   6.135312   7.264593
    41  H    2.524204   3.749310   4.614819   4.979294   6.752478
    42  H    2.390498   2.889718   4.850102   4.610010   7.538291
                   26         27         28         29         30
    26  H    0.000000
    27  H    1.767816   0.000000
    28  H    4.277309   3.687225   0.000000
    29  H    4.459655   3.386442   1.764877   0.000000
    30  H    4.918025   4.434314   1.764999   1.766477   0.000000
    31  H    3.616186   4.290708   2.839599   4.129857   3.329321
    32  H    4.254920   4.932300   3.529333   4.294214   3.051565
    33  H    3.055992   4.271114   4.133403   4.922017   4.221275
    34  H    6.869621   5.647365   5.271075   3.559722   4.337202
    35  H    6.635464   5.804492   5.592081   4.071034   4.304699
    36  H    5.804685   4.874203   3.920671   2.419807   2.699359
    37  H    5.591011   3.919510   4.945168   3.403261   5.054853
    38  H    4.070060   2.418779   3.403202   2.138651   3.818422
    39  H    4.303445   2.698152   5.054791   3.818546   5.374503
    40  H    6.953338   5.645728   7.064375   5.365919   6.579186
    41  H    6.064859   5.025046   7.233287   5.723709   6.859119
    42  H    6.891080   5.956948   7.395347   5.781072   6.611596
                   31         32         33         34         35
    31  H    0.000000
    32  H    1.766367   0.000000
    33  H    1.767730   1.770730   0.000000
    34  H    7.265345   6.753367   7.538793   0.000000
    35  H    6.954362   6.066042   6.891888   1.766587   0.000000
    36  H    5.646757   5.026066   5.957722   1.768543   1.767800
    37  H    7.063976   7.233085   7.394807   3.094254   4.277331
    38  H    5.365392   5.723283   5.780399   3.688121   4.459835
    39  H    6.578584   6.858702   6.610828   4.286504   4.918047
    40  H    8.728871   8.393854   8.594848   3.083291   3.616107
    41  H    8.393587   8.070982   7.951150   4.266422   4.254885
    42  H    8.595062   7.951621   8.169682   3.459243   3.055946
                   36         37         38         39         40
    36  H    0.000000
    37  H    3.687212   0.000000
    38  H    3.386688   1.764878   0.000000
    39  H    4.434415   1.765007   1.766467   0.000000
    40  H    4.290644   2.839713   4.129913   3.329227   0.000000
    41  H    4.932270   3.529393   4.294145   3.051414   1.766360
    42  H    4.271070   4.133497   4.922048   4.221178   1.767734
                   41         42
    41  H    0.000000
    42  H    1.770723   0.000000
 Stoichiometry    C12H28Si2
 Framework group  C1[X(C12H28Si2)]
 Deg. of freedom   120
 Full point group                 C1      NOp   1
 Largest Abelian subgroup         C1      NOp   1
 Largest concise Abelian subgroup C1      NOp   1
                         Standard orientation:                         
 ---------------------------------------------------------------------
 Center     Atomic      Atomic             Coordinates (Angstroms)
 Number     Number       Type             X           Y           Z
 ---------------------------------------------------------------------
      1          6           0        0.667175    3.241638   -0.371860
      2          6           0       -0.667448    3.241576    0.371850
      3          6           0       -1.466691    1.973459    0.049243
      4          6           0       -0.704660    0.648227    0.347278
      5          6           0        0.704625    0.648278   -0.347145
      6          6           0        1.466574    1.973599   -0.049260
      7         14           0       -1.914532   -0.808952   -0.034508
      8          6           0       -3.688202   -0.297255    0.422988
      9         14           0        1.914591   -0.808850    0.034551
     10          6           0        3.688166   -0.297295   -0.423479
     11          6           0       -1.912744   -1.225693   -1.885903
     12          6           0       -1.591378   -2.358150    1.017934
     13          6           0        1.913361   -1.225326    1.886013
     14          6           0        1.591086   -2.358132   -1.017663
     15          1           0       -2.406994    1.994146    0.609642
     16          1           0       -1.742960    2.000804   -1.016434
     17          1           0       -0.536935    0.618408    1.437518
     18          1           0        0.536823    0.618413   -1.437371
     19          1           0       -0.481819    3.289573    1.455261
     20          1           0       -1.258375    4.130430    0.115197
     21          1           0        2.406819    1.994351   -0.609740
     22          1           0        1.742928    2.001040    1.016397
     23          1           0        0.481549    3.289619   -1.455271
     24          1           0        1.258022    4.130551   -0.115209
     25          1           0       -2.637358   -2.020939   -2.098135
     26          1           0       -2.205776   -0.350520   -2.477952
     27          1           0       -0.936705   -1.559838   -2.249519
     28          1           0       -2.346390   -3.117838    0.780507
     29          1           0       -0.610298   -2.815856    0.878399
     30          1           0       -1.698062   -2.118700    2.083050
     31          1           0       -4.352985   -1.163070    0.315980
     32          1           0       -3.761000    0.042747    1.462982
     33          1           0       -4.078953    0.499658   -0.217977
     34          1           0        2.638003   -2.020583    2.098114
     35          1           0        2.206626   -0.350094    2.477861
     36          1           0        0.937428   -1.559361    2.249979
     37          1           0        2.346018   -3.117904   -0.780261
     38          1           0        0.609953   -2.815697   -0.877965
     39          1           0        1.697644   -2.118802   -2.082818
     40          1           0        4.352941   -1.163124   -0.316515
     41          1           0        3.760714    0.042534   -1.463547
     42          1           0        4.079127    0.499707    0.217246
 ---------------------------------------------------------------------
 Rotational constants (GHZ):      0.5755846      0.4595679      0.3123055
 Standard basis: CC-pVTZ (5D, 7F)
 There are   820 symmetry adapted basis functions of A   symmetry.
 Integral buffers will be    131072 words long.
 Raffenetti 1 integral format.
 Two-electron integral symmetry is turned on.
   820 basis functions,  1290 primitive gaussians,   918 cartesian basis functions
    64 alpha electrons       64 beta electrons
       nuclear repulsion energy      1248.0305891991 Hartrees.
 NAtoms=   42 NActive=   42 NUniq=   42 SFac= 7.50D-01 NAtFMM=   80 NAOKFM=F Big=F
 One-electron integrals computed using PRISM.
 NBasis=   820 RedAO= T  NBF=   820
 NBsUse=   820 1.00D-06 NBFU=   820
 Harris functional with IExCor=  205 diagonalized for initial guess.
 ExpMin= 7.89D-02 ExpMax= 2.55D+05 ExpMxC= 2.46D+03 IAcc=2 IRadAn=         0 AccDes= 0.00D+00
 HarFok:  IExCor=  205 AccDes= 0.00D+00 IRadAn=         0 IDoV= 1
 ScaDFX=  1.000000  1.000000  1.000000  1.000000
 FoFCou: FMM=F IPFlag=           0 FMFlag=      100000 FMFlg1=           0
         NFxFlg=           0 DoJE=T BraDBF=F KetDBF=T FulRan=T
         Omega=  0.000000  0.000000  1.000000  0.000000  0.000000 ICntrl=     500 IOpCl=  0
         NMat0=    1 NMatS0=    1 NMatT0=    0 NMatD0=    1 NMtDS0=    0 NMtDT0=    0
         I1Cent=           4 NGrid=           0.
 Petite list used in FoFCou.
 Initial guess orbital symmetries:
       Occupied  (A) (A) (A) (A) (A) (A) (A) (A) (A) (A) (A) (A)
                 (A) (A) (A) (A) (A) (A) (A) (A) (A) (A) (A) (A)
                 (A) (A) (A) (A) (A) (A) (A) (A) (A) (A) (A) (A)
                 (A) (A) (A) (A) (A) (A) (A) (A) (A) (A) (A) (A)
                 (A) (A) (A) (A) (A) (A) (A) (A) (A) (A) (A) (A)
                 (A) (A) (A) (A)
       Virtual   (A) (A) (A) (A) (A) (A) (A) (A) (A) (A) (A) (A)
                 (A) (A) (A) (A) (A) (A) (A) (A) (A) (A) (A) (A)
                 (A) (A) (A) (A) (A) (A) (A) (A) (A) (A) (A) (A)
                 (A) (A) (A) (A) (A) (A) (A) (A) (A) (A) (A) (A)
                 (A) (A) (A) (A) (A) (A) (A) (A) (A) (A) (A) (A)
                 (A) (A) (A) (A) (A) (A) (A) (A) (A) (A) (A) (A)
                 (A) (A) (A) (A) (A) (A) (A) (A) (A) (A) (A) (A)
                 (A) (A) (A) (A) (A) (A) (A) (A) (A) (A) (A) (A)
                 (A) (A) (A) (A) (A) (A) (A) (A) (A) (A) (A) (A)
                 (A) (A) (A) (A) (A) (A) (A) (A) (A) (A) (A) (A)
                 (A) (A) (A) (A) (A) (A) (A) (A) (A) (A) (A) (A)
                 (A) (A) (A) (A) (A) (A) (A) (A) (A) (A) (A) (A)
                 (A) (A) (A) (A) (A) (A) (A) (A) (A) (A) (A) (A)
                 (A) (A) (A) (A) (A) (A) (A) (A) (A) (A) (A) (A)
                 (A) (A) (A) (A) (A) (A) (A) (A) (A) (A) (A) (A)
                 (A) (A) (A) (A) (A) (A) (A) (A) (A) (A) (A) (A)
                 (A) (A) (A) (A) (A) (A) (A) (A) (A) (A) (A) (A)
                 (A) (A) (A) (A) (A) (A) (A) (A) (A) (A) (A) (A)
                 (A) (A) (A) (A) (A) (A) (A) (A) (A) (A) (A) (A)
                 (A) (A) (A) (A) (A) (A) (A) (A) (A) (A) (A) (A)
                 (A) (A) (A) (A) (A) (A) (A) (A) (A) (A) (A) (A)
                 (A) (A) (A) (A) (A) (A) (A) (A) (A) (A) (A) (A)
                 (A) (A) (A) (A) (A) (A) (A) (A) (A) (A) (A) (A)
                 (A) (A) (A) (A) (A) (A) (A) (A) (A) (A) (A) (A)
                 (A) (A) (A) (A) (A) (A) (A) (A) (A) (A) (A) (A)
                 (A) (A) (A) (A) (A) (A) (A) (A) (A) (A) (A) (A)
                 (A) (A) (A) (A) (A) (A) (A) (A) (A) (A) (A) (A)
                 (A) (A) (A) (A) (A) (A) (A) (A) (A) (A) (A) (A)
                 (A) (A) (A) (A) (A) (A) (A) (A) (A) (A) (A) (A)
                 (A) (A) (A) (A) (A) (A) (A) (A) (A) (A) (A) (A)
                 (A) (A) (A) (A) (A) (A) (A) (A) (A) (A) (A) (A)
                 (A) (A) (A) (A) (A) (A) (A) (A) (A) (A) (A) (A)
                 (A) (A) (A) (A) (A) (A) (A) (A) (A) (A) (A) (A)
                 (A) (A) (A) (A) (A) (A) (A) (A) (A) (A) (A) (A)
                 (A) (A) (A) (A) (A) (A) (A) (A) (A) (A) (A) (A)
                 (A) (A) (A) (A) (A) (A) (A) (A) (A) (A) (A) (A)
                 (A) (A) (A) (A) (A) (A) (A) (A) (A) (A) (A) (A)
                 (A) (A) (A) (A) (A) (A) (A) (A) (A) (A) (A) (A)
                 (A) (A) (A) (A) (A) (A) (A) (A) (A) (A) (A) (A)
                 (A) (A) (A) (A) (A) (A) (A) (A) (A) (A) (A) (A)
                 (A) (A) (A) (A) (A) (A) (A) (A) (A) (A) (A) (A)
                 (A) (A) (A) (A) (A) (A) (A) (A) (A) (A) (A) (A)
                 (A) (A) (A) (A) (A) (A) (A) (A) (A) (A) (A) (A)
                 (A) (A) (A) (A) (A) (A) (A) (A) (A) (A) (A) (A)
                 (A) (A) (A) (A) (A) (A) (A) (A) (A) (A) (A) (A)
                 (A) (A) (A) (A) (A) (A) (A) (A) (A) (A) (A) (A)
                 (A) (A) (A) (A) (A) (A) (A) (A) (A) (A) (A) (A)
                 (A) (A) (A) (A) (A) (A) (A) (A) (A) (A) (A) (A)
                 (A) (A) (A) (A) (A) (A) (A) (A) (A) (A) (A) (A)
                 (A) (A) (A) (A) (A) (A) (A) (A) (A) (A) (A) (A)
                 (A) (A) (A) (A) (A) (A) (A) (A) (A) (A) (A) (A)
                 (A) (A) (A) (A) (A) (A) (A) (A) (A) (A) (A) (A)
                 (A) (A) (A) (A) (A) (A) (A) (A) (A) (A) (A) (A)
                 (A) (A) (A) (A) (A) (A) (A) (A) (A) (A) (A) (A)
                 (A) (A) (A) (A) (A) (A) (A) (A) (A) (A) (A) (A)
                 (A) (A) (A) (A) (A) (A) (A) (A) (A) (A) (A) (A)
                 (A) (A) (A) (A) (A) (A) (A) (A) (A) (A) (A) (A)
                 (A) (A) (A) (A) (A) (A) (A) (A) (A) (A) (A) (A)
                 (A) (A) (A) (A) (A) (A) (A) (A) (A) (A) (A) (A)
                 (A) (A) (A) (A) (A) (A) (A) (A) (A) (A) (A) (A)
                 (A) (A) (A) (A) (A) (A) (A) (A) (A) (A) (A) (A)
                 (A) (A) (A) (A) (A) (A) (A) (A) (A) (A) (A) (A)
                 (A) (A) (A) (A) (A) (A) (A) (A) (A) (A) (A) (A)
 The electronic state of the initial guess is 1-A.
 Requested convergence on RMS density matrix=1.00D-08 within 128 cycles.
 Requested convergence on MAX density matrix=1.00D-06.
 Requested convergence on             energy=1.00D-06.
 No special actions if energy rises.
 Integral accuracy reduced to 1.0D-05 until final iterations.
 Initial convergence to 1.0D-05 achieved.  Increase integral accuracy.
 SCF Done:  E(RHF) =  -1048.83962192     A.U. after   11 cycles
             Convg  =    0.8362D-08             -V/T =  2.0008
 ExpMin= 7.89D-02 ExpMax= 2.55D+05 ExpMxC= 2.46D+03 IAcc=3 IRadAn=         5 AccDes= 0.00D+00
 HarFok:  IExCor=  205 AccDes= 0.00D+00 IRadAn=         5 IDoV=-2
 ScaDFX=  1.000000  1.000000  1.000000  1.000000
 Range of M.O.s used for correlation:    23   820
 NBasis=   820 NAE=    64 NBE=    64 NFC=    22 NFV=     0
 NROrb=    798 NOA=    42 NOB=    42 NVA=   756 NVB=   756

 **** Warning!!: The largest alpha MO coefficient is  0.13295218D+02

 Disk-based method using OVN memory for 42 occupieds at a time.
 Estimated scratch disk usage= 31417649296 words.
 Actual    scratch disk usage= 30453313680 words.
 JobTyp=1 Pass  1:  I=   1 to  42 NPSUse=  8 ParTrn=T ParDer=T DoDerP=F.
 Spin components of T(2) and E(2):
     alpha-alpha T2 =       0.9672450731D-01 E2=     -0.2659525781D+00
     alpha-beta  T2 =       0.5923044906D+00 E2=     -0.1840332707D+01
     beta-beta   T2 =       0.9672450731D-01 E2=     -0.2659525781D+00
 ANorm=    0.1336320884D+01
 E2 =    -0.2372237863D+01 EUMP2 =    -0.10512118597843D+04

 **********************************************************************

            Population analysis using the SCF density.

 **********************************************************************

 Orbital symmetries:
       Occupied  (A) (A) (A) (A) (A) (A) (A) (A) (A) (A) (A) (A)
                 (A) (A) (A) (A) (A) (A) (A) (A) (A) (A) (A) (A)
                 (A) (A) (A) (A) (A) (A) (A) (A) (A) (A) (A) (A)
                 (A) (A) (A) (A) (A) (A) (A) (A) (A) (A) (A) (A)
                 (A) (A) (A) (A) (A) (A) (A) (A) (A) (A) (A) (A)
                 (A) (A) (A) (A)
       Virtual   (A) (A) (A) (A) (A) (A) (A) (A) (A) (A) (A) (A)
                 (A) (A) (A) (A) (A) (A) (A) (A) (A) (A) (A) (A)
                 (A) (A) (A) (A) (A) (A) (A) (A) (A) (A) (A) (A)
                 (A) (A) (A) (A) (A) (A) (A) (A) (A) (A) (A) (A)
                 (A) (A) (A) (A) (A) (A) (A) (A) (A) (A) (A) (A)
                 (A) (A) (A) (A) (A) (A) (A) (A) (A) (A) (A) (A)
                 (A) (A) (A) (A) (A) (A) (A) (A) (A) (A) (A) (A)
                 (A) (A) (A) (A) (A) (A) (A) (A) (A) (A) (A) (A)
                 (A) (A) (A) (A) (A) (A) (A) (A) (A) (A) (A) (A)
                 (A) (A) (A) (A) (A) (A) (A) (A) (A) (A) (A) (A)
                 (A) (A) (A) (A) (A) (A) (A) (A) (A) (A) (A) (A)
                 (A) (A) (A) (A) (A) (A) (A) (A) (A) (A) (A) (A)
                 (A) (A) (A) (A) (A) (A) (A) (A) (A) (A) (A) (A)
                 (A) (A) (A) (A) (A) (A) (A) (A) (A) (A) (A) (A)
                 (A) (A) (A) (A) (A) (A) (A) (A) (A) (A) (A) (A)
                 (A) (A) (A) (A) (A) (A) (A) (A) (A) (A) (A) (A)
                 (A) (A) (A) (A) (A) (A) (A) (A) (A) (A) (A) (A)
                 (A) (A) (A) (A) (A) (A) (A) (A) (A) (A) (A) (A)
                 (A) (A) (A) (A) (A) (A) (A) (A) (A) (A) (A) (A)
                 (A) (A) (A) (A) (A) (A) (A) (A) (A) (A) (A) (A)
                 (A) (A) (A) (A) (A) (A) (A) (A) (A) (A) (A) (A)
                 (A) (A) (A) (A) (A) (A) (A) (A) (A) (A) (A) (A)
                 (A) (A) (A) (A) (A) (A) (A) (A) (A) (A) (A) (A)
                 (A) (A) (A) (A) (A) (A) (A) (A) (A) (A) (A) (A)
                 (A) (A) (A) (A) (A) (A) (A) (A) (A) (A) (A) (A)
                 (A) (A) (A) (A) (A) (A) (A) (A) (A) (A) (A) (A)
                 (A) (A) (A) (A) (A) (A) (A) (A) (A) (A) (A) (A)
                 (A) (A) (A) (A) (A) (A) (A) (A) (A) (A) (A) (A)
                 (A) (A) (A) (A) (A) (A) (A) (A) (A) (A) (A) (A)
                 (A) (A) (A) (A) (A) (A) (A) (A) (A) (A) (A) (A)
                 (A) (A) (A) (A) (A) (A) (A) (A) (A) (A) (A) (A)
                 (A) (A) (A) (A) (A) (A) (A) (A) (A) (A) (A) (A)
                 (A) (A) (A) (A) (A) (A) (A) (A) (A) (A) (A) (A)
                 (A) (A) (A) (A) (A) (A) (A) (A) (A) (A) (A) (A)
                 (A) (A) (A) (A) (A) (A) (A) (A) (A) (A) (A) (A)
                 (A) (A) (A) (A) (A) (A) (A) (A) (A) (A) (A) (A)
                 (A) (A) (A) (A) (A) (A) (A) (A) (A) (A) (A) (A)
                 (A) (A) (A) (A) (A) (A) (A) (A) (A) (A) (A) (A)
                 (A) (A) (A) (A) (A) (A) (A) (A) (A) (A) (A) (A)
                 (A) (A) (A) (A) (A) (A) (A) (A) (A) (A) (A) (A)
                 (A) (A) (A) (A) (A) (A) (A) (A) (A) (A) (A) (A)
                 (A) (A) (A) (A) (A) (A) (A) (A) (A) (A) (A) (A)
                 (A) (A) (A) (A) (A) (A) (A) (A) (A) (A) (A) (A)
                 (A) (A) (A) (A) (A) (A) (A) (A) (A) (A) (A) (A)
                 (A) (A) (A) (A) (A) (A) (A) (A) (A) (A) (A) (A)
                 (A) (A) (A) (A) (A) (A) (A) (A) (A) (A) (A) (A)
                 (A) (A) (A) (A) (A) (A) (A) (A) (A) (A) (A) (A)
                 (A) (A) (A) (A) (A) (A) (A) (A) (A) (A) (A) (A)
                 (A) (A) (A) (A) (A) (A) (A) (A) (A) (A) (A) (A)
                 (A) (A) (A) (A) (A) (A) (A) (A) (A) (A) (A) (A)
                 (A) (A) (A) (A) (A) (A) (A) (A) (A) (A) (A) (A)
                 (A) (A) (A) (A) (A) (A) (A) (A) (A) (A) (A) (A)
                 (A) (A) (A) (A) (A) (A) (A) (A) (A) (A) (A) (A)
                 (A) (A) (A) (A) (A) (A) (A) (A) (A) (A) (A) (A)
                 (A) (A) (A) (A) (A) (A) (A) (A) (A) (A) (A) (A)
                 (A) (A) (A) (A) (A) (A) (A) (A) (A) (A) (A) (A)
                 (A) (A) (A) (A) (A) (A) (A) (A) (A) (A) (A) (A)
                 (A) (A) (A) (A) (A) (A) (A) (A) (A) (A) (A) (A)
                 (A) (A) (A) (A) (A) (A) (A) (A) (A) (A) (A) (A)
                 (A) (A) (A) (A) (A) (A) (A) (A) (A) (A) (A) (A)
                 (A) (A) (A) (A) (A) (A) (A) (A) (A) (A) (A) (A)
                 (A) (A) (A) (A) (A) (A) (A) (A) (A) (A) (A) (A)
                 (A) (A) (A) (A) (A) (A) (A) (A) (A) (A) (A) (A)
 The electronic state is 1-A.
 Alpha  occ. eigenvalues --  -68.75135 -68.75135 -11.21595 -11.21594 -11.21239
 Alpha  occ. eigenvalues --  -11.21177 -11.21143 -11.21092 -11.19574 -11.19574
 Alpha  occ. eigenvalues --  -11.19485 -11.19484 -11.19310 -11.19310  -6.09794
 Alpha  occ. eigenvalues --   -6.09793  -4.20431  -4.20431  -4.20417  -4.20417
 Alpha  occ. eigenvalues --   -4.20387  -4.20387  -1.10110  -0.99771  -0.99466
 Alpha  occ. eigenvalues --   -0.95387  -0.95337  -0.92094  -0.91787  -0.91623
 Alpha  occ. eigenvalues --   -0.91185  -0.81941  -0.81802  -0.74504  -0.65138
 Alpha  occ. eigenvalues --   -0.62670  -0.60540  -0.59799  -0.58818  -0.57302
 Alpha  occ. eigenvalues --   -0.56909  -0.56262  -0.55760  -0.55536  -0.55314
 Alpha  occ. eigenvalues --   -0.54614  -0.53619  -0.53093  -0.53065  -0.52424
 Alpha  occ. eigenvalues --   -0.52391  -0.51935  -0.50898  -0.48781  -0.48299
 Alpha  occ. eigenvalues --   -0.47541  -0.46182  -0.44087  -0.42365  -0.42119
 Alpha  occ. eigenvalues --   -0.41863  -0.41501  -0.38899  -0.36616
 Alpha virt. eigenvalues --    0.12517   0.14075   0.14565   0.15175   0.17317
 Alpha virt. eigenvalues --    0.17527   0.17764   0.17961   0.18298   0.19248
 Alpha virt. eigenvalues --    0.19336   0.19911   0.21339   0.22019   0.22044
 Alpha virt. eigenvalues --    0.22397   0.23024   0.23315   0.23998   0.24591
 Alpha virt. eigenvalues --    0.24766   0.25060   0.25485   0.25988   0.26480
 Alpha virt. eigenvalues --    0.26600   0.26809   0.27788   0.27916   0.28375
 Alpha virt. eigenvalues --    0.28778   0.30083   0.30167   0.31883   0.32318
 Alpha virt. eigenvalues --    0.32727   0.33819   0.35377   0.36208   0.37346
 Alpha virt. eigenvalues --    0.37479   0.37936   0.38704   0.39627   0.40557
 Alpha virt. eigenvalues --    0.41231   0.41308   0.41776   0.43306   0.43399
 Alpha virt. eigenvalues --    0.43468   0.44023   0.45298   0.45556   0.48773
 Alpha virt. eigenvalues --    0.49223   0.49231   0.49574   0.50610   0.50644
 Alpha virt. eigenvalues --    0.52085   0.52512   0.52534   0.53000   0.54089
 Alpha virt. eigenvalues --    0.55350   0.55498   0.55885   0.57369   0.57516
 Alpha virt. eigenvalues --    0.57591   0.58110   0.58863   0.59078   0.59397
 Alpha virt. eigenvalues --    0.59612   0.61300   0.61324   0.61690   0.61819
 Alpha virt. eigenvalues --    0.62322   0.62449   0.62761   0.63931   0.64156
 Alpha virt. eigenvalues --    0.64691   0.64995   0.65599   0.65677   0.65937
 Alpha virt. eigenvalues --    0.65939   0.66203   0.66393   0.66981   0.67694
 Alpha virt. eigenvalues --    0.67923   0.67971   0.69025   0.69296   0.69816
 Alpha virt. eigenvalues --    0.70781   0.70930   0.71662   0.72360   0.73056
 Alpha virt. eigenvalues --    0.74038   0.74457   0.74660   0.75217   0.75573
 Alpha virt. eigenvalues --    0.75795   0.75993   0.77880   0.80738   0.80901
 Alpha virt. eigenvalues --    0.81929   0.82160   0.82318   0.83622   0.83710
 Alpha virt. eigenvalues --    0.85337   0.85633   0.86130   0.88309   0.88968
 Alpha virt. eigenvalues --    0.89324   0.90486   0.91439   0.93405   0.94606
 Alpha virt. eigenvalues --    0.94848   0.95775   0.95960   0.97487   0.98277
 Alpha virt. eigenvalues --    0.99987   1.00678   1.00872   1.01676   1.01793
 Alpha virt. eigenvalues --    1.01956   1.02301   1.04382   1.05259   1.05357
 Alpha virt. eigenvalues --    1.06868   1.06872   1.08972   1.10441   1.10751
 Alpha virt. eigenvalues --    1.11649   1.11849   1.13208   1.13456   1.13954
 Alpha virt. eigenvalues --    1.14709   1.14778   1.17157   1.17573   1.17789
 Alpha virt. eigenvalues --    1.19471   1.20093   1.20402   1.20711   1.21531
 Alpha virt. eigenvalues --    1.21538   1.21927   1.22861   1.22950   1.23716
 Alpha virt. eigenvalues --    1.23722   1.24440   1.25068   1.25496   1.26425
 Alpha virt. eigenvalues --    1.26803   1.27164   1.27454   1.29053   1.29473
 Alpha virt. eigenvalues --    1.29929   1.30414   1.30682   1.31997   1.32054
 Alpha virt. eigenvalues --    1.32067   1.33039   1.33919   1.34762   1.34774
 Alpha virt. eigenvalues --    1.35430   1.36333   1.36917   1.37594   1.37947
 Alpha virt. eigenvalues --    1.38295   1.38889   1.39527   1.39715   1.40615
 Alpha virt. eigenvalues --    1.41203   1.41252   1.41882   1.42417   1.42549
 Alpha virt. eigenvalues --    1.43048   1.44139   1.44399   1.45728   1.46371
 Alpha virt. eigenvalues --    1.47824   1.47948   1.48209   1.48834   1.49766
 Alpha virt. eigenvalues --    1.50023   1.50228   1.50636   1.51708   1.51987
 Alpha virt. eigenvalues --    1.52132   1.52340   1.52910   1.53428   1.53872
 Alpha virt. eigenvalues --    1.54712   1.54990   1.55751   1.56192   1.56809
 Alpha virt. eigenvalues --    1.57300   1.58206   1.58801   1.59007   1.59352
 Alpha virt. eigenvalues --    1.60132   1.60361   1.60629   1.61547   1.62256
 Alpha virt. eigenvalues --    1.62415   1.63521   1.64054   1.64305   1.64581
 Alpha virt. eigenvalues --    1.64993   1.65914   1.66408   1.66877   1.67507
 Alpha virt. eigenvalues --    1.68236   1.69795   1.71243   1.71373   1.72127
 Alpha virt. eigenvalues --    1.72405   1.72691   1.73906   1.74370   1.75422
 Alpha virt. eigenvalues --    1.75696   1.78421   1.78802   1.79402   1.79856
 Alpha virt. eigenvalues --    1.81625   1.81910   1.82554   1.82585   1.83118
 Alpha virt. eigenvalues --    1.84022   1.85303   1.86238   1.86670   1.87363
 Alpha virt. eigenvalues --    1.87813   1.87861   1.89582   1.89913   1.90581
 Alpha virt. eigenvalues --    1.91802   1.92565   1.94053   1.95273   1.95285
 Alpha virt. eigenvalues --    1.96222   1.97443   1.97982   1.98934   1.99989
 Alpha virt. eigenvalues --    2.00469   2.01070   2.03241   2.05479   2.06822
 Alpha virt. eigenvalues --    2.07470   2.10043   2.10237   2.12650   2.15314
 Alpha virt. eigenvalues --    2.16070   2.19402   2.19704   2.25451   2.50658
 Alpha virt. eigenvalues --    2.54748   2.57307   2.61516   2.61593   2.63709
 Alpha virt. eigenvalues --    2.65707   2.66944   2.67142   2.67484   2.68580
 Alpha virt. eigenvalues --    2.68745   2.69522   2.71273   2.71767   2.72506
 Alpha virt. eigenvalues --    2.74302   2.75032   2.75772   2.77871   2.78086
 Alpha virt. eigenvalues --    2.79729   2.81068   2.83015   2.83194   2.84223
 Alpha virt. eigenvalues --    2.85983   2.86739   2.87579   2.89189   2.89843
 Alpha virt. eigenvalues --    2.90124   2.90549   2.91841   2.94764   2.95332
 Alpha virt. eigenvalues --    2.96383   2.97267   2.97588   2.98126   2.99637
 Alpha virt. eigenvalues --    3.01628   3.02079   3.02748   3.03088   3.04369
 Alpha virt. eigenvalues --    3.04673   3.05091   3.05966   3.06774   3.07542
 Alpha virt. eigenvalues --    3.08255   3.09605   3.09810   3.10259   3.10796
 Alpha virt. eigenvalues --    3.11739   3.12076   3.12144   3.12512   3.13325
 Alpha virt. eigenvalues --    3.13682   3.14585   3.14958   3.15501   3.15597
 Alpha virt. eigenvalues --    3.16107   3.16443   3.17897   3.18008   3.18480
 Alpha virt. eigenvalues --    3.20589   3.20753   3.21524   3.23025   3.23180
 Alpha virt. eigenvalues --    3.24664   3.24865   3.25247   3.25483   3.26662
 Alpha virt. eigenvalues --    3.28129   3.28474   3.29858   3.29886   3.31000
 Alpha virt. eigenvalues --    3.31002   3.31646   3.32178   3.32914   3.33372
 Alpha virt. eigenvalues --    3.33731   3.34577   3.34997   3.36175   3.36603
 Alpha virt. eigenvalues --    3.37110   3.37363   3.38006   3.38276   3.38815
 Alpha virt. eigenvalues --    3.38892   3.39588   3.40144   3.40854   3.41709
 Alpha virt. eigenvalues --    3.42220   3.42341   3.42501   3.42604   3.44084
 Alpha virt. eigenvalues --    3.45123   3.46542   3.46739   3.47305   3.47365
 Alpha virt. eigenvalues --    3.47699   3.48040   3.48563   3.49050   3.49192
 Alpha virt. eigenvalues --    3.49531   3.49870   3.49983   3.51023   3.51482
 Alpha virt. eigenvalues --    3.52046   3.53565   3.53606   3.54019   3.54554
 Alpha virt. eigenvalues --    3.54924   3.55130   3.55254   3.56115   3.56640
 Alpha virt. eigenvalues --    3.58244   3.58509   3.59352   3.61070   3.62163
 Alpha virt. eigenvalues --    3.62904   3.63840   3.64746   3.65627   3.67151
 Alpha virt. eigenvalues --    3.67227   3.67894   3.68471   3.68489   3.69151
 Alpha virt. eigenvalues --    3.69818   3.70406   3.72103   3.72201   3.72532
 Alpha virt. eigenvalues --    3.73515   3.73582   3.74361   3.75059   3.75185
 Alpha virt. eigenvalues --    3.76944   3.76947   3.77828   3.78163   3.78523
 Alpha virt. eigenvalues --    3.78791   3.79119   3.79190   3.79992   3.80072
 Alpha virt. eigenvalues --    3.80850   3.81117   3.81380   3.81966   3.82052
 Alpha virt. eigenvalues --    3.83290   3.83598   3.84510   3.84543   3.85840
 Alpha virt. eigenvalues --    3.86841   3.86879   3.87624   3.88441   3.88678
 Alpha virt. eigenvalues --    3.88822   3.89502   3.90448   3.90834   3.91413
 Alpha virt. eigenvalues --    3.92162   3.93087   3.93138   3.95762   3.97295
 Alpha virt. eigenvalues --    3.97347   3.99628   3.99867   4.01251   4.01313
 Alpha virt. eigenvalues --    4.02380   4.02762   4.03063   4.03144   4.04810
 Alpha virt. eigenvalues --    4.04984   4.05424   4.07027   4.07851   4.08357
 Alpha virt. eigenvalues --    4.08978   4.09396   4.10642   4.11255   4.11889
 Alpha virt. eigenvalues --    4.11963   4.12373   4.13173   4.14450   4.15624
 Alpha virt. eigenvalues --    4.16416   4.16623   4.17131   4.17146   4.17613
 Alpha virt. eigenvalues --    4.18522   4.19463   4.19607   4.20306   4.20473
 Alpha virt. eigenvalues --    4.21785   4.21915   4.24134   4.24295   4.24931
 Alpha virt. eigenvalues --    4.25766   4.26339   4.26721   4.27465   4.28454
 Alpha virt. eigenvalues --    4.29421   4.30393   4.31155   4.31291   4.32333
 Alpha virt. eigenvalues --    4.33344   4.33459   4.34401   4.34836   4.35715
 Alpha virt. eigenvalues --    4.36564   4.36993   4.37512   4.37548   4.38625
 Alpha virt. eigenvalues --    4.39341   4.39675   4.39753   4.40800   4.42452
 Alpha virt. eigenvalues --    4.42494   4.42714   4.43195   4.43612   4.44239
 Alpha virt. eigenvalues --    4.44270   4.45096   4.45702   4.46153   4.46492
 Alpha virt. eigenvalues --    4.46746   4.47247   4.47427   4.48590   4.49104
 Alpha virt. eigenvalues --    4.49278   4.49550   4.49658   4.50777   4.51573
 Alpha virt. eigenvalues --    4.51952   4.52816   4.53771   4.54088   4.54935
 Alpha virt. eigenvalues --    4.54996   4.57812   4.57856   4.58726   4.59386
 Alpha virt. eigenvalues --    4.59838   4.60170   4.60854   4.61395   4.61587
 Alpha virt. eigenvalues --    4.62664   4.63602   4.63689   4.65004   4.65105
 Alpha virt. eigenvalues --    4.65576   4.65775   4.67904   4.69397   4.70559
 Alpha virt. eigenvalues --    4.70795   4.73502   4.73742   4.78196   4.79632
 Alpha virt. eigenvalues --    4.81355   4.82172   4.85221   4.86652   4.89469
 Alpha virt. eigenvalues --    4.89837   4.93715   4.95089   4.95647   4.96729
 Alpha virt. eigenvalues --    4.96965   4.97729   4.98379   4.99945   5.00373
 Alpha virt. eigenvalues --    5.01259   5.02745   5.03206   5.04648   5.04881
 Alpha virt. eigenvalues --    5.05643   5.05680   5.07173   5.07528   5.07730
 Alpha virt. eigenvalues --    5.07941   5.09026   5.09577   5.09748   5.10979
 Alpha virt. eigenvalues --    5.11212   5.13890   5.16275   5.16442   5.19434
 Alpha virt. eigenvalues --    5.22455   5.23017   5.23412   5.26052   5.26508
 Alpha virt. eigenvalues --    5.26635   5.28472   5.29134   5.29140   5.29909
 Alpha virt. eigenvalues --    5.34153   5.35524   5.36092   5.38481   5.38755
 Alpha virt. eigenvalues --    5.39078   5.39529   5.39615   5.40885   5.40946
 Alpha virt. eigenvalues --    5.41138   5.41585   5.41993   5.44297   5.44785
 Alpha virt. eigenvalues --    5.46179   5.46456   5.47074   5.47390   5.47557
 Alpha virt. eigenvalues --    5.48150   5.48266   5.48975   5.49518   5.51042
 Alpha virt. eigenvalues --    5.51220   5.51994   5.52917   5.53869   5.54742
 Alpha virt. eigenvalues --    5.58195   5.58618   5.59655   5.60279   5.61092
 Alpha virt. eigenvalues --    5.62037   5.62039   5.64009   5.66505   5.67300
 Alpha virt. eigenvalues --    5.68049   5.69198   5.70317   5.70829   5.72311
 Alpha virt. eigenvalues --    5.72591   5.72643   5.74210   5.75485   5.76152
 Alpha virt. eigenvalues --    5.76917   5.78285   5.78465   5.80691   5.81887
 Alpha virt. eigenvalues --    5.82242   5.85044   5.86920   5.87156   5.88771
 Alpha virt. eigenvalues --    5.90656   5.96197   5.97335   6.05501   6.13324
 Alpha virt. eigenvalues --    6.23017   6.23422   6.24804   6.28739   6.28910
 Alpha virt. eigenvalues --    6.29755   6.30907   6.31546   6.34282   6.35588
 Alpha virt. eigenvalues --    6.35887   6.36785   6.38083   6.38956   6.41159
 Alpha virt. eigenvalues --    6.41227   6.45383   6.50420   6.53439  11.64624
 Alpha virt. eigenvalues --   12.55427  12.99792  13.38781  13.41397  13.42674
 Alpha virt. eigenvalues --   13.47181  13.57855  13.60242  13.66283  13.68077
 Alpha virt. eigenvalues --   13.70879
          Condensed to atoms (all electrons):
              1          2          3          4          5          6
     1  C    4.846234   0.356018  -0.044277  -0.003860  -0.031243   0.349330
     2  C    0.356018   4.846229   0.349332  -0.031247  -0.003859  -0.044274
     3  C   -0.044277   0.349332   4.933205   0.325133  -0.040275  -0.004331
     4  C   -0.003860  -0.031247   0.325133   4.980263   0.334492  -0.040273
     5  C   -0.031243  -0.003859  -0.040275   0.334492   4.980258   0.325140
     6  C    0.349330  -0.044274  -0.004331  -0.040273   0.325140   4.933185
     7  Si   0.000100   0.006725  -0.049745   0.437420  -0.051252   0.005837
     8  C   -0.000021   0.000180  -0.004333  -0.015808   0.000446  -0.000030
     9  Si   0.006724   0.000100   0.005838  -0.051258   0.437432  -0.049745
    10  C    0.000180  -0.000021  -0.000030   0.000446  -0.015805  -0.004327
    11  C    0.000022  -0.000093   0.000341  -0.022077   0.000636   0.000037
    12  C    0.000004  -0.000057   0.001275  -0.020744   0.001711  -0.000138
    13  C   -0.000093   0.000022   0.000037   0.000635  -0.022075   0.000341
    14  C   -0.000057   0.000004  -0.000138   0.001710  -0.020748   0.001274
    15  H    0.006698  -0.039716   0.440956  -0.036904   0.006676  -0.000996
    16  H   -0.004078  -0.034546   0.420208  -0.048068   0.000492   0.000492
    17  H   -0.000972  -0.003471  -0.031052   0.387828  -0.027329  -0.001690
    18  H   -0.003471  -0.000972  -0.001693  -0.027330   0.387825  -0.031056
    19  H   -0.040508   0.425172  -0.040983  -0.002908  -0.000209  -0.000959
    20  H   -0.039008   0.439616  -0.039772   0.006844  -0.001026   0.006741
    21  H   -0.039712   0.006697  -0.000996   0.006675  -0.036905   0.440956
    22  H   -0.034548  -0.004078   0.000492   0.000494  -0.048071   0.420207
    23  H    0.425174  -0.040509  -0.000960  -0.000208  -0.002908  -0.040982
    24  H    0.439614  -0.039009   0.006741  -0.001026   0.006844  -0.039771
    25  H    0.000000   0.000006  -0.000160   0.001981  -0.000064   0.000007
    26  H    0.000028   0.000016  -0.000628   0.000316   0.000082  -0.000086
    27  H   -0.000002  -0.000015   0.000306   0.000681  -0.000560   0.000074
    28  H    0.000000   0.000003  -0.000111   0.002083  -0.000159   0.000004
    29  H    0.000000   0.000003  -0.000116   0.000060   0.000048   0.000010
    30  H    0.000002   0.000002   0.000011  -0.000515   0.000302  -0.000006
    31  H    0.000000   0.000008   0.000301   0.002085  -0.000043   0.000003
    32  H    0.000002  -0.000181  -0.001534  -0.000236  -0.000062  -0.000002
    33  H    0.000001   0.000126  -0.001967   0.000185  -0.000086   0.000004
    34  H    0.000006   0.000000   0.000007  -0.000064   0.001981  -0.000160
    35  H    0.000016   0.000028  -0.000086   0.000083   0.000317  -0.000628
    36  H   -0.000015  -0.000002   0.000074  -0.000560   0.000681   0.000306
    37  H    0.000003   0.000000   0.000004  -0.000159   0.002083  -0.000111
    38  H    0.000003   0.000000   0.000010   0.000049   0.000060  -0.000116
    39  H    0.000002   0.000002  -0.000006   0.000302  -0.000515   0.000011
    40  H    0.000008   0.000000   0.000003  -0.000043   0.002085   0.000301
    41  H   -0.000181   0.000002  -0.000002  -0.000062  -0.000236  -0.001532
    42  H    0.000126   0.000001   0.000004  -0.000086   0.000184  -0.001966
              7          8          9         10         11         12
     1  C    0.000100  -0.000021   0.006724   0.000180   0.000022   0.000004
     2  C    0.006725   0.000180   0.000100  -0.000021  -0.000093  -0.000057
     3  C   -0.049745  -0.004333   0.005838  -0.000030   0.000341   0.001275
     4  C    0.437420  -0.015808  -0.051258   0.000446  -0.022077  -0.020744
     5  C   -0.051252   0.000446   0.437432  -0.015805   0.000636   0.001711
     6  C    0.005837  -0.000030  -0.049745  -0.004327   0.000037  -0.000138
     7  Si  12.303644   0.453411   0.006130  -0.000329   0.413527   0.421852
     8  C    0.453411   4.848242  -0.000329   0.000000  -0.019323  -0.018758
     9  Si   0.006130  -0.000329  12.303614   0.453402  -0.000347   0.003694
    10  C   -0.000329   0.000000   0.453402   4.848228   0.000010   0.000017
    11  C    0.413527  -0.019323  -0.000347   0.000010   4.863409  -0.020774
    12  C    0.421852  -0.018758   0.003694   0.000017  -0.020774   4.884364
    13  C   -0.000346   0.000010   0.413535  -0.019323   0.000044  -0.002289
    14  C    0.003702   0.000017   0.421854  -0.018754  -0.002296  -0.005445
    15  H   -0.016037  -0.004368  -0.000507   0.000002   0.000626   0.000229
    16  H   -0.005963  -0.001260  -0.000289   0.000000  -0.000338   0.000088
    17  H   -0.034334   0.001165  -0.010003   0.000167   0.002229  -0.001129
    18  H   -0.010005   0.000167  -0.034332   0.001165  -0.000772   0.000294
    19  H   -0.000364   0.000024  -0.000098   0.000003  -0.000001  -0.000002
    20  H   -0.000538   0.000019   0.000110   0.000000   0.000008   0.000003
    21  H   -0.000507   0.000002  -0.016035  -0.004363   0.000014   0.000006
    22  H   -0.000289   0.000000  -0.005966  -0.001258  -0.000006   0.000007
    23  H   -0.000097   0.000003  -0.000365   0.000024   0.000002   0.000000
    24  H    0.000110   0.000000  -0.000538   0.000019   0.000000   0.000000
    25  H   -0.030847  -0.000398  -0.000057   0.000000   0.401614  -0.000380
    26  H   -0.026638  -0.000282  -0.000055   0.000000   0.397552   0.001706
    27  H   -0.026964   0.001599   0.000154   0.000023   0.403284   0.001099
    28  H   -0.028745  -0.001223  -0.000084   0.000000  -0.000673   0.399913
    29  H   -0.030048   0.001611   0.000446   0.000025   0.001600   0.409822
    30  H   -0.025979  -0.000540  -0.001451  -0.000002   0.001907   0.394264
    31  H   -0.032300   0.401068  -0.000007   0.000000   0.000068  -0.001350
    32  H   -0.025678   0.394936   0.000049   0.000000   0.002109   0.000585
    33  H   -0.029253   0.401970   0.000002   0.000000  -0.000008   0.002091
    34  H   -0.000057   0.000000  -0.030848  -0.000398   0.000000   0.000147
    35  H   -0.000055   0.000000  -0.026639  -0.000282  -0.000001   0.000042
    36  H    0.000153   0.000023  -0.026964   0.001599   0.000029  -0.004329
    37  H   -0.000085   0.000000  -0.028738  -0.001223   0.000100   0.000187
    38  H    0.000446   0.000025  -0.030052   0.001611  -0.002400  -0.004619
    39  H   -0.001453  -0.000002  -0.025980  -0.000541   0.000005   0.000272
    40  H   -0.000007   0.000000  -0.032298   0.401067   0.000000   0.000001
    41  H    0.000049   0.000000  -0.025683   0.394934  -0.000003   0.000000
    42  H    0.000002   0.000000  -0.029256   0.401971   0.000000   0.000000
             13         14         15         16         17         18
     1  C   -0.000093  -0.000057   0.006698  -0.004078  -0.000972  -0.003471
     2  C    0.000022   0.000004  -0.039716  -0.034546  -0.003471  -0.000972
     3  C    0.000037  -0.000138   0.440956   0.420208  -0.031052  -0.001693
     4  C    0.000635   0.001710  -0.036904  -0.048068   0.387828  -0.027330
     5  C   -0.022075  -0.020748   0.006676   0.000492  -0.027329   0.387825
     6  C    0.000341   0.001274  -0.000996   0.000492  -0.001690  -0.031056
     7  Si  -0.000346   0.003702  -0.016037  -0.005963  -0.034334  -0.010005
     8  C    0.000010   0.000017  -0.004368  -0.001260   0.001165   0.000167
     9  Si   0.413535   0.421854  -0.000507  -0.000289  -0.010003  -0.034332
    10  C   -0.019323  -0.018754   0.000002   0.000000   0.000167   0.001165
    11  C    0.000044  -0.002296   0.000626  -0.000338   0.002229  -0.000772
    12  C   -0.002289  -0.005445   0.000229   0.000088  -0.001129   0.000294
    13  C    4.863367  -0.020771   0.000014  -0.000006  -0.000770   0.002229
    14  C   -0.020771   4.884401   0.000006   0.000007   0.000294  -0.001129
    15  H    0.000014   0.000006   0.564486  -0.028788  -0.001925   0.000122
    16  H   -0.000006   0.000007  -0.028788   0.590829   0.007390   0.002747
    17  H   -0.000770   0.000294  -0.001925   0.007390   0.592274   0.007404
    18  H    0.002229  -0.001129   0.000122   0.002747   0.007404   0.592288
    19  H    0.000002   0.000000  -0.005072   0.007284   0.002310   0.000113
    20  H    0.000000   0.000000  -0.005098  -0.004475   0.000063  -0.000128
    21  H    0.000626   0.000229   0.000112  -0.000064   0.000122  -0.001926
    22  H   -0.000339   0.000088  -0.000064   0.000091   0.002747   0.007391
    23  H   -0.000001  -0.000002  -0.000059   0.001861   0.000113   0.002310
    24  H    0.000008   0.000003  -0.000277  -0.000115  -0.000128   0.000063
    25  H    0.000000   0.000148  -0.000025  -0.000078  -0.000118   0.000063
    26  H   -0.000001   0.000043   0.000053   0.000392  -0.000088   0.000283
    27  H    0.000029  -0.004343  -0.000026  -0.000103  -0.000203  -0.001221
    28  H    0.000099   0.000187  -0.000016  -0.000007  -0.000060  -0.000011
    29  H   -0.002394  -0.004618  -0.000010  -0.000001   0.000391   0.000003
    30  H    0.000006   0.000272  -0.000005   0.000000   0.001127  -0.000004
    31  H    0.000000   0.000001   0.000581  -0.000141  -0.000195  -0.000009
    32  H   -0.000003   0.000000  -0.000189   0.000319   0.000586  -0.000004
    33  H    0.000000   0.000000  -0.003503   0.000197   0.000013  -0.000014
    34  H    0.401616  -0.000379  -0.000001   0.000000   0.000063  -0.000118
    35  H    0.397556   0.001706   0.000003   0.000001   0.000283  -0.000088
    36  H    0.403278   0.001099   0.000001  -0.000003  -0.001219  -0.000203
    37  H   -0.000673   0.399910   0.000000   0.000000  -0.000011  -0.000060
    38  H    0.001600   0.409827  -0.000001   0.000002   0.000003   0.000391
    39  H    0.001906   0.394268   0.000000   0.000000  -0.000004   0.001126
    40  H    0.000068  -0.001350   0.000000   0.000000  -0.000009  -0.000195
    41  H    0.002109   0.000585   0.000000  -0.000001  -0.000004   0.000586
    42  H   -0.000008   0.002091   0.000000   0.000000  -0.000014   0.000013
             19         20         21         22         23         24
     1  C   -0.040508  -0.039008  -0.039712  -0.034548   0.425174   0.439614
     2  C    0.425172   0.439616   0.006697  -0.004078  -0.040509  -0.039009
     3  C   -0.040983  -0.039772  -0.000996   0.000492  -0.000960   0.006741
     4  C   -0.002908   0.006844   0.006675   0.000494  -0.000208  -0.001026
     5  C   -0.000209  -0.001026  -0.036905  -0.048071  -0.002908   0.006844
     6  C   -0.000959   0.006741   0.440956   0.420207  -0.040982  -0.039771
     7  Si  -0.000364  -0.000538  -0.000507  -0.000289  -0.000097   0.000110
     8  C    0.000024   0.000019   0.000002   0.000000   0.000003   0.000000
     9  Si  -0.000098   0.000110  -0.016035  -0.005966  -0.000365  -0.000538
    10  C    0.000003   0.000000  -0.004363  -0.001258   0.000024   0.000019
    11  C   -0.000001   0.000008   0.000014  -0.000006   0.000002   0.000000
    12  C   -0.000002   0.000003   0.000006   0.000007   0.000000   0.000000
    13  C    0.000002   0.000000   0.000626  -0.000339  -0.000001   0.000008
    14  C    0.000000   0.000000   0.000229   0.000088  -0.000002   0.000003
    15  H   -0.005072  -0.005098   0.000112  -0.000064  -0.000059  -0.000277
    16  H    0.007284  -0.004475  -0.000064   0.000091   0.001861  -0.000115
    17  H    0.002310   0.000063   0.000122   0.002747   0.000113  -0.000128
    18  H    0.000113  -0.000128  -0.001926   0.007391   0.002310   0.000063
    19  H    0.598021  -0.031808  -0.000059   0.001861   0.006907  -0.004680
    20  H   -0.031808   0.572823  -0.000277  -0.000115  -0.004680  -0.005074
    21  H   -0.000059  -0.000277   0.564474  -0.028788  -0.005073  -0.005097
    22  H    0.001861  -0.000115  -0.028788   0.590840   0.007284  -0.004477
    23  H    0.006907  -0.004680  -0.005073   0.007284   0.598018  -0.031808
    24  H   -0.004680  -0.005074  -0.005097  -0.004477  -0.031808   0.572828
    25  H    0.000000  -0.000001  -0.000001   0.000000   0.000000   0.000000
    26  H   -0.000001   0.000000   0.000003   0.000001   0.000008  -0.000001
    27  H    0.000001   0.000000   0.000001  -0.000003   0.000000   0.000000
    28  H    0.000000   0.000000   0.000000   0.000000   0.000000   0.000000
    29  H    0.000000   0.000000  -0.000001   0.000002   0.000000   0.000000
    30  H   -0.000001   0.000000   0.000000   0.000000   0.000000   0.000000
    31  H    0.000000  -0.000001   0.000000   0.000000   0.000000   0.000000
    32  H    0.000022   0.000008   0.000000  -0.000001   0.000000   0.000000
    33  H   -0.000007   0.000008   0.000000   0.000000  -0.000003   0.000000
    34  H    0.000000   0.000000  -0.000025  -0.000078   0.000000  -0.000001
    35  H    0.000008  -0.000001   0.000053   0.000392  -0.000001   0.000000
    36  H    0.000000   0.000000  -0.000026  -0.000103   0.000001   0.000000
    37  H    0.000000   0.000000  -0.000016  -0.000007   0.000000   0.000000
    38  H    0.000000   0.000000  -0.000010  -0.000001   0.000000   0.000000
    39  H    0.000000   0.000000  -0.000005   0.000000  -0.000001   0.000000
    40  H    0.000000   0.000000   0.000581  -0.000141   0.000000  -0.000001
    41  H    0.000000   0.000000  -0.000188   0.000318   0.000022   0.000008
    42  H   -0.000003   0.000000  -0.003501   0.000198  -0.000007   0.000008
             25         26         27         28         29         30
     1  C    0.000000   0.000028  -0.000002   0.000000   0.000000   0.000002
     2  C    0.000006   0.000016  -0.000015   0.000003   0.000003   0.000002
     3  C   -0.000160  -0.000628   0.000306  -0.000111  -0.000116   0.000011
     4  C    0.001981   0.000316   0.000681   0.002083   0.000060  -0.000515
     5  C   -0.000064   0.000082  -0.000560  -0.000159   0.000048   0.000302
     6  C    0.000007  -0.000086   0.000074   0.000004   0.000010  -0.000006
     7  Si  -0.030847  -0.026638  -0.026964  -0.028745  -0.030048  -0.025979
     8  C   -0.000398  -0.000282   0.001599  -0.001223   0.001611  -0.000540
     9  Si  -0.000057  -0.000055   0.000154  -0.000084   0.000446  -0.001451
    10  C    0.000000   0.000000   0.000023   0.000000   0.000025  -0.000002
    11  C    0.401614   0.397552   0.403284  -0.000673   0.001600   0.001907
    12  C   -0.000380   0.001706   0.001099   0.399913   0.409822   0.394264
    13  C    0.000000  -0.000001   0.000029   0.000099  -0.002394   0.000006
    14  C    0.000148   0.000043  -0.004343   0.000187  -0.004618   0.000272
    15  H   -0.000025   0.000053  -0.000026  -0.000016  -0.000010  -0.000005
    16  H   -0.000078   0.000392  -0.000103  -0.000007  -0.000001   0.000000
    17  H   -0.000118  -0.000088  -0.000203  -0.000060   0.000391   0.001127
    18  H    0.000063   0.000283  -0.001221  -0.000011   0.000003  -0.000004
    19  H    0.000000  -0.000001   0.000001   0.000000   0.000000  -0.000001
    20  H   -0.000001   0.000000   0.000000   0.000000   0.000000   0.000000
    21  H   -0.000001   0.000003   0.000001   0.000000  -0.000001   0.000000
    22  H    0.000000   0.000001  -0.000003   0.000000   0.000002   0.000000
    23  H    0.000000   0.000008   0.000000   0.000000   0.000000   0.000000
    24  H    0.000000  -0.000001   0.000000   0.000000   0.000000   0.000000
    25  H    0.566366  -0.024095  -0.024983   0.000694   0.000213  -0.000094
    26  H   -0.024095   0.570415  -0.026774  -0.000086  -0.000117  -0.000113
    27  H   -0.024983  -0.026774   0.562914   0.000224  -0.000198  -0.000107
    28  H    0.000694  -0.000086   0.000224   0.556915  -0.025136  -0.022601
    29  H    0.000213  -0.000117  -0.000198  -0.025136   0.558587  -0.028316
    30  H   -0.000094  -0.000113  -0.000107  -0.022601  -0.028316   0.572132
    31  H    0.000433   0.000148  -0.000120   0.000652  -0.000045   0.000195
    32  H   -0.000098  -0.000105  -0.000115   0.000215  -0.000154   0.000716
    33  H    0.000253   0.000601  -0.000055  -0.000113  -0.000111  -0.000081
    34  H    0.000000   0.000000  -0.000001  -0.000013   0.000111   0.000034
    35  H    0.000000   0.000000  -0.000002  -0.000004   0.000158   0.000042
    36  H   -0.000001  -0.000002   0.000008   0.000397  -0.001635  -0.000371
    37  H   -0.000013  -0.000004   0.000398  -0.000019   0.000346  -0.000007
    38  H    0.000111   0.000159  -0.001643   0.000346  -0.001330   0.000309
    39  H    0.000034   0.000042  -0.000373  -0.000007   0.000309  -0.000003
    40  H    0.000000   0.000000   0.000000   0.000000  -0.000004   0.000000
    41  H    0.000000   0.000000   0.000007   0.000000   0.000001   0.000000
    42  H    0.000000   0.000000   0.000000   0.000000  -0.000001   0.000000
             31         32         33         34         35         36
     1  C    0.000000   0.000002   0.000001   0.000006   0.000016  -0.000015
     2  C    0.000008  -0.000181   0.000126   0.000000   0.000028  -0.000002
     3  C    0.000301  -0.001534  -0.001967   0.000007  -0.000086   0.000074
     4  C    0.002085  -0.000236   0.000185  -0.000064   0.000083  -0.000560
     5  C   -0.000043  -0.000062  -0.000086   0.001981   0.000317   0.000681
     6  C    0.000003  -0.000002   0.000004  -0.000160  -0.000628   0.000306
     7  Si  -0.032300  -0.025678  -0.029253  -0.000057  -0.000055   0.000153
     8  C    0.401068   0.394936   0.401970   0.000000   0.000000   0.000023
     9  Si  -0.000007   0.000049   0.000002  -0.030848  -0.026639  -0.026964
    10  C    0.000000   0.000000   0.000000  -0.000398  -0.000282   0.001599
    11  C    0.000068   0.002109  -0.000008   0.000000  -0.000001   0.000029
    12  C   -0.001350   0.000585   0.002091   0.000147   0.000042  -0.004329
    13  C    0.000000  -0.000003   0.000000   0.401616   0.397556   0.403278
    14  C    0.000001   0.000000   0.000000  -0.000379   0.001706   0.001099
    15  H    0.000581  -0.000189  -0.003503  -0.000001   0.000003   0.000001
    16  H   -0.000141   0.000319   0.000197   0.000000   0.000001  -0.000003
    17  H   -0.000195   0.000586   0.000013   0.000063   0.000283  -0.001219
    18  H   -0.000009  -0.000004  -0.000014  -0.000118  -0.000088  -0.000203
    19  H    0.000000   0.000022  -0.000007   0.000000   0.000008   0.000000
    20  H   -0.000001   0.000008   0.000008   0.000000  -0.000001   0.000000
    21  H    0.000000   0.000000   0.000000  -0.000025   0.000053  -0.000026
    22  H    0.000000  -0.000001   0.000000  -0.000078   0.000392  -0.000103
    23  H    0.000000   0.000000  -0.000003   0.000000  -0.000001   0.000001
    24  H    0.000000   0.000000   0.000000  -0.000001   0.000000   0.000000
    25  H    0.000433  -0.000098   0.000253   0.000000   0.000000  -0.000001
    26  H    0.000148  -0.000105   0.000601   0.000000   0.000000  -0.000002
    27  H   -0.000120  -0.000115  -0.000055  -0.000001  -0.000002   0.000008
    28  H    0.000652   0.000215  -0.000113  -0.000013  -0.000004   0.000397
    29  H   -0.000045  -0.000154  -0.000111   0.000111   0.000158  -0.001635
    30  H    0.000195   0.000716  -0.000081   0.000034   0.000042  -0.000371
    31  H    0.567482  -0.024176  -0.023960   0.000000   0.000000   0.000000
    32  H   -0.024176   0.574892  -0.026776   0.000000   0.000000   0.000007
    33  H   -0.023960  -0.026776   0.571082   0.000000   0.000000   0.000000
    34  H    0.000000   0.000000   0.000000   0.566377  -0.024098  -0.024983
    35  H    0.000000   0.000000   0.000000  -0.024098   0.570414  -0.026772
    36  H    0.000000   0.000007   0.000000  -0.024983  -0.026772   0.562908
    37  H    0.000000   0.000000   0.000000   0.000694  -0.000086   0.000224
    38  H   -0.000004   0.000001  -0.000001   0.000213  -0.000117  -0.000198
    39  H    0.000000   0.000000   0.000000  -0.000094  -0.000113  -0.000107
    40  H    0.000000   0.000000   0.000000   0.000433   0.000148  -0.000120
    41  H    0.000000   0.000000   0.000000  -0.000098  -0.000105  -0.000115
    42  H    0.000000   0.000000   0.000000   0.000253   0.000601  -0.000055
             37         38         39         40         41         42
     1  C    0.000003   0.000003   0.000002   0.000008  -0.000181   0.000126
     2  C    0.000000   0.000000   0.000002   0.000000   0.000002   0.000001
     3  C    0.000004   0.000010  -0.000006   0.000003  -0.000002   0.000004
     4  C   -0.000159   0.000049   0.000302  -0.000043  -0.000062  -0.000086
     5  C    0.002083   0.000060  -0.000515   0.002085  -0.000236   0.000184
     6  C   -0.000111  -0.000116   0.000011   0.000301  -0.001532  -0.001966
     7  Si  -0.000085   0.000446  -0.001453  -0.000007   0.000049   0.000002
     8  C    0.000000   0.000025  -0.000002   0.000000   0.000000   0.000000
     9  Si  -0.028738  -0.030052  -0.025980  -0.032298  -0.025683  -0.029256
    10  C   -0.001223   0.001611  -0.000541   0.401067   0.394934   0.401971
    11  C    0.000100  -0.002400   0.000005   0.000000  -0.000003   0.000000
    12  C    0.000187  -0.004619   0.000272   0.000001   0.000000   0.000000
    13  C   -0.000673   0.001600   0.001906   0.000068   0.002109  -0.000008
    14  C    0.399910   0.409827   0.394268  -0.001350   0.000585   0.002091
    15  H    0.000000  -0.000001   0.000000   0.000000   0.000000   0.000000
    16  H    0.000000   0.000002   0.000000   0.000000  -0.000001   0.000000
    17  H   -0.000011   0.000003  -0.000004  -0.000009  -0.000004  -0.000014
    18  H   -0.000060   0.000391   0.001126  -0.000195   0.000586   0.000013
    19  H    0.000000   0.000000   0.000000   0.000000   0.000000  -0.000003
    20  H    0.000000   0.000000   0.000000   0.000000   0.000000   0.000000
    21  H   -0.000016  -0.000010  -0.000005   0.000581  -0.000188  -0.003501
    22  H   -0.000007  -0.000001   0.000000  -0.000141   0.000318   0.000198
    23  H    0.000000   0.000000  -0.000001   0.000000   0.000022  -0.000007
    24  H    0.000000   0.000000   0.000000  -0.000001   0.000008   0.000008
    25  H   -0.000013   0.000111   0.000034   0.000000   0.000000   0.000000
    26  H   -0.000004   0.000159   0.000042   0.000000   0.000000   0.000000
    27  H    0.000398  -0.001643  -0.000373   0.000000   0.000007   0.000000
    28  H   -0.000019   0.000346  -0.000007   0.000000   0.000000   0.000000
    29  H    0.000346  -0.001330   0.000309  -0.000004   0.000001  -0.000001
    30  H   -0.000007   0.000309  -0.000003   0.000000   0.000000   0.000000
    31  H    0.000000  -0.000004   0.000000   0.000000   0.000000   0.000000
    32  H    0.000000   0.000001   0.000000   0.000000   0.000000   0.000000
    33  H    0.000000  -0.000001   0.000000   0.000000   0.000000   0.000000
    34  H    0.000694   0.000213  -0.000094   0.000433  -0.000098   0.000253
    35  H   -0.000086  -0.000117  -0.000113   0.000148  -0.000105   0.000601
    36  H    0.000224  -0.000198  -0.000107  -0.000120  -0.000115  -0.000055
    37  H    0.556901  -0.025137  -0.022601   0.000652   0.000215  -0.000113
    38  H   -0.025137   0.558601  -0.028318  -0.000045  -0.000154  -0.000111
    39  H   -0.022601  -0.028318   0.572137   0.000195   0.000716  -0.000081
    40  H    0.000652  -0.000045   0.000195   0.567484  -0.024176  -0.023961
    41  H    0.000215  -0.000154   0.000716  -0.024176   0.574892  -0.026777
    42  H   -0.000113  -0.000111  -0.000081  -0.023961  -0.026777   0.571083
 Mulliken atomic charges:
              1
     1  C   -0.188247
     2  C   -0.188243
     3  C   -0.221083
     4  C   -0.186330
     5  C   -0.186343
     6  C   -0.221082
     7  Si   0.374810
     8  C   -0.438246
     9  Si   0.374840
    10  C   -0.438238
    11  C   -0.420061
    12  C   -0.443661
    13  C   -0.420043
    14  C   -0.443695
    15  H    0.123022
    16  H    0.095927
    17  H    0.108157
    18  H    0.108156
    19  H    0.085932
    20  H    0.105760
    21  H    0.123025
    22  H    0.095920
    23  H    0.085935
    24  H    0.105756
    25  H    0.109487
    26  H    0.107225
    27  H    0.117010
    28  H    0.117335
    29  H    0.120487
    30  H    0.108876
    31  H    0.109328
    32  H    0.104867
    33  H    0.109405
    34  H    0.109480
    35  H    0.107226
    36  H    0.116996
    37  H    0.117346
    38  H    0.120490
    39  H    0.108876
    40  H    0.109327
    41  H    0.104870
    42  H    0.109404
 Sum of Mulliken atomic charges =   0.00000
 Mulliken charges with hydrogens summed into heavy atoms:
              1
     1  C    0.003443
     2  C    0.003449
     3  C   -0.002134
     4  C   -0.078173
     5  C   -0.078187
     6  C   -0.002137
     7  Si   0.374810
     8  C   -0.114646
     9  Si   0.374840
    10  C   -0.114638
    11  C   -0.086339
    12  C   -0.096963
    13  C   -0.086341
    14  C   -0.096984
 Sum of Mulliken charges with hydrogens summed into heavy atoms =   0.00000
 Electronic spatial extent (au):  <R**2>=           4087.2217
 Charge=              0.0000 electrons
 Dipole moment (field-independent basis, Debye):
    X=              0.0000    Y=              0.1653    Z=              0.0001  Tot=              0.1653
 Quadrupole moment (field-independent basis, Debye-Ang):
   XX=           -111.2551   YY=           -110.0004   ZZ=           -109.5799
   XY=             -0.0002   XZ=              0.1334   YZ=              0.0000
 Traceless Quadrupole moment (field-independent basis, Debye-Ang):
   XX=             -0.9767   YY=              0.2781   ZZ=              0.6986
   XY=             -0.0002   XZ=              0.1334   YZ=              0.0000
 Octapole moment (field-independent basis, Debye-Ang**2):
  XXX=              0.0008  YYY=              2.6995  ZZZ=             -0.0008  XYY=              0.0012
  XXY=             -4.0769  XXZ=              0.0020  XZZ=             -0.0022  YZZ=              7.9443
  YYZ=             -0.0003  XYZ=              0.6590
 Hexadecapole moment (field-independent basis, Debye-Ang**3):
 XXXX=          -3006.6852 YYYY=          -2263.5440 ZZZZ=           -745.0571 XXXY=              0.0032
 XXXZ=             26.9778 YYYX=             -0.0035 YYYZ=              0.0030 ZZZX=            -21.9300
 ZZZY=              0.0004 XXYY=           -824.0588 XXZZ=           -606.0682 YYZZ=           -509.9776
 XXYZ=              0.0034 YYXZ=             14.2265 ZZXY=             -0.0014
 N-N= 1.248030589199D+03 E-N=-4.970002676454D+03  KE= 1.047987356556D+03
 1\1\GINC-ROCK\SP\RMP2-FC\CC-pVTZ\C12H28Si2\STYLIANAKIS\27-Sep-2016\0\\
 # mp2/cc-pVTZ\\BisSiMe3_cycl_dieq_sp_single_point\\0,1\C\C,1,1.527849\
 C,2,1.533293,1,110.668\C,3,1.557484,2,114.106,1,55.936,0\C,4,1.571085,
 3,110.749,2,-52.528,0\C,5,1.557491,4,110.752,3,49.008,0\Si,4,1.932076,
 3,107.31,2,176.973,0\C,7,1.901852,4,109.484,3,-34.87,0\Si,5,1.932079,4
 ,118.321,3,173.46,0\C,9,1.901854,5,109.486,4,-161.01,0\C,7,1.89772,4,1
 10.966,3,83.182,0\C,7,1.900546,4,113.508,3,-150.778,0\C,9,1.897727,5,1
 10.968,4,-42.959,0\C,9,1.900549,5,113.504,4,83.084,0\H,3,1.094827,4,10
 9.776,5,-175.11,0\H,3,1.101244,4,109.211,5,68.805,0\H,4,1.103469,3,106
 .644,2,64.119,0\H,5,1.103469,4,107.475,3,-67.119,0\H,2,1.100246,3,109.
 342,4,-64.622,0\H,2,1.097783,3,109.869,4,178.71,0\H,6,1.09482,5,109.77
 7,4,-175.105,0\H,6,1.101249,5,109.211,4,68.809,0\H,1,1.100245,2,109.38
 7,3,64.769,0\H,1,1.097787,2,110.878,3,-177.948,0\H,11,1.096597,7,110.3
 31,4,-177.309,0\H,11,1.096502,7,110.563,4,-58.747,0\H,11,1.093856,7,11
 3.093,4,62.018,0\H,12,1.09706,7,109.123,4,177.142,0\H,12,1.091551,7,11
 5.077,4,-61.965,0\H,12,1.0969,7,110.074,4,59.856,0\H,8,1.096824,7,109.
 232,4,-173.447,0\H,8,1.09658,7,111.93,4,-54.788,0\H,8,1.094803,7,112.8
 22,4,67.025,0\H,13,1.096598,9,110.33,5,-177.312,0\H,13,1.096503,9,110.
 564,5,-58.75,0\H,13,1.093844,9,113.093,5,62.015,0\H,14,1.097058,9,109.
 124,5,177.151,0\H,14,1.091559,9,115.078,5,-61.955,0\H,14,1.0969,9,110.
 073,5,59.864,0\H,10,1.096826,9,109.232,5,-173.446,0\H,10,1.09658,9,111
 .93,5,-54.788,0\H,10,1.094802,9,112.823,5,67.025,0\\Version=EM64L-G09R
 evA.01\State=1-A\HF=-1048.8396219\MP2=-1051.2118598\RMSD=8.362e-09\PG=
 C01 [X(C12H28Si2)]\\@


 TWO ROADS DIVERGED IN A WOOD, AND I--
 I TOOK THE ONE LESS TRAVELED BY,
 AND THAT HAS MADE ALL THE DIFFERENCE.

                       -- ROBERT FROST
 Job cpu time:  1 days 21 hours 31 minutes 10.1 seconds.
 File lengths (MBytes):  RWF= 232701 Int=      0 D2E=      0 Chk=     29 Scr=      1
 Normal termination of Gaussian 09 at Tue Sep 27 12:42:49 2016.
