 Entering Gaussian System, Link 0=g09
 Input=BisSiMe3_cycl_diaxial_sp.gjf
 Output=BisSiMe3_cycl_diaxial_sp.out
 Initial command:
 /usr/local/g09/l1.exe /home/scratch/stylianakis/Gau-9247.inp -scrdir=/home/scratch/stylianakis/
 Entering Link 1 = /usr/local/g09/l1.exe PID=      9248.
  
 Copyright (c) 1988,1990,1992,1993,1995,1998,2003,2009, Gaussian, Inc.
                  All Rights Reserved.
  
 This is part of the Gaussian(R) 09 program.  It is based on
 the Gaussian(R) 03 system (copyright 2003, Gaussian, Inc.),
 the Gaussian(R) 98 system (copyright 1998, Gaussian, Inc.),
 the Gaussian(R) 94 system (copyright 1995, Gaussian, Inc.),
 the Gaussian 92(TM) system (copyright 1992, Gaussian, Inc.),
 the Gaussian 90(TM) system (copyright 1990, Gaussian, Inc.),
 the Gaussian 88(TM) system (copyright 1988, Gaussian, Inc.),
 the Gaussian 86(TM) system (copyright 1986, Carnegie Mellon
 University), and the Gaussian 82(TM) system (copyright 1983,
 Carnegie Mellon University). Gaussian is a federally registered
 trademark of Gaussian, Inc.
  
 This software contains proprietary and confidential information,
 including trade secrets, belonging to Gaussian, Inc.
  
 This software is provided under written license and may be
 used, copied, transmitted, or stored only in accord with that
 written license.
  
 The following legend is applicable only to US Government
 contracts under FAR:
  
                    RESTRICTED RIGHTS LEGEND
  
 Use, reproduction and disclosure by the US Government is
 subject to restrictions as set forth in subparagraphs (a)
 and (c) of the Commercial Computer Software - Restricted
 Rights clause in FAR 52.227-19.
  
 Gaussian, Inc.
 340 Quinnipiac St., Bldg. 40, Wallingford CT 06492
  
  
 ---------------------------------------------------------------
 Warning -- This program may not be used in any manner that
 competes with the business of Gaussian, Inc. or will provide
 assistance to any competitor of Gaussian, Inc.  The licensee
 of this program is prohibited from giving any competitor of
 Gaussian, Inc. access to this program.  By using this program,
 the user acknowledges that Gaussian, Inc. is engaged in the
 business of creating and licensing software in the field of
 computational chemistry and represents and warrants to the
 licensee that it is not a competitor of Gaussian, Inc. and that
 it will not use this program in any manner prohibited above.
 ---------------------------------------------------------------
  

 Cite this work as:
 Gaussian 09, Revision A.01,
 M. J. Frisch, G. W. Trucks, H. B. Schlegel, G. E. Scuseria, 
 M. A. Robb, J. R. Cheeseman, G. Scalmani, V. Barone, B. Mennucci, 
 G. A. Petersson, H. Nakatsuji, M. Caricato, X. Li, H. P. Hratchian, 
 A. F. Izmaylov, J. Bloino, G. Zheng, J. L. Sonnenberg, M. Hada, 
 M. Ehara, K. Toyota, R. Fukuda, J. Hasegawa, M. Ishida, T. Nakajima, 
 Y. Honda, O. Kitao, H. Nakai, T. Vreven, J. A. Montgomery, Jr., 
 J. E. Peralta, F. Ogliaro, M. Bearpark, J. J. Heyd, E. Brothers, 
 K. N. Kudin, V. N. Staroverov, R. Kobayashi, J. Normand, 
 K. Raghavachari, A. Rendell, J. C. Burant, S. S. Iyengar, J. Tomasi, 
 M. Cossi, N. Rega, J. M. Millam, M. Klene, J. E. Knox, J. B. Cross, 
 V. Bakken, C. Adamo, J. Jaramillo, R. Gomperts, R. E. Stratmann, 
 O. Yazyev, A. J. Austin, R. Cammi, C. Pomelli, J. W. Ochterski, 
 R. L. Martin, K. Morokuma, V. G. Zakrzewski, G. A. Voth, 
 P. Salvador, J. J. Dannenberg, S. Dapprich, A. D. Daniels, 
 O. Farkas, J. B. Foresman, J. V. Ortiz, J. Cioslowski, 
 and D. J. Fox, Gaussian, Inc., Wallingford CT, 2009.
 
 ******************************************
 Gaussian 09:  EM64L-G09RevA.01  8-May-2009
                26-Sep-2016 
 ******************************************
 %mem=8000Mb
 %nproc=8
 Will use up to    8 processors via shared memory.
 %RWF=/media/S/Gaussian_scratch/,140GB,/media/TOSHIBA\ EXT/,200GB,/home/scratch/s
 tylianakis/,60GB,
 %NoSave
 -------------
 # mp2/cc-pVTZ
 -------------
 1/38=1/1;
 2/12=2,17=6,18=5,40=1/2;
 3/5=16,6=1,11=9,16=1,25=1,30=1/1,2,3;
 4//1;
 5/5=2,38=5/2;
 8/10=1/1;
 9/16=-3/6;
 6/7=2,8=2,9=2,10=2/1;
 99/5=1,9=1/99;
 -------------------------------------
 BisSiMe3_cycl_diaxial_sp_single_point
 -------------------------------------
 Symbolic Z-matrix:
 Charge =  0 Multiplicity = 1
 c
 c                    1    cc2
 c                    2    cc3      1    ccc3
 c                    3    cc4      2    ccc4     1    dih4     0
 c                    4    cc5      3    ccc5     2    dih5     0
 c                    5    cc6      4    ccc6     3    dih6     0
 si                   4    sic7     3    sicc7    2    dih7     0
 c                    7    csi8     4    csic8    3    dih8     0
 si                   5    sic9     4    sicc9    3    dih9     0
 c                    9    csi10    5    csic10   4    dih10    0
 c                    7    csi11    4    csic11   3    dih11    0
 c                    7    csi12    4    csic12   3    dih12    0
 c                    9    csi13    5    csic13   4    dih13    0
 c                    9    csi14    5    csic14   4    dih14    0
 h                    3    hc15     4    hcc15    5    dih15    0
 h                    3    hc16     4    hcc16    5    dih16    0
 h                    4    hc17     3    hcc17    2    dih17    0
 h                    5    hc18     4    hcc18    3    dih18    0
 h                    2    hc19     3    hcc19    4    dih19    0
 h                    2    hc20     3    hcc20    4    dih20    0
 h                    6    hc21     5    hcc21    4    dih21    0
 h                    6    hc22     5    hcc22    4    dih22    0
 h                    1    hc23     2    hcc23    3    dih23    0
 h                    1    hc24     2    hcc24    3    dih24    0
 h                    11   hc25     7    hcsi25   4    dih25    0
 h                    11   hc26     7    hcsi26   4    dih26    0
 h                    11   hc27     7    hcsi27   4    dih27    0
 h                    12   hc28     7    hcsi28   4    dih28    0
 h                    12   hc29     7    hcsi29   4    dih29    0
 h                    12   hc30     7    hcsi30   4    dih30    0
 h                    8    hc31     7    hcsi31   4    dih31    0
 h                    8    hc32     7    hcsi32   4    dih32    0
 h                    8    hc33     7    hcsi33   4    dih33    0
 h                    13   hc34     9    hcsi34   5    dih34    0
 h                    13   hc35     9    hcsi35   5    dih35    0
 h                    13   hc36     9    hcsi36   5    dih36    0
 h                    14   hc37     9    hcsi37   5    dih37    0
 h                    14   hc38     9    hcsi38   5    dih38    0
 h                    14   hc39     9    hcsi39   5    dih39    0
 h                    10   hc40     9    hcsi40   5    dih40    0
 h                    10   hc41     9    hcsi41   5    dih41    0
 h                    10   hc42     9    hcsi42   5    dih42    0
       Variables:
  cc2                   1.53507                  
  cc3                   1.53598                  
  ccc3                110.944                    
  cc4                   1.55104                  
  ccc4                113.685                    
  dih4                 55.174                    
  cc5                   1.5671                   
  ccc5                111.777                    
  dih5                -50.993                    
  cc6                   1.55103                  
  ccc6                111.775                    
  dih6                 47.75                     
  sic7                  1.92469                  
  sicc7               115.26                     
  dih7                 81.819                    
  csi8                  1.89906                  
  csic8               107.517                    
  dih8                162.291                    
  sic9                  1.9247                   
  sicc9               114.357                    
  dih9                -85.505                    
  csi10                 1.89906                  
  csic10              107.517                    
  dih10               -66.108                    
  csi11                 1.89925                  
  csic11              115.801                    
  dih11               -77.469                    
  csi12                 1.89876                  
  csic12              109.202                    
  dih12                45.04                     
  csi13                 1.89925                  
  csic13              115.802                    
  dih13                54.131                    
  csi14                 1.89876                  
  csic14              109.202                    
  dih14               176.64                     
  hc15                  1.09673                  
  hcc15               110.099                    
  dih15              -174.994                    
  hc16                  1.09854                  
  hcc16               109.196                    
  dih16                69.332                    
  hc17                  1.10357                  
  hcc17               106.118                    
  dih17              -168.42                     
  hc18                  1.10357                  
  hcc18               107.937                    
  dih18               164.082                    
  hc19                  1.09889                  
  hcc19               110.137                    
  dih19               -65.782                    
  hc20                  1.09737                  
  hcc20               109.712                    
  dih20               177.407                    
  hc21                  1.09673                  
  hcc21               110.101                    
  dih21              -175.007                    
  hc22                  1.09854                  
  hcc22               109.195                    
  dih22                69.317                    
  hc23                  1.09889                  
  hcc23               109.146                    
  dih23                65.551                    
  hc24                  1.09738                  
  hcc24               110.388                    
  dih24              -177.826                    
  hc25                  1.09722                  
  hcsi25              109.417                    
  dih25              -179.972                    
  hc26                  1.09545                  
  hcsi26              111.989                    
  dih26               -61.104                    
  hc27                  1.09508                  
  hcsi27              112.567                    
  dih27                60.551                    
  hc28                  1.09662                  
  hcsi28              110.346                    
  dih28               170.827                    
  hc29                  1.09575                  
  hcsi29              112.012                    
  dih29               -69.518                    
  hc30                  1.09652                  
  hcsi30              111.67                     
  dih30                51.334                    
  hc31                  1.09649                  
  hcsi31              110.54                     
  dih31              -178.082                    
  hc32                  1.0963                   
  hcsi32              111.529                    
  dih32               -58.442                    
  hc33                  1.09609                  
  hcsi33              112.035                    
  dih33                62.229                    
  hc34                  1.09722                  
  hcsi34              109.417                    
  dih34              -179.968                    
  hc35                  1.09545                  
  hcsi35              111.989                    
  dih35               -61.1                      
  hc36                  1.09508                  
  hcsi36              112.568                    
  dih36                60.556                    
  hc37                  1.09662                  
  hcsi37              110.347                    
  dih37               170.828                    
  hc38                  1.09575                  
  hcsi38              112.011                    
  dih38               -69.516                    
  hc39                  1.09652                  
  hcsi39              111.67                     
  dih39                51.335                    
  hc40                  1.09649                  
  hcsi40              110.54                     
  dih40              -178.079                    
  hc41                  1.0963                   
  hcsi41              111.53                     
  dih41               -58.439                    
  hc42                  1.09609                  
  hcsi42              112.035                    
  dih42                62.232                    
 
                          Input orientation:                          
 ---------------------------------------------------------------------
 Center     Atomic      Atomic             Coordinates (Angstroms)
 Number     Number       Type             X           Y           Z
 ---------------------------------------------------------------------
      1          6           0        0.000000    0.000000    0.000000
      2          6           0        0.000000    0.000000    1.535069
      3          6           0        1.434495    0.000000    2.084112
      4          6           0        2.306352    1.165988    1.549256
      5          6           0        2.256701    1.259282   -0.014276
      6          6           0        0.802443    1.189036   -0.548975
      7         14           0        2.070924    2.849037    2.452784
      8          6           0        3.571475    3.936025    2.036594
      9         14           0        3.519796    0.122336   -0.917823
     10          6           0        5.260361    0.757726   -0.501741
     11          6           0        0.509932    3.825763    1.987551
     12          6           0        2.052045    2.553688    4.328337
     13          6           0        3.455861   -1.717918   -0.452517
     14          6           0        3.264342    0.271864   -2.793369
     15          1           0        1.417458    0.014376    3.180613
     16          1           0        1.899279   -0.955678    1.805820
     17          1           0        3.344125    0.932273    1.842960
     18          1           0        2.643667    2.250139   -0.308084
     19          1           0       -0.543015    0.884762    1.895471
     20          1           0       -0.542639   -0.873858    1.917358
     21          1           0        0.804664    1.167059   -1.645481
     22          1           0        0.270376    2.108873   -0.270423
     23          1           0        0.429653   -0.945016   -0.360409
     24          1           0       -1.027890    0.039020   -0.382299
     25          1           0        0.480970    4.761396    2.559949
     26          1           0        0.494520    4.092702    0.925237
     27          1           0       -0.411101    3.275923    2.207927
     28          1           0        2.082889    3.509440    4.865154
     29          1           0        1.148756    2.024342    4.651658
     30          1           0        2.917551    1.964548    4.654189
     31          1           0        3.504492    4.899439    2.555856
     32          1           0        4.510419    3.459725    2.342199
     33          1           0        3.641224    4.147237    0.963309
     34          1           0        4.215113   -2.265473   -1.024888
     35          1           0        3.668470   -1.880014    0.609806
     36          1           0        2.484809   -2.173642   -0.672890
     37          1           0        4.073665   -0.237419   -3.330225
     38          1           0        2.320136   -0.180553   -3.116590
     39          1           0        3.260380    1.318827   -3.119274
     40          1           0        6.021309    0.163121   -1.021060
     41          1           0        5.391009    1.802432   -0.807338
     42          1           0        5.474510    0.697334    0.571529
 ---------------------------------------------------------------------
                    Distance matrix (angstroms):
                    1          2          3          4          5
     1  C    0.000000
     2  C    1.535069   0.000000
     3  C    2.530079   1.535977   0.000000
     4  C    3.013135   2.584374   1.551043   0.000000
     5  C    2.584317   3.013131   2.581675   1.567100   0.000000
     6  C    1.535934   2.530011   2.957438   2.581637   1.551033
     7  Si   4.292072   3.639772   2.942443   1.924692   2.940785
     8  C    5.691699   5.338469   4.478977   3.084013   3.619344
     9  Si   3.639551   4.291924   3.657193   2.940772   1.924696
    10  C    5.338285   5.691585   4.679533   3.619314   3.084016
    11  C    4.341296   3.886030   3.937080   3.239387   3.693959
    12  C    5.428325   4.305178   3.455320   3.116677   4.536040
    13  C    3.885742   4.341050   3.670375   3.693966   3.239408
    14  C    4.304968   5.428187   5.216519   4.536033   3.116680
    15  H    3.482196   2.171913   1.096727   2.185788   3.530076
    16  H    2.789546   2.143336   1.098540   2.175546   2.889039
    17  H    3.930497   3.485269   2.138685   1.103566   2.176868
    18  H    3.485257   3.930561   3.499689   2.176896   1.103568
    19  H    2.161130   1.098890   2.174612   2.884068   3.409664
    20  H    2.175855   1.097374   2.168063   3.523241   4.014698
    21  H    2.171893   3.482156   3.958356   3.530073   2.185806
    22  H    2.143263   2.789310   3.368435   2.888851   2.175523
    23  H    1.098886   2.161132   2.806857   3.409569   2.883893
    24  H    1.097376   2.175864   3.485405   4.014740   3.523212
    25  H    5.427298   4.894140   4.879193   4.156979   4.695173
    26  H    4.225024   4.167332   4.356232   3.498255   3.466444
    27  H    3.971853   3.369483   3.762078   3.502888   4.015245
    28  H    6.350144   5.267264   4.524465   4.066557   5.376083
    29  H    5.201492   3.889823   3.282057   3.420774   4.856315
    30  H    5.833783   4.701113   3.558679   3.263720   4.767461
    31  H    6.543575   6.109662   5.339657   4.048140   4.627451
    32  H    6.148127   5.741518   4.636552   3.278398   3.933722
    33  H    5.602325   5.548423   4.829640   3.318593   3.348561
    34  H    4.893867   5.427054   4.746586   4.695158   4.156996
    35  H    4.167012   4.224717   3.270883   3.466419   3.498250
    36  H    3.369239   3.971659   3.664551   4.015334   3.502966
    37  H    5.267021   6.349976   6.027987   5.376084   4.066570
    38  H    3.889571   5.201303   5.278660   4.856283   3.420745
    39  H    4.700985   5.833721   5.669955   4.767463   3.263730
    40  H    6.109447   6.543437   5.541441   4.627437   4.048143
    41  H    5.741388   6.148057   5.221421   3.933663   3.278390
    42  H    5.548259   5.602227   4.369886   3.348554   3.318621
                    6          7          8          9         10
     6  C    0.000000
     7  Si   3.657212   0.000000
     8  C    4.679600   1.899055   0.000000
     9  Si   2.942432   4.571118   4.824466   0.000000
    10  C    4.478983   4.824449   4.404210   1.899055   0.000000
    11  C    3.670403   1.899245   3.063921   5.587115   6.178673
    12  C    5.216508   1.898760   3.077598   5.965565   6.070291
    13  C    3.937043   5.587119   6.178682   1.899245   3.063896
    14  C    3.455352   5.965583   6.070334   1.898760   3.077615
    15  H    3.958268   2.998675   4.618214   4.607457   5.374031
    16  H    3.368665   3.863143   5.174770   3.347599   4.422382
    17  H    3.499633   2.380527   3.018561   2.882496   3.033159
    18  H    2.138708   2.882551   3.033241   2.380532   3.018591
    19  H    2.806805   3.316874   5.124368   5.000236   6.280282
    20  H    3.485337   4.580102   6.330492   5.053121   6.495300
    21  H    1.096729   4.607411   5.374020   2.998813   4.618326
    22  H    1.098538   3.347487   4.422450   3.863183   5.174848
    23  H    2.174558   5.000265   6.280225   3.316464   5.123967
    24  H    2.168049   5.053369   6.495525   4.579867   6.330317
    25  H    4.746631   2.489288   3.241352   6.546010   6.945927
    26  H    3.270993   2.522926   3.275258   5.320994   5.989288
    27  H    3.664464   2.530344   4.040545   5.930209   6.771197
    28  H    6.027986   2.501162   3.224689   6.854196   6.817025
    29  H    5.278660   2.523007   4.045079   6.344965   6.713206
    30  H    5.669921   2.518984   3.341577   5.899471   5.790406
    31  H    5.541492   2.503975   1.096489   5.906556   5.439281
    32  H    5.221494   2.517202   1.096299   4.769407   3.993896
    33  H    4.369970   2.523826   1.096091   4.444461   4.031968
    34  H    4.879184   6.545987   6.945899   2.489288   3.241289
    35  H    4.356139   5.320962   5.989276   2.522926   3.275259
    36  H    3.762088   5.930298   6.771275   2.530356   4.040531
    37  H    4.524491   6.854222   6.817079   2.501175   3.224729
    38  H    3.282044   6.344954   6.713223   2.522994   4.045086
    39  H    3.558756   5.899506   5.790465   2.518983   3.341592
    40  H    5.339656   5.906545   5.439277   2.503975   1.096489
    41  H    4.636587   4.769354   3.993854   2.517214   1.096298
    42  H    4.829649   4.444473   4.032006   2.523826   1.096091
                   11         12         13         14         15
    11  C    0.000000
    12  C    3.078241   0.000000
    13  C    6.735342   6.563070   0.000000
    14  C    6.563092   7.575955   3.078230   0.000000
    15  H    4.095566   2.857985   4.511714   6.258254   0.000000
    16  H    4.982518   4.324590   2.846760   4.952050   1.750203
    17  H    4.052881   3.236597   3.507879   4.683808   2.518709
    18  H    3.507899   4.683862   4.052900   3.236581   4.321253
    19  H    3.125166   3.929184   5.317707   6.070983   2.500523
    20  H    4.816562   4.928821   4.724061   6.164149   2.495346
    21  H    4.511596   6.258211   4.095742   2.858153   4.999538
    22  H    2.846673   4.951848   4.982449   4.324776   4.196708
    23  H    5.317865   6.071031   3.124707   3.928811   3.799345
    24  H    4.724458   6.164386   4.816201   4.928563   4.321420
    25  H    1.097218   3.235653   7.739925   7.520710   4.878158
    26  H    1.095448   4.046670   6.665662   6.008224   4.750924
    27  H    1.095076   3.329393   6.853453   6.895377   3.863604
    28  H    3.294670   1.096625   7.582082   8.398257   3.936490
    29  H    3.278822   1.095753   6.736457   7.935699   2.505222
    30  H    4.046196   1.096524   6.318923   7.645362   2.867904
    31  H    3.231584   3.279305   7.269257   7.077171   5.348820
    32  H    4.032822   3.287743   5.977501   6.171647   4.705292
    33  H    3.310197   4.048247   6.036470   5.410471   5.190579
    34  H    7.739916   7.520651   1.097218   3.235671   5.541734
    35  H    6.665615   6.008163   1.095449   4.046665   3.907022
    36  H    6.853535   6.895448   1.095075   3.329355   4.558085
    37  H    7.582109   8.398262   3.294657   1.096625   7.036323
    38  H    6.736443   7.935672   3.278817   1.095754   6.364557
    39  H    6.318968   7.645383   4.046187   1.096523   6.692274
    40  H    7.269248   7.077141   3.231575   3.279295   6.234711
    41  H    5.977473   6.171566   4.032811   3.287807   5.906776
    42  H    6.036491   5.410446   3.310145   4.048260   4.871696
                   16         17         18         19         20
    16  H    0.000000
    17  H    2.377670   0.000000
    18  H    3.911517   2.618092   0.000000
    19  H    3.059421   3.887785   4.107901   0.000000
    20  H    2.445833   4.286558   4.986431   1.758756   0.000000
    21  H    4.197103   4.321251   2.518655   3.799247   4.321388
    22  H    4.044203   3.911356   2.377789   2.617470   3.787355
    23  H    2.617721   4.107699   3.887622   3.063195   2.477627
    24  H    3.787560   4.986402   4.286594   2.477624   2.521357
    25  H    5.938454   4.834658   4.382839   4.064279   5.763400
    26  H    5.313653   4.353250   3.087872   3.508378   5.169789
    27  H    4.837974   4.441579   4.088294   2.415094   4.162020
    28  H    5.415766   4.167273   5.353756   4.754296   5.898831
    29  H    4.188388   3.728411   5.185054   3.428891   4.328599
    30  H    4.204498   3.024990   4.978024   4.555434   5.245923
    31  H    6.117324   4.033900   3.995243   5.738994   7.079400
    32  H    5.157667   2.827984   3.460038   5.689218   6.670369
    33  H    5.457466   3.346349   2.492096   5.387070   6.605022
    34  H    3.884785   4.382779   4.834667   6.410324   5.764513
    35  H    2.326990   3.087851   4.353264   5.199378   4.522774
    36  H    2.823169   4.088353   4.441639   5.011789   4.190974
    37  H    5.623416   5.353714   4.167274   7.062643   7.018009
    38  H    5.000805   5.184985   3.728356   5.869692   5.832391
    39  H    5.593078   4.977973   3.024974   6.308875   6.681204
    40  H    5.121923   3.995187   4.033912   7.219230   7.266020
    41  H    5.160226   3.459912   2.828000   6.584826   7.056534
    42  H    4.127735   2.492042   3.346430   6.164297   6.362860
                   21         22         23         24         25
    21  H    0.000000
    22  H    1.750217   0.000000
    23  H    2.500581   3.059362   0.000000
    24  H    2.495267   2.445874   1.758761   0.000000
    25  H    5.541631   3.884744   6.410480   5.764921   0.000000
    26  H    3.906938   2.327106   5.199586   4.523242   1.766244
    27  H    4.557866   2.822877   5.011940   4.191329   1.768146
    28  H    7.036262   5.623251   7.062710   7.018300   3.073680
    29  H    6.364534   5.000557   5.869839   5.832668   3.508938
    30  H    6.692243   5.592867   6.308834   6.681345   4.259709
    31  H    6.234658   5.121974   7.219203   7.266286   3.026674
    32  H    5.906821   5.160287   6.584715   7.056698   4.240073
    33  H    4.871685   4.127909   6.164207   6.363076   3.593557
    34  H    4.878378   5.938439   4.063846   5.763045   8.727643
    35  H    4.751038   5.313479   3.507916   5.169407   7.620468
    36  H    3.863820   4.837935   2.414712   4.161655   7.909574
    37  H    3.936660   5.415946   4.753875   5.898521   8.519962
    38  H    2.505369   4.188514   3.428536   4.328260   7.747805
    39  H    2.868038   4.204789   4.555145   5.245780   7.199304
    40  H    5.348942   6.117404   5.738558   7.079169   8.041337
    41  H    4.705395   5.157815   5.688872   6.670273   6.648501
    42  H    5.190688   5.457502   5.386688   6.604875   6.738386
                   26         27         28         29         30
    26  H    0.000000
    27  H    1.769907   0.000000
    28  H    4.287897   3.651764   0.000000
    29  H    4.311885   3.157757   1.767400   0.000000
    30  H    4.930030   4.334031   1.768575   1.769807   0.000000
    31  H    3.517055   4.253085   3.047279   4.267090   3.655282
    32  H    4.305332   4.926782   3.501525   4.323737   3.180893
    33  H    3.147407   4.327771   4.249657   4.931835   4.348612
    34  H    7.620511   7.909489   8.519894   7.747789   7.199212
    35  H    6.771026   6.766135   7.047572   6.158695   5.630415
    36  H    6.766264   6.810518   7.945369   6.910782   6.759412
    37  H    7.047637   7.945302   9.228564   8.796653   8.362782
    38  H    6.158729   6.910670   8.796623   8.159618   8.083524
    39  H    5.630492   6.759369   8.362797   8.083570   7.807766
    40  H    7.055145   7.841670   7.833040   7.706208   6.714678
    41  H    5.676509   6.702796   6.784888   6.917123   5.997712
    42  H    6.037709   6.630787   6.151931   6.092664   4.981163
                   31         32         33         34         35
    31  H    0.000000
    32  H    1.769271   0.000000
    33  H    1.766553   1.769042   0.000000
    34  H    8.041311   6.648486   6.738332   0.000000
    35  H    7.055139   5.676519   6.037670   1.766245   0.000000
    36  H    7.841749   6.702885   6.630833   1.768131   1.769909
    37  H    7.833085   6.784985   6.151963   3.073693   4.287907
    38  H    7.706209   6.917177   6.092669   3.508995   4.311867
    39  H    6.714721   5.997810   4.981208   4.259715   4.930026
    40  H    6.446814   4.945896   5.047346   3.026621   3.517098
    41  H    4.945854   3.666284   3.419802   4.240036   4.305327
    42  H    5.047397   3.419875   3.926354   3.593446   3.147375
                   36         37         38         39         40
    36  H    0.000000
    37  H    3.651692   0.000000
    38  H    3.157719   1.767410   0.000000
    39  H    4.334011   1.768568   1.769805   0.000000
    40  H    4.253060   3.047293   4.267088   3.655255   0.000000
    41  H    4.926788   3.501621   4.323787   3.180959   1.769264
    42  H    4.327747   4.249684   4.931833   4.348638   1.766553
                   41         42
    41  H    0.000000
    42  H    1.769035   0.000000
 Stoichiometry    C12H28Si2
 Framework group  C1[X(C12H28Si2)]
 Deg. of freedom   120
 Full point group                 C1      NOp   1
 Largest Abelian subgroup         C1      NOp   1
 Largest concise Abelian subgroup C1      NOp   1
                         Standard orientation:                         
 ---------------------------------------------------------------------
 Center     Atomic      Atomic             Coordinates (Angstroms)
 Number     Number       Type             X           Y           Z
 ---------------------------------------------------------------------
      1          6           0        0.580057    2.580986    0.502836
      2          6           0       -0.579698    2.581086   -0.502850
      3          6           0       -0.553544    1.314387   -1.371190
      4          6           0       -0.556029   -0.002712   -0.552057
      5          6           0        0.555993   -0.002749    0.552121
      6          6           0        0.553568    1.314367    1.371208
      7         14           0       -2.284741   -0.584569    0.062299
      8          6           0       -2.137915   -2.419757    0.528065
      9         14           0        2.284678   -0.584647   -0.062288
     10          6           0        2.137768   -2.419802   -0.528156
     11          6           0       -2.978181    0.335486    1.572190
     12          6           0       -3.536666   -0.429176   -1.356794
     13          6           0        2.978155    0.335425   -1.572151
     14          6           0        3.536632   -0.429359    1.356792
     15          1           0       -1.395512    1.322756   -2.073920
     16          1           0        0.352485    1.352415   -1.991235
     17          1           0       -0.323700   -0.809424   -1.268365
     18          1           0        0.323663   -0.809463    1.268430
     19          1           0       -1.530782    2.645424    0.043830
     20          1           0       -0.529759    3.470368   -1.143874
     21          1           0        1.395383    1.322648    2.074125
     22          1           0       -0.352604    1.352572    1.991029
     23          1           0        1.531158    2.645028   -0.043841
     24          1           0        0.530341    3.470331    1.143795
     25          1           0       -3.960842   -0.077971    1.831650
     26          1           0       -2.334770    0.223759    2.451704
     27          1           0       -3.109692    1.406847    1.387576
     28          1           0       -4.485701   -0.904889   -1.081808
     29          1           0       -3.752354    0.616905   -1.601472
     30          1           0       -3.175950   -0.916974   -2.270196
     31          1           0       -3.108192   -2.812679    0.854352
     32          1           0       -1.804611   -3.025359   -0.322833
     33          1           0       -1.427796   -2.580535    1.347393
     34          1           0        3.960763   -0.078118   -1.831673
     35          1           0        2.334698    0.223816   -2.451648
     36          1           0        3.109807    1.406760   -1.387491
     37          1           0        4.485657   -0.905075    1.081782
     38          1           0        3.752325    0.616711    1.601519
     39          1           0        3.175920   -0.917195    2.270174
     40          1           0        3.108036   -2.812761   -0.854424
     41          1           0        1.804398   -3.025445    0.322686
     42          1           0        1.427673   -2.580498   -1.347520
 ---------------------------------------------------------------------
 Rotational constants (GHZ):      0.7132593      0.3698784      0.3158777
 Standard basis: CC-pVTZ (5D, 7F)
 There are   820 symmetry adapted basis functions of A   symmetry.
 Integral buffers will be    131072 words long.
 Raffenetti 1 integral format.
 Two-electron integral symmetry is turned on.
   820 basis functions,  1290 primitive gaussians,   918 cartesian basis functions
    64 alpha electrons       64 beta electrons
       nuclear repulsion energy      1245.8525256904 Hartrees.
 NAtoms=   42 NActive=   42 NUniq=   42 SFac= 7.50D-01 NAtFMM=   80 NAOKFM=F Big=F
 One-electron integrals computed using PRISM.
 NBasis=   820 RedAO= T  NBF=   820
 NBsUse=   820 1.00D-06 NBFU=   820
 Harris functional with IExCor=  205 diagonalized for initial guess.
 ExpMin= 7.89D-02 ExpMax= 2.55D+05 ExpMxC= 2.46D+03 IAcc=2 IRadAn=         0 AccDes= 0.00D+00
 HarFok:  IExCor=  205 AccDes= 0.00D+00 IRadAn=         0 IDoV= 1
 ScaDFX=  1.000000  1.000000  1.000000  1.000000
 FoFCou: FMM=F IPFlag=           0 FMFlag=      100000 FMFlg1=           0
         NFxFlg=           0 DoJE=T BraDBF=F KetDBF=T FulRan=T
         Omega=  0.000000  0.000000  1.000000  0.000000  0.000000 ICntrl=     500 IOpCl=  0
         NMat0=    1 NMatS0=    1 NMatT0=    0 NMatD0=    1 NMtDS0=    0 NMtDT0=    0
         I1Cent=           4 NGrid=           0.
 Petite list used in FoFCou.
 Initial guess orbital symmetries:
       Occupied  (A) (A) (A) (A) (A) (A) (A) (A) (A) (A) (A) (A)
                 (A) (A) (A) (A) (A) (A) (A) (A) (A) (A) (A) (A)
                 (A) (A) (A) (A) (A) (A) (A) (A) (A) (A) (A) (A)
                 (A) (A) (A) (A) (A) (A) (A) (A) (A) (A) (A) (A)
                 (A) (A) (A) (A) (A) (A) (A) (A) (A) (A) (A) (A)
                 (A) (A) (A) (A)
       Virtual   (A) (A) (A) (A) (A) (A) (A) (A) (A) (A) (A) (A)
                 (A) (A) (A) (A) (A) (A) (A) (A) (A) (A) (A) (A)
                 (A) (A) (A) (A) (A) (A) (A) (A) (A) (A) (A) (A)
                 (A) (A) (A) (A) (A) (A) (A) (A) (A) (A) (A) (A)
                 (A) (A) (A) (A) (A) (A) (A) (A) (A) (A) (A) (A)
                 (A) (A) (A) (A) (A) (A) (A) (A) (A) (A) (A) (A)
                 (A) (A) (A) (A) (A) (A) (A) (A) (A) (A) (A) (A)
                 (A) (A) (A) (A) (A) (A) (A) (A) (A) (A) (A) (A)
                 (A) (A) (A) (A) (A) (A) (A) (A) (A) (A) (A) (A)
                 (A) (A) (A) (A) (A) (A) (A) (A) (A) (A) (A) (A)
                 (A) (A) (A) (A) (A) (A) (A) (A) (A) (A) (A) (A)
                 (A) (A) (A) (A) (A) (A) (A) (A) (A) (A) (A) (A)
                 (A) (A) (A) (A) (A) (A) (A) (A) (A) (A) (A) (A)
                 (A) (A) (A) (A) (A) (A) (A) (A) (A) (A) (A) (A)
                 (A) (A) (A) (A) (A) (A) (A) (A) (A) (A) (A) (A)
                 (A) (A) (A) (A) (A) (A) (A) (A) (A) (A) (A) (A)
                 (A) (A) (A) (A) (A) (A) (A) (A) (A) (A) (A) (A)
                 (A) (A) (A) (A) (A) (A) (A) (A) (A) (A) (A) (A)
                 (A) (A) (A) (A) (A) (A) (A) (A) (A) (A) (A) (A)
                 (A) (A) (A) (A) (A) (A) (A) (A) (A) (A) (A) (A)
                 (A) (A) (A) (A) (A) (A) (A) (A) (A) (A) (A) (A)
                 (A) (A) (A) (A) (A) (A) (A) (A) (A) (A) (A) (A)
                 (A) (A) (A) (A) (A) (A) (A) (A) (A) (A) (A) (A)
                 (A) (A) (A) (A) (A) (A) (A) (A) (A) (A) (A) (A)
                 (A) (A) (A) (A) (A) (A) (A) (A) (A) (A) (A) (A)
                 (A) (A) (A) (A) (A) (A) (A) (A) (A) (A) (A) (A)
                 (A) (A) (A) (A) (A) (A) (A) (A) (A) (A) (A) (A)
                 (A) (A) (A) (A) (A) (A) (A) (A) (A) (A) (A) (A)
                 (A) (A) (A) (A) (A) (A) (A) (A) (A) (A) (A) (A)
                 (A) (A) (A) (A) (A) (A) (A) (A) (A) (A) (A) (A)
                 (A) (A) (A) (A) (A) (A) (A) (A) (A) (A) (A) (A)
                 (A) (A) (A) (A) (A) (A) (A) (A) (A) (A) (A) (A)
                 (A) (A) (A) (A) (A) (A) (A) (A) (A) (A) (A) (A)
                 (A) (A) (A) (A) (A) (A) (A) (A) (A) (A) (A) (A)
                 (A) (A) (A) (A) (A) (A) (A) (A) (A) (A) (A) (A)
                 (A) (A) (A) (A) (A) (A) (A) (A) (A) (A) (A) (A)
                 (A) (A) (A) (A) (A) (A) (A) (A) (A) (A) (A) (A)
                 (A) (A) (A) (A) (A) (A) (A) (A) (A) (A) (A) (A)
                 (A) (A) (A) (A) (A) (A) (A) (A) (A) (A) (A) (A)
                 (A) (A) (A) (A) (A) (A) (A) (A) (A) (A) (A) (A)
                 (A) (A) (A) (A) (A) (A) (A) (A) (A) (A) (A) (A)
                 (A) (A) (A) (A) (A) (A) (A) (A) (A) (A) (A) (A)
                 (A) (A) (A) (A) (A) (A) (A) (A) (A) (A) (A) (A)
                 (A) (A) (A) (A) (A) (A) (A) (A) (A) (A) (A) (A)
                 (A) (A) (A) (A) (A) (A) (A) (A) (A) (A) (A) (A)
                 (A) (A) (A) (A) (A) (A) (A) (A) (A) (A) (A) (A)
                 (A) (A) (A) (A) (A) (A) (A) (A) (A) (A) (A) (A)
                 (A) (A) (A) (A) (A) (A) (A) (A) (A) (A) (A) (A)
                 (A) (A) (A) (A) (A) (A) (A) (A) (A) (A) (A) (A)
                 (A) (A) (A) (A) (A) (A) (A) (A) (A) (A) (A) (A)
                 (A) (A) (A) (A) (A) (A) (A) (A) (A) (A) (A) (A)
                 (A) (A) (A) (A) (A) (A) (A) (A) (A) (A) (A) (A)
                 (A) (A) (A) (A) (A) (A) (A) (A) (A) (A) (A) (A)
                 (A) (A) (A) (A) (A) (A) (A) (A) (A) (A) (A) (A)
                 (A) (A) (A) (A) (A) (A) (A) (A) (A) (A) (A) (A)
                 (A) (A) (A) (A) (A) (A) (A) (A) (A) (A) (A) (A)
                 (A) (A) (A) (A) (A) (A) (A) (A) (A) (A) (A) (A)
                 (A) (A) (A) (A) (A) (A) (A) (A) (A) (A) (A) (A)
                 (A) (A) (A) (A) (A) (A) (A) (A) (A) (A) (A) (A)
                 (A) (A) (A) (A) (A) (A) (A) (A) (A) (A) (A) (A)
                 (A) (A) (A) (A) (A) (A) (A) (A) (A) (A) (A) (A)
                 (A) (A) (A) (A) (A) (A) (A) (A) (A) (A) (A) (A)
                 (A) (A) (A) (A) (A) (A) (A) (A) (A) (A) (A) (A)
 The electronic state of the initial guess is 1-A.
 Requested convergence on RMS density matrix=1.00D-08 within 128 cycles.
 Requested convergence on MAX density matrix=1.00D-06.
 Requested convergence on             energy=1.00D-06.
 No special actions if energy rises.
 Integral accuracy reduced to 1.0D-05 until final iterations.
 Initial convergence to 1.0D-05 achieved.  Increase integral accuracy.
 SCF Done:  E(RHF) =  -1048.84253312     A.U. after   12 cycles
             Convg  =    0.3729D-08             -V/T =  2.0008
 ExpMin= 7.89D-02 ExpMax= 2.55D+05 ExpMxC= 2.46D+03 IAcc=3 IRadAn=         5 AccDes= 0.00D+00
 HarFok:  IExCor=  205 AccDes= 0.00D+00 IRadAn=         5 IDoV=-2
 ScaDFX=  1.000000  1.000000  1.000000  1.000000
 Range of M.O.s used for correlation:    23   820
 NBasis=   820 NAE=    64 NBE=    64 NFC=    22 NFV=     0
 NROrb=    798 NOA=    42 NOB=    42 NVA=   756 NVB=   756
 Disk-based method using OVN memory for 42 occupieds at a time.
 Estimated scratch disk usage= 31583043360 words.
 Actual    scratch disk usage= 30620065056 words.
 JobTyp=1 Pass  1:  I=   1 to  42 NPSUse=  8 ParTrn=T ParDer=T DoDerP=F.
 Spin components of T(2) and E(2):
     alpha-alpha T2 =       0.9646596243D-01 E2=     -0.2654590308D+00
     alpha-beta  T2 =       0.5915506885D+00 E2=     -0.1839011841D+01
     beta-beta   T2 =       0.9646596243D-01 E2=     -0.2654590308D+00
 ANorm=    0.1335845280D+01
 E2 =    -0.2369929903D+01 EUMP2 =    -0.10512124630231D+04

 **********************************************************************

            Population analysis using the SCF density.

 **********************************************************************

 Orbital symmetries:
       Occupied  (A) (A) (A) (A) (A) (A) (A) (A) (A) (A) (A) (A)
                 (A) (A) (A) (A) (A) (A) (A) (A) (A) (A) (A) (A)
                 (A) (A) (A) (A) (A) (A) (A) (A) (A) (A) (A) (A)
                 (A) (A) (A) (A) (A) (A) (A) (A) (A) (A) (A) (A)
                 (A) (A) (A) (A) (A) (A) (A) (A) (A) (A) (A) (A)
                 (A) (A) (A) (A)
       Virtual   (A) (A) (A) (A) (A) (A) (A) (A) (A) (A) (A) (A)
                 (A) (A) (A) (A) (A) (A) (A) (A) (A) (A) (A) (A)
                 (A) (A) (A) (A) (A) (A) (A) (A) (A) (A) (A) (A)
                 (A) (A) (A) (A) (A) (A) (A) (A) (A) (A) (A) (A)
                 (A) (A) (A) (A) (A) (A) (A) (A) (A) (A) (A) (A)
                 (A) (A) (A) (A) (A) (A) (A) (A) (A) (A) (A) (A)
                 (A) (A) (A) (A) (A) (A) (A) (A) (A) (A) (A) (A)
                 (A) (A) (A) (A) (A) (A) (A) (A) (A) (A) (A) (A)
                 (A) (A) (A) (A) (A) (A) (A) (A) (A) (A) (A) (A)
                 (A) (A) (A) (A) (A) (A) (A) (A) (A) (A) (A) (A)
                 (A) (A) (A) (A) (A) (A) (A) (A) (A) (A) (A) (A)
                 (A) (A) (A) (A) (A) (A) (A) (A) (A) (A) (A) (A)
                 (A) (A) (A) (A) (A) (A) (A) (A) (A) (A) (A) (A)
                 (A) (A) (A) (A) (A) (A) (A) (A) (A) (A) (A) (A)
                 (A) (A) (A) (A) (A) (A) (A) (A) (A) (A) (A) (A)
                 (A) (A) (A) (A) (A) (A) (A) (A) (A) (A) (A) (A)
                 (A) (A) (A) (A) (A) (A) (A) (A) (A) (A) (A) (A)
                 (A) (A) (A) (A) (A) (A) (A) (A) (A) (A) (A) (A)
                 (A) (A) (A) (A) (A) (A) (A) (A) (A) (A) (A) (A)
                 (A) (A) (A) (A) (A) (A) (A) (A) (A) (A) (A) (A)
                 (A) (A) (A) (A) (A) (A) (A) (A) (A) (A) (A) (A)
                 (A) (A) (A) (A) (A) (A) (A) (A) (A) (A) (A) (A)
                 (A) (A) (A) (A) (A) (A) (A) (A) (A) (A) (A) (A)
                 (A) (A) (A) (A) (A) (A) (A) (A) (A) (A) (A) (A)
                 (A) (A) (A) (A) (A) (A) (A) (A) (A) (A) (A) (A)
                 (A) (A) (A) (A) (A) (A) (A) (A) (A) (A) (A) (A)
                 (A) (A) (A) (A) (A) (A) (A) (A) (A) (A) (A) (A)
                 (A) (A) (A) (A) (A) (A) (A) (A) (A) (A) (A) (A)
                 (A) (A) (A) (A) (A) (A) (A) (A) (A) (A) (A) (A)
                 (A) (A) (A) (A) (A) (A) (A) (A) (A) (A) (A) (A)
                 (A) (A) (A) (A) (A) (A) (A) (A) (A) (A) (A) (A)
                 (A) (A) (A) (A) (A) (A) (A) (A) (A) (A) (A) (A)
                 (A) (A) (A) (A) (A) (A) (A) (A) (A) (A) (A) (A)
                 (A) (A) (A) (A) (A) (A) (A) (A) (A) (A) (A) (A)
                 (A) (A) (A) (A) (A) (A) (A) (A) (A) (A) (A) (A)
                 (A) (A) (A) (A) (A) (A) (A) (A) (A) (A) (A) (A)
                 (A) (A) (A) (A) (A) (A) (A) (A) (A) (A) (A) (A)
                 (A) (A) (A) (A) (A) (A) (A) (A) (A) (A) (A) (A)
                 (A) (A) (A) (A) (A) (A) (A) (A) (A) (A) (A) (A)
                 (A) (A) (A) (A) (A) (A) (A) (A) (A) (A) (A) (A)
                 (A) (A) (A) (A) (A) (A) (A) (A) (A) (A) (A) (A)
                 (A) (A) (A) (A) (A) (A) (A) (A) (A) (A) (A) (A)
                 (A) (A) (A) (A) (A) (A) (A) (A) (A) (A) (A) (A)
                 (A) (A) (A) (A) (A) (A) (A) (A) (A) (A) (A) (A)
                 (A) (A) (A) (A) (A) (A) (A) (A) (A) (A) (A) (A)
                 (A) (A) (A) (A) (A) (A) (A) (A) (A) (A) (A) (A)
                 (A) (A) (A) (A) (A) (A) (A) (A) (A) (A) (A) (A)
                 (A) (A) (A) (A) (A) (A) (A) (A) (A) (A) (A) (A)
                 (A) (A) (A) (A) (A) (A) (A) (A) (A) (A) (A) (A)
                 (A) (A) (A) (A) (A) (A) (A) (A) (A) (A) (A) (A)
                 (A) (A) (A) (A) (A) (A) (A) (A) (A) (A) (A) (A)
                 (A) (A) (A) (A) (A) (A) (A) (A) (A) (A) (A) (A)
                 (A) (A) (A) (A) (A) (A) (A) (A) (A) (A) (A) (A)
                 (A) (A) (A) (A) (A) (A) (A) (A) (A) (A) (A) (A)
                 (A) (A) (A) (A) (A) (A) (A) (A) (A) (A) (A) (A)
                 (A) (A) (A) (A) (A) (A) (A) (A) (A) (A) (A) (A)
                 (A) (A) (A) (A) (A) (A) (A) (A) (A) (A) (A) (A)
                 (A) (A) (A) (A) (A) (A) (A) (A) (A) (A) (A) (A)
                 (A) (A) (A) (A) (A) (A) (A) (A) (A) (A) (A) (A)
                 (A) (A) (A) (A) (A) (A) (A) (A) (A) (A) (A) (A)
                 (A) (A) (A) (A) (A) (A) (A) (A) (A) (A) (A) (A)
                 (A) (A) (A) (A) (A) (A) (A) (A) (A) (A) (A) (A)
                 (A) (A) (A) (A) (A) (A) (A) (A) (A) (A) (A) (A)
 The electronic state is 1-A.
 Alpha  occ. eigenvalues --  -68.74924 -68.74924 -11.21625 -11.21624 -11.21486
 Alpha  occ. eigenvalues --  -11.21428 -11.20973 -11.20921 -11.19572 -11.19572
 Alpha  occ. eigenvalues --  -11.19477 -11.19477 -11.19380 -11.19380  -6.09601
 Alpha  occ. eigenvalues --   -6.09600  -4.20228  -4.20228  -4.20225  -4.20225
 Alpha  occ. eigenvalues --   -4.20197  -4.20196  -1.10089  -0.99666  -0.99650
 Alpha  occ. eigenvalues --   -0.95790  -0.94997  -0.91706  -0.91687  -0.91655
 Alpha  occ. eigenvalues --   -0.91518  -0.82282  -0.82278  -0.73543  -0.64715
 Alpha  occ. eigenvalues --   -0.62726  -0.61473  -0.61185  -0.58448  -0.56922
 Alpha  occ. eigenvalues --   -0.56051  -0.55464  -0.55402  -0.55299  -0.55057
 Alpha  occ. eigenvalues --   -0.54008  -0.53777  -0.53434  -0.53251  -0.52744
 Alpha  occ. eigenvalues --   -0.52505  -0.51581  -0.51143  -0.51111  -0.50924
 Alpha  occ. eigenvalues --   -0.46252  -0.43814  -0.43418  -0.43187  -0.41926
 Alpha  occ. eigenvalues --   -0.41907  -0.41141  -0.41032  -0.35350
 Alpha virt. eigenvalues --    0.11905   0.13664   0.15179   0.15292   0.17148
 Alpha virt. eigenvalues --    0.17389   0.17419   0.17899   0.17974   0.19377
 Alpha virt. eigenvalues --    0.19810   0.20050   0.20917   0.21708   0.22744
 Alpha virt. eigenvalues --    0.22807   0.23667   0.23694   0.24405   0.24490
 Alpha virt. eigenvalues --    0.24685   0.25045   0.25496   0.25564   0.26437
 Alpha virt. eigenvalues --    0.26739   0.27765   0.27967   0.28581   0.29008
 Alpha virt. eigenvalues --    0.29724   0.29855   0.31355   0.31992   0.33149
 Alpha virt. eigenvalues --    0.33448   0.34546   0.35620   0.35852   0.36421
 Alpha virt. eigenvalues --    0.36803   0.37604   0.37607   0.38154   0.38706
 Alpha virt. eigenvalues --    0.39918   0.40995   0.42373   0.42739   0.43421
 Alpha virt. eigenvalues --    0.44135   0.45426   0.45812   0.46004   0.46368
 Alpha virt. eigenvalues --    0.46773   0.47348   0.48372   0.48781   0.50160
 Alpha virt. eigenvalues --    0.52369   0.52706   0.53277   0.53486   0.54185
 Alpha virt. eigenvalues --    0.54493   0.54859   0.55614   0.55871   0.56963
 Alpha virt. eigenvalues --    0.57006   0.57781   0.58318   0.58469   0.58788
 Alpha virt. eigenvalues --    0.58899   0.60150   0.60876   0.61156   0.61815
 Alpha virt. eigenvalues --    0.62262   0.63111   0.63147   0.63784   0.63814
 Alpha virt. eigenvalues --    0.64449   0.64808   0.64861   0.65080   0.65124
 Alpha virt. eigenvalues --    0.65954   0.66076   0.66814   0.66988   0.67876
 Alpha virt. eigenvalues --    0.68079   0.68805   0.69399   0.69660   0.69956
 Alpha virt. eigenvalues --    0.70569   0.70797   0.71128   0.71961   0.72267
 Alpha virt. eigenvalues --    0.72670   0.73213   0.74330   0.74945   0.75286
 Alpha virt. eigenvalues --    0.78027   0.78433   0.78640   0.79045   0.79246
 Alpha virt. eigenvalues --    0.80715   0.81608   0.81780   0.82694   0.83582
 Alpha virt. eigenvalues --    0.83636   0.85752   0.86149   0.86869   0.88584
 Alpha virt. eigenvalues --    0.89046   0.90259   0.90598   0.90848   0.92498
 Alpha virt. eigenvalues --    0.93605   0.95292   0.96132   0.96620   0.97688
 Alpha virt. eigenvalues --    0.98332   0.99551   1.00493   1.01069   1.01889
 Alpha virt. eigenvalues --    1.01947   1.04398   1.04900   1.05319   1.06387
 Alpha virt. eigenvalues --    1.06473   1.07309   1.08847   1.09449   1.10193
 Alpha virt. eigenvalues --    1.11062   1.11087   1.11563   1.13307   1.13430
 Alpha virt. eigenvalues --    1.14802   1.15782   1.15793   1.17186   1.18080
 Alpha virt. eigenvalues --    1.19096   1.19665   1.20006   1.20327   1.20573
 Alpha virt. eigenvalues --    1.21545   1.22204   1.22573   1.22607   1.23564
 Alpha virt. eigenvalues --    1.23912   1.24430   1.24948   1.25338   1.25676
 Alpha virt. eigenvalues --    1.25772   1.26129   1.27262   1.27744   1.27909
 Alpha virt. eigenvalues --    1.29187   1.29707   1.29836   1.31315   1.32355
 Alpha virt. eigenvalues --    1.33588   1.34007   1.34234   1.34499   1.35352
 Alpha virt. eigenvalues --    1.35664   1.36125   1.37220   1.37347   1.38966
 Alpha virt. eigenvalues --    1.39006   1.39084   1.39352   1.39590   1.40440
 Alpha virt. eigenvalues --    1.40621   1.41149   1.41995   1.42326   1.42424
 Alpha virt. eigenvalues --    1.43474   1.43675   1.44297   1.44760   1.45531
 Alpha virt. eigenvalues --    1.46005   1.46696   1.47448   1.48009   1.48607
 Alpha virt. eigenvalues --    1.48883   1.50146   1.50426   1.51380   1.51828
 Alpha virt. eigenvalues --    1.52284   1.52294   1.52563   1.52870   1.53808
 Alpha virt. eigenvalues --    1.54232   1.54537   1.55150   1.55962   1.56207
 Alpha virt. eigenvalues --    1.57206   1.57621   1.58300   1.58394   1.58907
 Alpha virt. eigenvalues --    1.58961   1.59880   1.59948   1.60759   1.61464
 Alpha virt. eigenvalues --    1.61775   1.62069   1.62683   1.63037   1.63962
 Alpha virt. eigenvalues --    1.64519   1.64664   1.65186   1.65935   1.66691
 Alpha virt. eigenvalues --    1.69251   1.69386   1.70520   1.71242   1.71593
 Alpha virt. eigenvalues --    1.72378   1.72709   1.73559   1.74370   1.74461
 Alpha virt. eigenvalues --    1.75163   1.76445   1.77475   1.78044   1.78896
 Alpha virt. eigenvalues --    1.79827   1.80149   1.80426   1.81996   1.82240
 Alpha virt. eigenvalues --    1.82748   1.84365   1.85195   1.86524   1.86918
 Alpha virt. eigenvalues --    1.87298   1.87686   1.88725   1.88961   1.89851
 Alpha virt. eigenvalues --    1.90727   1.92177   1.94278   1.94659   1.95470
 Alpha virt. eigenvalues --    1.95857   1.96648   1.97955   1.98032   1.99971
 Alpha virt. eigenvalues --    2.00575   2.01077   2.02126   2.02560   2.03389
 Alpha virt. eigenvalues --    2.04179   2.06300   2.07535   2.10377   2.16777
 Alpha virt. eigenvalues --    2.17056   2.22677   2.23358   2.27481   2.50043
 Alpha virt. eigenvalues --    2.54739   2.55769   2.56167   2.62102   2.63126
 Alpha virt. eigenvalues --    2.65105   2.66784   2.67694   2.67723   2.68516
 Alpha virt. eigenvalues --    2.68943   2.70347   2.70741   2.71177   2.73206
 Alpha virt. eigenvalues --    2.74402   2.75177   2.76138   2.77082   2.77559
 Alpha virt. eigenvalues --    2.77638   2.79873   2.80881   2.81382   2.81423
 Alpha virt. eigenvalues --    2.85295   2.85392   2.86475   2.88328   2.90460
 Alpha virt. eigenvalues --    2.91671   2.92212   2.93202   2.94314   2.95830
 Alpha virt. eigenvalues --    2.96894   2.97141   2.97864   2.99143   3.00946
 Alpha virt. eigenvalues --    3.01499   3.01647   3.01988   3.02203   3.03290
 Alpha virt. eigenvalues --    3.04439   3.04799   3.05822   3.05969   3.06581
 Alpha virt. eigenvalues --    3.07892   3.08159   3.08322   3.08908   3.09527
 Alpha virt. eigenvalues --    3.10880   3.11006   3.12595   3.12745   3.12826
 Alpha virt. eigenvalues --    3.12848   3.13517   3.13712   3.14357   3.14758
 Alpha virt. eigenvalues --    3.15356   3.16164   3.17485   3.17597   3.18847
 Alpha virt. eigenvalues --    3.19085   3.20075   3.20843   3.21468   3.22065
 Alpha virt. eigenvalues --    3.22854   3.23329   3.24027   3.24903   3.25350
 Alpha virt. eigenvalues --    3.26666   3.28823   3.29102   3.30318   3.30939
 Alpha virt. eigenvalues --    3.31014   3.31715   3.32274   3.32640   3.33096
 Alpha virt. eigenvalues --    3.34025   3.34819   3.35765   3.36160   3.36931
 Alpha virt. eigenvalues --    3.37236   3.37300   3.37481   3.37830   3.38335
 Alpha virt. eigenvalues --    3.38959   3.39190   3.39985   3.40938   3.41428
 Alpha virt. eigenvalues --    3.41713   3.41956   3.44593   3.44617   3.45524
 Alpha virt. eigenvalues --    3.45766   3.45787   3.46178   3.46464   3.46836
 Alpha virt. eigenvalues --    3.47451   3.47870   3.47953   3.48804   3.49201
 Alpha virt. eigenvalues --    3.49807   3.50217   3.50620   3.51093   3.51272
 Alpha virt. eigenvalues --    3.51478   3.52051   3.52969   3.53593   3.54380
 Alpha virt. eigenvalues --    3.54389   3.55253   3.56364   3.56991   3.58156
 Alpha virt. eigenvalues --    3.59380   3.60302   3.60332   3.61361   3.62519
 Alpha virt. eigenvalues --    3.64857   3.65249   3.65995   3.66184   3.66958
 Alpha virt. eigenvalues --    3.67356   3.68315   3.68559   3.69514   3.70109
 Alpha virt. eigenvalues --    3.70321   3.71049   3.72126   3.72480   3.72996
 Alpha virt. eigenvalues --    3.73007   3.73485   3.73874   3.74941   3.75241
 Alpha virt. eigenvalues --    3.76005   3.76143   3.76475   3.76967   3.76983
 Alpha virt. eigenvalues --    3.77229   3.78564   3.79001   3.79832   3.80551
 Alpha virt. eigenvalues --    3.80972   3.80997   3.81295   3.81604   3.81724
 Alpha virt. eigenvalues --    3.82078   3.82667   3.84060   3.84399   3.84559
 Alpha virt. eigenvalues --    3.86118   3.86725   3.86841   3.87076   3.88558
 Alpha virt. eigenvalues --    3.88926   3.89587   3.90182   3.90915   3.91710
 Alpha virt. eigenvalues --    3.92939   3.93719   3.94187   3.94860   3.94938
 Alpha virt. eigenvalues --    3.96655   3.98653   3.99229   4.00226   4.00687
 Alpha virt. eigenvalues --    4.01819   4.02879   4.03266   4.03666   4.03899
 Alpha virt. eigenvalues --    4.04441   4.04599   4.06242   4.06456   4.06952
 Alpha virt. eigenvalues --    4.07328   4.07708   4.08538   4.09917   4.11081
 Alpha virt. eigenvalues --    4.12605   4.12904   4.14274   4.14572   4.15416
 Alpha virt. eigenvalues --    4.15460   4.16090   4.16649   4.17589   4.17608
 Alpha virt. eigenvalues --    4.18225   4.18740   4.20113   4.20717   4.20977
 Alpha virt. eigenvalues --    4.22012   4.22544   4.23157   4.23256   4.24219
 Alpha virt. eigenvalues --    4.24532   4.25760   4.26691   4.28090   4.28777
 Alpha virt. eigenvalues --    4.29221   4.29838   4.30802   4.31005   4.31994
 Alpha virt. eigenvalues --    4.32270   4.33455   4.33547   4.34202   4.34584
 Alpha virt. eigenvalues --    4.34801   4.35891   4.36649   4.36977   4.37386
 Alpha virt. eigenvalues --    4.38603   4.38636   4.39756   4.39950   4.40074
 Alpha virt. eigenvalues --    4.41419   4.41720   4.42383   4.43080   4.43265
 Alpha virt. eigenvalues --    4.43922   4.43930   4.44864   4.44970   4.45261
 Alpha virt. eigenvalues --    4.45669   4.46615   4.46850   4.47437   4.47502
 Alpha virt. eigenvalues --    4.48514   4.48519   4.49510   4.49668   4.50441
 Alpha virt. eigenvalues --    4.52421   4.52651   4.53072   4.53546   4.54148
 Alpha virt. eigenvalues --    4.55023   4.55507   4.57376   4.57691   4.58066
 Alpha virt. eigenvalues --    4.58334   4.58607   4.59229   4.60031   4.61229
 Alpha virt. eigenvalues --    4.61277   4.62414   4.62740   4.62981   4.64178
 Alpha virt. eigenvalues --    4.64869   4.66242   4.66967   4.67502   4.68060
 Alpha virt. eigenvalues --    4.69502   4.70700   4.73723   4.75682   4.77070
 Alpha virt. eigenvalues --    4.78294   4.79006   4.79947   4.80446   4.85115
 Alpha virt. eigenvalues --    4.88608   4.88729   4.94007   4.94531   4.95092
 Alpha virt. eigenvalues --    4.96961   4.97682   4.98768   4.98869   5.00249
 Alpha virt. eigenvalues --    5.01968   5.02089   5.02647   5.03566   5.03926
 Alpha virt. eigenvalues --    5.04517   5.05972   5.06424   5.06660   5.08396
 Alpha virt. eigenvalues --    5.08472   5.08784   5.09147   5.09805   5.09810
 Alpha virt. eigenvalues --    5.11246   5.14132   5.15645   5.18367   5.20544
 Alpha virt. eigenvalues --    5.22996   5.23150   5.25752   5.26716   5.27363
 Alpha virt. eigenvalues --    5.28227   5.28320   5.28862   5.29050   5.31629
 Alpha virt. eigenvalues --    5.32591   5.33438   5.37176   5.37926   5.38016
 Alpha virt. eigenvalues --    5.39023   5.39142   5.39821   5.40661   5.40758
 Alpha virt. eigenvalues --    5.41013   5.42420   5.42743   5.44777   5.44950
 Alpha virt. eigenvalues --    5.45754   5.45985   5.46519   5.47063   5.47384
 Alpha virt. eigenvalues --    5.47408   5.47735   5.47876   5.50097   5.50117
 Alpha virt. eigenvalues --    5.51345   5.51777   5.53554   5.54067   5.54681
 Alpha virt. eigenvalues --    5.56618   5.58181   5.58994   5.60907   5.61466
 Alpha virt. eigenvalues --    5.61912   5.62108   5.64856   5.66695   5.66957
 Alpha virt. eigenvalues --    5.67692   5.67809   5.69010   5.70409   5.70445
 Alpha virt. eigenvalues --    5.71257   5.71922   5.74129   5.74479   5.74916
 Alpha virt. eigenvalues --    5.75101   5.75774   5.75809   5.78712   5.81115
 Alpha virt. eigenvalues --    5.81710   5.82875   5.86313   5.88704   5.92510
 Alpha virt. eigenvalues --    5.98652   6.00628   6.03300   6.04859   6.10585
 Alpha virt. eigenvalues --    6.15638   6.20684   6.29070   6.29204   6.29516
 Alpha virt. eigenvalues --    6.29615   6.30352   6.30931   6.32733   6.33513
 Alpha virt. eigenvalues --    6.33967   6.35803   6.37226   6.38193   6.38253
 Alpha virt. eigenvalues --    6.44820   6.50243   6.57095   6.58820  11.97507
 Alpha virt. eigenvalues --   12.45209  13.08228  13.35140  13.36929  13.40704
 Alpha virt. eigenvalues --   13.45981  13.46486  13.46682  13.61256  13.63813
 Alpha virt. eigenvalues --   13.71615
          Condensed to atoms (all electrons):
              1          2          3          4          5          6
     1  C    4.880194   0.342878  -0.040238  -0.001677  -0.041355   0.343233
     2  C    0.342878   4.880178   0.343244  -0.041360  -0.001675  -0.040247
     3  C   -0.040238   0.343244   4.939262   0.331716  -0.039071  -0.003997
     4  C   -0.001677  -0.041360   0.331716   4.972910   0.329203  -0.039074
     5  C   -0.041355  -0.001675  -0.039071   0.329203   4.972910   0.331723
     6  C    0.343233  -0.040247  -0.003997  -0.039074   0.331723   4.939245
     7  Si  -0.000298  -0.001331  -0.048468   0.438637  -0.038230  -0.001619
     8  C   -0.000007  -0.000069   0.001248  -0.016328  -0.000863   0.000279
     9  Si  -0.001333  -0.000297  -0.001619  -0.038221   0.438626  -0.048463
    10  C   -0.000069  -0.000007   0.000279  -0.000864  -0.016330   0.001247
    11  C    0.000468  -0.002339   0.002358  -0.018359   0.000547  -0.002912
    12  C   -0.000011   0.000244  -0.000852  -0.018521   0.000753  -0.000052
    13  C   -0.002341   0.000467  -0.002913   0.000547  -0.018358   0.002358
    14  C    0.000244  -0.000011  -0.000052   0.000754  -0.018523  -0.000849
    15  H    0.006695  -0.037668   0.440186  -0.035946   0.006100  -0.000962
    16  H   -0.003646  -0.040522   0.427104  -0.037003  -0.001891   0.000430
    17  H   -0.000935   0.007271  -0.039748   0.409720  -0.035617   0.006947
    18  H    0.007271  -0.000935   0.006947  -0.035616   0.409724  -0.039745
    19  H   -0.040630   0.423637  -0.037144  -0.001777  -0.000085  -0.002214
    20  H   -0.036005   0.437804  -0.036491   0.006429  -0.001215   0.006522
    21  H   -0.037672   0.006696  -0.000962   0.006099  -0.035942   0.440185
    22  H   -0.040532  -0.003649   0.000429  -0.001892  -0.037007   0.427110
    23  H    0.423636  -0.040629  -0.002213  -0.000085  -0.001781  -0.037146
    24  H    0.437806  -0.036003   0.006521  -0.001215   0.006429  -0.036491
    25  H   -0.000045   0.000108  -0.000207   0.001977  -0.000193   0.000124
    26  H    0.000347  -0.000064   0.000372   0.000498  -0.000132  -0.002255
    27  H    0.000198  -0.001436  -0.000300   0.000865   0.000327  -0.000175
    28  H    0.000000  -0.000022  -0.000020   0.002189  -0.000056  -0.000001
    29  H   -0.000015   0.000058  -0.001194  -0.000531  -0.000119   0.000035
    30  H   -0.000002   0.000044  -0.000090   0.000039   0.000048   0.000004
    31  H    0.000000   0.000003  -0.000093   0.002119  -0.000059  -0.000006
    32  H    0.000003  -0.000002  -0.000031  -0.001309   0.000490  -0.000039
    33  H   -0.000017   0.000021  -0.000101  -0.000404  -0.001229   0.000305
    34  H    0.000108  -0.000045   0.000124  -0.000193   0.001977  -0.000207
    35  H   -0.000064   0.000347  -0.002256  -0.000132   0.000498   0.000372
    36  H   -0.001438   0.000198  -0.000175   0.000327   0.000865  -0.000300
    37  H   -0.000022   0.000000  -0.000001  -0.000056   0.002189  -0.000020
    38  H    0.000058  -0.000015   0.000035  -0.000119  -0.000531  -0.001193
    39  H    0.000044  -0.000002   0.000004   0.000048   0.000040  -0.000090
    40  H    0.000003   0.000000  -0.000006  -0.000059   0.002119  -0.000093
    41  H   -0.000002   0.000003  -0.000039   0.000490  -0.001309  -0.000031
    42  H    0.000021  -0.000017   0.000305  -0.001230  -0.000403  -0.000101
              7          8          9         10         11         12
     1  C   -0.000298  -0.000007  -0.001333  -0.000069   0.000468  -0.000011
     2  C   -0.001331  -0.000069  -0.000297  -0.000007  -0.002339   0.000244
     3  C   -0.048468   0.001248  -0.001619   0.000279   0.002358  -0.000852
     4  C    0.438637  -0.016328  -0.038221  -0.000864  -0.018359  -0.018521
     5  C   -0.038230  -0.000863   0.438626  -0.016330   0.000547   0.000753
     6  C   -0.001619   0.000279  -0.048463   0.001247  -0.002912  -0.000052
     7  Si  12.242565   0.436567   0.013790  -0.000088   0.426671   0.441329
     8  C    0.436567   4.855978  -0.000088  -0.000842  -0.020359  -0.020440
     9  Si   0.013790  -0.000088  12.242565   0.436571  -0.000166  -0.000228
    10  C   -0.000088  -0.000842   0.436571   4.855986  -0.000002   0.000001
    11  C    0.426671  -0.020359  -0.000166  -0.000002   4.870955  -0.020011
    12  C    0.441329  -0.020440  -0.000228   0.000001  -0.020011   4.851950
    13  C   -0.000166  -0.000002   0.426672  -0.020361   0.000001   0.000000
    14  C   -0.000228   0.000001   0.441328  -0.020439   0.000000   0.000000
    15  H   -0.014242   0.000229  -0.000344   0.000006   0.000596  -0.001612
    16  H    0.011681  -0.000095  -0.000208   0.000150  -0.000210  -0.000131
    17  H   -0.041393  -0.003468  -0.020242  -0.000809   0.002526   0.000691
    18  H   -0.020241  -0.000808  -0.041394  -0.003467   0.000599   0.000302
    19  H    0.002243   0.000018  -0.000072   0.000001  -0.002732  -0.000053
    20  H    0.000005   0.000000  -0.000044   0.000000   0.000066   0.000004
    21  H   -0.000344   0.000006  -0.014236   0.000229   0.000186   0.000004
    22  H   -0.000206   0.000150   0.011681  -0.000095  -0.004334   0.000002
    23  H   -0.000072   0.000001   0.002244   0.000018  -0.000024   0.000002
    24  H   -0.000043   0.000000   0.000005   0.000000   0.000057   0.000000
    25  H   -0.028004  -0.001110   0.000027   0.000000   0.401319  -0.000945
    26  H   -0.029845   0.000449  -0.000111   0.000001   0.399639   0.001763
    27  H   -0.030746   0.001872  -0.000029   0.000000   0.400954   0.000719
    28  H   -0.030968  -0.000673   0.000014   0.000000  -0.000171   0.400835
    29  H   -0.026010   0.001780   0.000012   0.000000   0.000160   0.398028
    30  H   -0.029968   0.000956  -0.000033   0.000000   0.001996   0.396422
    31  H   -0.032195   0.403294   0.000000   0.000011  -0.000498  -0.000443
    32  H   -0.027244   0.395099  -0.000199  -0.000078   0.001838   0.000770
    33  H   -0.025339   0.396913  -0.000240  -0.000073   0.000636   0.001674
    34  H    0.000027   0.000000  -0.028004  -0.001110   0.000000   0.000000
    35  H   -0.000111   0.000001  -0.029844   0.000449   0.000000   0.000002
    36  H   -0.000029   0.000000  -0.030748   0.001872   0.000000   0.000000
    37  H    0.000014   0.000000  -0.030968  -0.000673   0.000000   0.000000
    38  H    0.000012   0.000000  -0.026011   0.001780   0.000000   0.000000
    39  H   -0.000033   0.000000  -0.029967   0.000956   0.000001   0.000000
    40  H    0.000000   0.000011  -0.032195   0.403294   0.000000   0.000000
    41  H   -0.000199  -0.000078  -0.027243   0.395098   0.000005  -0.000001
    42  H   -0.000240  -0.000073  -0.025338   0.396912  -0.000001   0.000009
             13         14         15         16         17         18
     1  C   -0.002341   0.000244   0.006695  -0.003646  -0.000935   0.007271
     2  C    0.000467  -0.000011  -0.037668  -0.040522   0.007271  -0.000935
     3  C   -0.002913  -0.000052   0.440186   0.427104  -0.039748   0.006947
     4  C    0.000547   0.000754  -0.035946  -0.037003   0.409720  -0.035616
     5  C   -0.018358  -0.018523   0.006100  -0.001891  -0.035617   0.409724
     6  C    0.002358  -0.000849  -0.000962   0.000430   0.006947  -0.039745
     7  Si  -0.000166  -0.000228  -0.014242   0.011681  -0.041393  -0.020241
     8  C   -0.000002   0.000001   0.000229  -0.000095  -0.003468  -0.000808
     9  Si   0.426672   0.441328  -0.000344  -0.000208  -0.020242  -0.041394
    10  C   -0.020361  -0.020439   0.000006   0.000150  -0.000809  -0.003467
    11  C    0.000001   0.000000   0.000596  -0.000210   0.002526   0.000599
    12  C    0.000000   0.000000  -0.001612  -0.000131   0.000691   0.000302
    13  C    4.870963  -0.020011   0.000186  -0.004331   0.000599   0.002526
    14  C   -0.020011   4.851946   0.000004   0.000002   0.000302   0.000691
    15  H    0.000186   0.000004   0.556275  -0.033130  -0.001020  -0.000133
    16  H   -0.004331   0.000002  -0.033130   0.579999  -0.012492  -0.000613
    17  H    0.000599   0.000302  -0.001020  -0.012492   0.605360   0.003850
    18  H    0.002526   0.000691  -0.000133  -0.000613   0.003850   0.605347
    19  H   -0.000024   0.000002  -0.004330   0.006615  -0.000268  -0.000142
    20  H    0.000058   0.000000  -0.005129  -0.005455  -0.000308   0.000085
    21  H    0.000596  -0.001612   0.000101  -0.000151  -0.000133  -0.001023
    22  H   -0.000210  -0.000131  -0.000151   0.000037  -0.000613  -0.012489
    23  H   -0.002734  -0.000053  -0.000089   0.001265  -0.000142  -0.000268
    24  H    0.000066   0.000004  -0.000287   0.000025   0.000085  -0.000308
    25  H    0.000000   0.000000  -0.000046   0.000011  -0.000189  -0.000210
    26  H    0.000000   0.000002  -0.000012  -0.000001  -0.000110   0.000984
    27  H    0.000000   0.000000   0.000018  -0.000003  -0.000129   0.000075
    28  H    0.000000   0.000000   0.000130   0.000018  -0.000234  -0.000035
    29  H    0.000000   0.000000  -0.001713   0.000068   0.000101  -0.000015
    30  H    0.000001   0.000000   0.000221  -0.000134   0.001135   0.000001
    31  H    0.000000   0.000000  -0.000017   0.000006  -0.000023  -0.000120
    32  H    0.000005  -0.000001  -0.000010   0.000011   0.001253  -0.000087
    33  H   -0.000001   0.000009  -0.000009   0.000003   0.000441   0.000392
    34  H    0.401320  -0.000945  -0.000005   0.000591  -0.000210  -0.000189
    35  H    0.399637   0.001763   0.000102  -0.002443   0.000984  -0.000110
    36  H    0.400956   0.000719  -0.000008  -0.000658   0.000075  -0.000129
    37  H   -0.000171   0.400837   0.000000   0.000004  -0.000035  -0.000234
    38  H    0.000160   0.398027   0.000000  -0.000006  -0.000015   0.000101
    39  H    0.001996   0.396421   0.000000  -0.000002   0.000001   0.001135
    40  H   -0.000498  -0.000443  -0.000001  -0.000002  -0.000120  -0.000023
    41  H    0.001839   0.000770   0.000000  -0.000008  -0.000087   0.001253
    42  H    0.000636   0.001674   0.000005  -0.000009   0.000392   0.000441
             19         20         21         22         23         24
     1  C   -0.040630  -0.036005  -0.037672  -0.040532   0.423636   0.437806
     2  C    0.423637   0.437804   0.006696  -0.003649  -0.040629  -0.036003
     3  C   -0.037144  -0.036491  -0.000962   0.000429  -0.002213   0.006521
     4  C   -0.001777   0.006429   0.006099  -0.001892  -0.000085  -0.001215
     5  C   -0.000085  -0.001215  -0.035942  -0.037007  -0.001781   0.006429
     6  C   -0.002214   0.006522   0.440185   0.427110  -0.037146  -0.036491
     7  Si   0.002243   0.000005  -0.000344  -0.000206  -0.000072  -0.000043
     8  C    0.000018   0.000000   0.000006   0.000150   0.000001   0.000000
     9  Si  -0.000072  -0.000044  -0.014236   0.011681   0.002244   0.000005
    10  C    0.000001   0.000000   0.000229  -0.000095   0.000018   0.000000
    11  C   -0.002732   0.000066   0.000186  -0.004334  -0.000024   0.000057
    12  C   -0.000053   0.000004   0.000004   0.000002   0.000002   0.000000
    13  C   -0.000024   0.000058   0.000596  -0.000210  -0.002734   0.000066
    14  C    0.000002   0.000000  -0.001612  -0.000131  -0.000053   0.000004
    15  H   -0.004330  -0.005129   0.000101  -0.000151  -0.000089  -0.000287
    16  H    0.006615  -0.005455  -0.000151   0.000037   0.001265   0.000025
    17  H   -0.000268  -0.000308  -0.000133  -0.000613  -0.000142   0.000085
    18  H   -0.000142   0.000085  -0.001023  -0.012489  -0.000268  -0.000308
    19  H    0.595510  -0.032688  -0.000089   0.001266   0.007014  -0.004722
    20  H   -0.032688   0.562740  -0.000287   0.000025  -0.004722  -0.004700
    21  H   -0.000089  -0.000287   0.556268  -0.033126  -0.004328  -0.005132
    22  H    0.001266   0.000025  -0.033126   0.580012   0.006616  -0.005453
    23  H    0.007014  -0.004722  -0.004328   0.006616   0.595520  -0.032689
    24  H   -0.004722  -0.004700  -0.005132  -0.005453  -0.032689   0.562736
    25  H    0.000231  -0.000001  -0.000005   0.000592   0.000001  -0.000001
    26  H   -0.000075  -0.000009   0.000102  -0.002444  -0.000007   0.000014
    27  H   -0.000817   0.000092  -0.000008  -0.000659  -0.000009   0.000041
    28  H   -0.000002   0.000000   0.000000   0.000004   0.000000   0.000000
    29  H    0.000259   0.000011   0.000000  -0.000006   0.000000   0.000001
    30  H   -0.000012   0.000002   0.000000  -0.000002   0.000000   0.000000
    31  H    0.000000   0.000000  -0.000001  -0.000002   0.000000   0.000000
    32  H    0.000000   0.000000   0.000000  -0.000008   0.000000   0.000000
    33  H   -0.000001   0.000000   0.000005  -0.000009   0.000000   0.000000
    34  H    0.000001  -0.000001  -0.000046   0.000011   0.000232  -0.000001
    35  H   -0.000007   0.000014  -0.000012  -0.000001  -0.000076  -0.000009
    36  H   -0.000009   0.000042   0.000018  -0.000003  -0.000819   0.000092
    37  H    0.000000   0.000000   0.000130   0.000018  -0.000002   0.000000
    38  H    0.000000   0.000001  -0.001713   0.000068   0.000259   0.000011
    39  H    0.000000   0.000000   0.000221  -0.000134  -0.000012   0.000002
    40  H    0.000000   0.000000  -0.000017   0.000006   0.000000   0.000000
    41  H    0.000000   0.000000  -0.000010   0.000011   0.000000   0.000000
    42  H    0.000000   0.000000  -0.000009   0.000003  -0.000001   0.000000
             25         26         27         28         29         30
     1  C   -0.000045   0.000347   0.000198   0.000000  -0.000015  -0.000002
     2  C    0.000108  -0.000064  -0.001436  -0.000022   0.000058   0.000044
     3  C   -0.000207   0.000372  -0.000300  -0.000020  -0.001194  -0.000090
     4  C    0.001977   0.000498   0.000865   0.002189  -0.000531   0.000039
     5  C   -0.000193  -0.000132   0.000327  -0.000056  -0.000119   0.000048
     6  C    0.000124  -0.002255  -0.000175  -0.000001   0.000035   0.000004
     7  Si  -0.028004  -0.029845  -0.030746  -0.030968  -0.026010  -0.029968
     8  C   -0.001110   0.000449   0.001872  -0.000673   0.001780   0.000956
     9  Si   0.000027  -0.000111  -0.000029   0.000014   0.000012  -0.000033
    10  C    0.000000   0.000001   0.000000   0.000000   0.000000   0.000000
    11  C    0.401319   0.399639   0.400954  -0.000171   0.000160   0.001996
    12  C   -0.000945   0.001763   0.000719   0.400835   0.398028   0.396422
    13  C    0.000000   0.000000   0.000000   0.000000   0.000000   0.000001
    14  C    0.000000   0.000002   0.000000   0.000000   0.000000   0.000000
    15  H   -0.000046  -0.000012   0.000018   0.000130  -0.001713   0.000221
    16  H    0.000011  -0.000001  -0.000003   0.000018   0.000068  -0.000134
    17  H   -0.000189  -0.000110  -0.000129  -0.000234   0.000101   0.001135
    18  H   -0.000210   0.000984   0.000075  -0.000035  -0.000015   0.000001
    19  H    0.000231  -0.000075  -0.000817  -0.000002   0.000259  -0.000012
    20  H   -0.000001  -0.000009   0.000092   0.000000   0.000011   0.000002
    21  H   -0.000005   0.000102  -0.000008   0.000000   0.000000   0.000000
    22  H    0.000592  -0.002444  -0.000659   0.000004  -0.000006  -0.000002
    23  H    0.000001  -0.000007  -0.000009   0.000000   0.000000   0.000000
    24  H   -0.000001   0.000014   0.000041   0.000000   0.000001   0.000000
    25  H    0.559409  -0.025984  -0.023574   0.000617   0.000231  -0.000105
    26  H   -0.025984   0.573319  -0.024873  -0.000136  -0.000076  -0.000113
    27  H   -0.023574  -0.024873   0.564967   0.000164   0.000484  -0.000104
    28  H    0.000617  -0.000136   0.000164   0.567354  -0.025130  -0.023575
    29  H    0.000231  -0.000076   0.000484  -0.025130   0.576095  -0.027270
    30  H   -0.000105  -0.000113  -0.000104  -0.023575  -0.027270   0.573977
    31  H    0.000613   0.000234  -0.000080   0.000602  -0.000113   0.000101
    32  H   -0.000113  -0.000074  -0.000114   0.000223  -0.000088   0.000677
    33  H    0.000180   0.000470  -0.000120  -0.000067  -0.000109  -0.000118
    34  H    0.000000   0.000000   0.000000   0.000000   0.000000   0.000000
    35  H    0.000000   0.000000   0.000000   0.000000   0.000000   0.000000
    36  H    0.000000   0.000000   0.000000   0.000000   0.000000   0.000000
    37  H    0.000000   0.000000   0.000000   0.000000   0.000000   0.000000
    38  H    0.000000   0.000000   0.000000   0.000000   0.000000   0.000000
    39  H    0.000000   0.000000   0.000000   0.000000   0.000000   0.000000
    40  H    0.000000   0.000000   0.000000   0.000000   0.000000   0.000000
    41  H    0.000000  -0.000002   0.000000   0.000000   0.000000   0.000000
    42  H    0.000000   0.000000   0.000000   0.000000   0.000000   0.000003
             31         32         33         34         35         36
     1  C    0.000000   0.000003  -0.000017   0.000108  -0.000064  -0.001438
     2  C    0.000003  -0.000002   0.000021  -0.000045   0.000347   0.000198
     3  C   -0.000093  -0.000031  -0.000101   0.000124  -0.002256  -0.000175
     4  C    0.002119  -0.001309  -0.000404  -0.000193  -0.000132   0.000327
     5  C   -0.000059   0.000490  -0.001229   0.001977   0.000498   0.000865
     6  C   -0.000006  -0.000039   0.000305  -0.000207   0.000372  -0.000300
     7  Si  -0.032195  -0.027244  -0.025339   0.000027  -0.000111  -0.000029
     8  C    0.403294   0.395099   0.396913   0.000000   0.000001   0.000000
     9  Si   0.000000  -0.000199  -0.000240  -0.028004  -0.029844  -0.030748
    10  C    0.000011  -0.000078  -0.000073  -0.001110   0.000449   0.001872
    11  C   -0.000498   0.001838   0.000636   0.000000   0.000000   0.000000
    12  C   -0.000443   0.000770   0.001674   0.000000   0.000002   0.000000
    13  C    0.000000   0.000005  -0.000001   0.401320   0.399637   0.400956
    14  C    0.000000  -0.000001   0.000009  -0.000945   0.001763   0.000719
    15  H   -0.000017  -0.000010  -0.000009  -0.000005   0.000102  -0.000008
    16  H    0.000006   0.000011   0.000003   0.000591  -0.002443  -0.000658
    17  H   -0.000023   0.001253   0.000441  -0.000210   0.000984   0.000075
    18  H   -0.000120  -0.000087   0.000392  -0.000189  -0.000110  -0.000129
    19  H    0.000000   0.000000  -0.000001   0.000001  -0.000007  -0.000009
    20  H    0.000000   0.000000   0.000000  -0.000001   0.000014   0.000042
    21  H   -0.000001   0.000000   0.000005  -0.000046  -0.000012   0.000018
    22  H   -0.000002  -0.000008  -0.000009   0.000011  -0.000001  -0.000003
    23  H    0.000000   0.000000   0.000000   0.000232  -0.000076  -0.000819
    24  H    0.000000   0.000000   0.000000  -0.000001  -0.000009   0.000092
    25  H    0.000613  -0.000113   0.000180   0.000000   0.000000   0.000000
    26  H    0.000234  -0.000074   0.000470   0.000000   0.000000   0.000000
    27  H   -0.000080  -0.000114  -0.000120   0.000000   0.000000   0.000000
    28  H    0.000602   0.000223  -0.000067   0.000000   0.000000   0.000000
    29  H   -0.000113  -0.000088  -0.000109   0.000000   0.000000   0.000000
    30  H    0.000101   0.000677  -0.000118   0.000000   0.000000   0.000000
    31  H    0.568322  -0.024040  -0.025778   0.000000   0.000000   0.000000
    32  H   -0.024040   0.573080  -0.025745   0.000000  -0.000002   0.000000
    33  H   -0.025778  -0.025745   0.573383   0.000000   0.000000   0.000000
    34  H    0.000000   0.000000   0.000000   0.559410  -0.025984  -0.023576
    35  H    0.000000  -0.000002   0.000000  -0.025984   0.573318  -0.024871
    36  H    0.000000   0.000000   0.000000  -0.023576  -0.024871   0.564965
    37  H    0.000000   0.000000   0.000000   0.000617  -0.000136   0.000164
    38  H    0.000000   0.000000   0.000000   0.000231  -0.000076   0.000484
    39  H    0.000000   0.000000   0.000003  -0.000105  -0.000113  -0.000104
    40  H    0.000001   0.000002  -0.000007   0.000613   0.000234  -0.000080
    41  H    0.000002   0.000094   0.000139  -0.000113  -0.000074  -0.000114
    42  H   -0.000007   0.000139   0.000009   0.000180   0.000470  -0.000120
             37         38         39         40         41         42
     1  C   -0.000022   0.000058   0.000044   0.000003  -0.000002   0.000021
     2  C    0.000000  -0.000015  -0.000002   0.000000   0.000003  -0.000017
     3  C   -0.000001   0.000035   0.000004  -0.000006  -0.000039   0.000305
     4  C   -0.000056  -0.000119   0.000048  -0.000059   0.000490  -0.001230
     5  C    0.002189  -0.000531   0.000040   0.002119  -0.001309  -0.000403
     6  C   -0.000020  -0.001193  -0.000090  -0.000093  -0.000031  -0.000101
     7  Si   0.000014   0.000012  -0.000033   0.000000  -0.000199  -0.000240
     8  C    0.000000   0.000000   0.000000   0.000011  -0.000078  -0.000073
     9  Si  -0.030968  -0.026011  -0.029967  -0.032195  -0.027243  -0.025338
    10  C   -0.000673   0.001780   0.000956   0.403294   0.395098   0.396912
    11  C    0.000000   0.000000   0.000001   0.000000   0.000005  -0.000001
    12  C    0.000000   0.000000   0.000000   0.000000  -0.000001   0.000009
    13  C   -0.000171   0.000160   0.001996  -0.000498   0.001839   0.000636
    14  C    0.400837   0.398027   0.396421  -0.000443   0.000770   0.001674
    15  H    0.000000   0.000000   0.000000  -0.000001   0.000000   0.000005
    16  H    0.000004  -0.000006  -0.000002  -0.000002  -0.000008  -0.000009
    17  H   -0.000035  -0.000015   0.000001  -0.000120  -0.000087   0.000392
    18  H   -0.000234   0.000101   0.001135  -0.000023   0.001253   0.000441
    19  H    0.000000   0.000000   0.000000   0.000000   0.000000   0.000000
    20  H    0.000000   0.000001   0.000000   0.000000   0.000000   0.000000
    21  H    0.000130  -0.001713   0.000221  -0.000017  -0.000010  -0.000009
    22  H    0.000018   0.000068  -0.000134   0.000006   0.000011   0.000003
    23  H   -0.000002   0.000259  -0.000012   0.000000   0.000000  -0.000001
    24  H    0.000000   0.000011   0.000002   0.000000   0.000000   0.000000
    25  H    0.000000   0.000000   0.000000   0.000000   0.000000   0.000000
    26  H    0.000000   0.000000   0.000000   0.000000  -0.000002   0.000000
    27  H    0.000000   0.000000   0.000000   0.000000   0.000000   0.000000
    28  H    0.000000   0.000000   0.000000   0.000000   0.000000   0.000000
    29  H    0.000000   0.000000   0.000000   0.000000   0.000000   0.000000
    30  H    0.000000   0.000000   0.000000   0.000000   0.000000   0.000003
    31  H    0.000000   0.000000   0.000000   0.000001   0.000002  -0.000007
    32  H    0.000000   0.000000   0.000000   0.000002   0.000094   0.000139
    33  H    0.000000   0.000000   0.000003  -0.000007   0.000139   0.000009
    34  H    0.000617   0.000231  -0.000105   0.000613  -0.000113   0.000180
    35  H   -0.000136  -0.000076  -0.000113   0.000234  -0.000074   0.000470
    36  H    0.000164   0.000484  -0.000104  -0.000080  -0.000114  -0.000120
    37  H    0.567352  -0.025128  -0.023577   0.000602   0.000223  -0.000067
    38  H   -0.025128   0.576094  -0.027270  -0.000113  -0.000088  -0.000109
    39  H   -0.023577  -0.027270   0.573979   0.000101   0.000677  -0.000118
    40  H    0.000602  -0.000113   0.000101   0.568322  -0.024040  -0.025777
    41  H    0.000223  -0.000088   0.000677  -0.024040   0.573080  -0.025746
    42  H   -0.000067  -0.000109  -0.000118  -0.025777  -0.025746   0.573384
 Mulliken atomic charges:
              1
     1  C   -0.194851
     2  C   -0.194854
     3  C   -0.241855
     4  C   -0.212599
     5  C   -0.212596
     6  C   -0.241836
     7  Si   0.414360
     8  C   -0.429549
     9  Si   0.414350
    10  C   -0.429556
    11  C   -0.439463
    12  C   -0.432206
    13  C   -0.439465
    14  C   -0.432202
    15  H    0.126010
    16  H    0.115125
    17  H    0.116605
    18  H    0.116608
    19  H    0.091096
    20  H    0.113154
    21  H    0.126009
    22  H    0.115116
    23  H    0.091094
    24  H    0.113156
    25  H    0.115291
    26  H    0.108128
    27  H    0.112399
    28  H    0.108938
    29  H    0.105066
    30  H    0.105900
    31  H    0.108166
    32  H    0.105498
    33  H    0.104786
    34  H    0.115292
    35  H    0.108128
    36  H    0.112402
    37  H    0.108938
    38  H    0.105066
    39  H    0.105899
    40  H    0.108166
    41  H    0.105499
    42  H    0.104786
 Sum of Mulliken atomic charges =   0.00000
 Mulliken charges with hydrogens summed into heavy atoms:
              1
     1  C    0.009399
     2  C    0.009396
     3  C   -0.000719
     4  C   -0.095993
     5  C   -0.095987
     6  C   -0.000712
     7  Si   0.414360
     8  C   -0.111100
     9  Si   0.414350
    10  C   -0.111105
    11  C   -0.103644
    12  C   -0.112303
    13  C   -0.103642
    14  C   -0.112299
 Sum of Mulliken charges with hydrogens summed into heavy atoms =   0.00000
 Electronic spatial extent (au):  <R**2>=           4164.7870
 Charge=              0.0000 electrons
 Dipole moment (field-independent basis, Debye):
    X=              0.0000    Y=              0.1651    Z=              0.0000  Tot=              0.1651
 Quadrupole moment (field-independent basis, Debye-Ang):
   XX=           -110.3088   YY=           -110.5336   ZZ=           -110.0728
   XY=              0.0000   XZ=             -0.3941   YZ=              0.0000
 Traceless Quadrupole moment (field-independent basis, Debye-Ang):
   XX=             -0.0038   YY=             -0.2285   ZZ=              0.2323
   XY=              0.0000   XZ=             -0.3941   YZ=              0.0000
 Octapole moment (field-independent basis, Debye-Ang**2):
  XXX=             -0.0010  YYY=             13.5233  ZZZ=             -0.0005  XYY=              0.0006
  XXY=             -3.1991  XXZ=              0.0000  XZZ=              0.0004  YZZ=             -3.2465
  YYZ=              0.0009  XYZ=              2.0933
 Hexadecapole moment (field-independent basis, Debye-Ang**3):
 XXXX=          -3491.0666 YYYY=          -1628.7914 ZZZZ=           -914.7334 XXXY=              0.0011
 XXXZ=            -45.1780 YYYX=             -0.0016 YYYZ=              0.0003 ZZZX=              5.6286
 ZZZY=             -0.0008 XXYY=           -841.5433 XXZZ=           -777.5506 YYZZ=           -409.5903
 XXYZ=              0.0011 YYXZ=              8.4988 ZZXY=              0.0026
 N-N= 1.245852525690D+03 E-N=-4.965670083038D+03  KE= 1.047987417091D+03
 1\1\GINC-ROCK\SP\RMP2-FC\CC-pVTZ\C12H28Si2\STYLIANAKIS\27-Sep-2016\0\\
 # mp2/cc-pVTZ\\BisSiMe3_cycl_diaxial_sp_single_point\\0,1\C\C,1,1.5350
 69\C,2,1.535977,1,110.944\C,3,1.551043,2,113.685,1,55.174,0\C,4,1.5671
 ,3,111.777,2,-50.993,0\C,5,1.551033,4,111.775,3,47.75,0\Si,4,1.924692,
 3,115.26,2,81.819,0\C,7,1.899055,4,107.517,3,162.291,0\Si,5,1.924696,4
 ,114.357,3,-85.505,0\C,9,1.899055,5,107.517,4,-66.108,0\C,7,1.899245,4
 ,115.801,3,-77.469,0\C,7,1.89876,4,109.202,3,45.04,0\C,9,1.899245,5,11
 5.802,4,54.131,0\C,9,1.89876,5,109.202,4,176.64,0\H,3,1.096727,4,110.0
 99,5,-174.994,0\H,3,1.09854,4,109.196,5,69.332,0\H,4,1.103566,3,106.11
 8,2,-168.42,0\H,5,1.103568,4,107.937,3,164.082,0\H,2,1.09889,3,110.137
 ,4,-65.782,0\H,2,1.097374,3,109.712,4,177.407,0\H,6,1.096729,5,110.101
 ,4,-175.007,0\H,6,1.098538,5,109.195,4,69.317,0\H,1,1.098886,2,109.146
 ,3,65.551,0\H,1,1.097376,2,110.388,3,-177.826,0\H,11,1.097218,7,109.41
 7,4,-179.972,0\H,11,1.095448,7,111.989,4,-61.104,0\H,11,1.095076,7,112
 .567,4,60.551,0\H,12,1.096625,7,110.346,4,170.827,0\H,12,1.095753,7,11
 2.012,4,-69.518,0\H,12,1.096524,7,111.67,4,51.334,0\H,8,1.096489,7,110
 .54,4,-178.082,0\H,8,1.096299,7,111.529,4,-58.442,0\H,8,1.096091,7,112
 .035,4,62.229,0\H,13,1.097218,9,109.417,5,-179.968,0\H,13,1.095449,9,1
 11.989,5,-61.1,0\H,13,1.095075,9,112.568,5,60.556,0\H,14,1.096625,9,11
 0.347,5,170.828,0\H,14,1.095754,9,112.011,5,-69.516,0\H,14,1.096523,9,
 111.67,5,51.335,0\H,10,1.096489,9,110.54,5,-178.079,0\H,10,1.096298,9,
 111.53,5,-58.439,0\H,10,1.096091,9,112.035,5,62.232,0\\Version=EM64L-G
 09RevA.01\State=1-A\HF=-1048.8425331\MP2=-1051.212463\RMSD=3.729e-09\P
 G=C01 [X(C12H28Si2)]\\@


 WE HAVE SEEN THAT MAN ON THE AVERAGE DOES NOT LIVE ABOVE
 TWO-AND-TWENTY YEARS.  DURING THESE TWO AND TWENTY
 YEARS HE IS LIABLE TO TWO AND TWENTY THOUSAND EVILS,
 MANY OF WHICH ARE INCURABLE.  YET EVEN IN THIS DREADFUL STATE
 MEN STILL STRUT AND POSE ON THE STAGE OF LIFE.
 THEY MAKE LOVE AT THE RISK OF DESTRUCTION,
 INTRIGUE, CARRY ON WAR, AND FORM PROJECTS, JUST AS IF THEY
 WERE TO LIVE IN LUXURY AND HAPPINESS FOR A THOUSAND
 AGES.

                                              -- VOLTAIRE
 Job cpu time:  2 days  1 hours  7 minutes  1.9 seconds.
 File lengths (MBytes):  RWF= 233974 Int=      0 D2E=      0 Chk=     29 Scr=      1
 Normal termination of Gaussian 09 at Tue Sep 27 06:25:07 2016.
