 Entering Gaussian System, Link 0=g09
 Input=cyclohexylmethylketone-eq.gjf
 Output=cyclohexylmethylketone-eq.out
 Initial command:
 /usr/local/g09/l1.exe /home/scratch/stylianakis/Gau-28753.inp -scrdir=/home/scratch/stylianakis/
 Entering Link 1 = /usr/local/g09/l1.exe PID=     28754.
  
 Copyright (c) 1988,1990,1992,1993,1995,1998,2003,2009, Gaussian, Inc.
                  All Rights Reserved.
  
 This is part of the Gaussian(R) 09 program.  It is based on
 the Gaussian(R) 03 system (copyright 2003, Gaussian, Inc.),
 the Gaussian(R) 98 system (copyright 1998, Gaussian, Inc.),
 the Gaussian(R) 94 system (copyright 1995, Gaussian, Inc.),
 the Gaussian 92(TM) system (copyright 1992, Gaussian, Inc.),
 the Gaussian 90(TM) system (copyright 1990, Gaussian, Inc.),
 the Gaussian 88(TM) system (copyright 1988, Gaussian, Inc.),
 the Gaussian 86(TM) system (copyright 1986, Carnegie Mellon
 University), and the Gaussian 82(TM) system (copyright 1983,
 Carnegie Mellon University). Gaussian is a federally registered
 trademark of Gaussian, Inc.
  
 This software contains proprietary and confidential information,
 including trade secrets, belonging to Gaussian, Inc.
  
 This software is provided under written license and may be
 used, copied, transmitted, or stored only in accord with that
 written license.
  
 The following legend is applicable only to US Government
 contracts under FAR:
  
                    RESTRICTED RIGHTS LEGEND
  
 Use, reproduction and disclosure by the US Government is
 subject to restrictions as set forth in subparagraphs (a)
 and (c) of the Commercial Computer Software - Restricted
 Rights clause in FAR 52.227-19.
  
 Gaussian, Inc.
 340 Quinnipiac St., Bldg. 40, Wallingford CT 06492
  
  
 ---------------------------------------------------------------
 Warning -- This program may not be used in any manner that
 competes with the business of Gaussian, Inc. or will provide
 assistance to any competitor of Gaussian, Inc.  The licensee
 of this program is prohibited from giving any competitor of
 Gaussian, Inc. access to this program.  By using this program,
 the user acknowledges that Gaussian, Inc. is engaged in the
 business of creating and licensing software in the field of
 computational chemistry and represents and warrants to the
 licensee that it is not a competitor of Gaussian, Inc. and that
 it will not use this program in any manner prohibited above.
 ---------------------------------------------------------------
  

 Cite this work as:
 Gaussian 09, Revision A.01,
 M. J. Frisch, G. W. Trucks, H. B. Schlegel, G. E. Scuseria, 
 M. A. Robb, J. R. Cheeseman, G. Scalmani, V. Barone, B. Mennucci, 
 G. A. Petersson, H. Nakatsuji, M. Caricato, X. Li, H. P. Hratchian, 
 A. F. Izmaylov, J. Bloino, G. Zheng, J. L. Sonnenberg, M. Hada, 
 M. Ehara, K. Toyota, R. Fukuda, J. Hasegawa, M. Ishida, T. Nakajima, 
 Y. Honda, O. Kitao, H. Nakai, T. Vreven, J. A. Montgomery, Jr., 
 J. E. Peralta, F. Ogliaro, M. Bearpark, J. J. Heyd, E. Brothers, 
 K. N. Kudin, V. N. Staroverov, R. Kobayashi, J. Normand, 
 K. Raghavachari, A. Rendell, J. C. Burant, S. S. Iyengar, J. Tomasi, 
 M. Cossi, N. Rega, J. M. Millam, M. Klene, J. E. Knox, J. B. Cross, 
 V. Bakken, C. Adamo, J. Jaramillo, R. Gomperts, R. E. Stratmann, 
 O. Yazyev, A. J. Austin, R. Cammi, C. Pomelli, J. W. Ochterski, 
 R. L. Martin, K. Morokuma, V. G. Zakrzewski, G. A. Voth, 
 P. Salvador, J. J. Dannenberg, S. Dapprich, A. D. Daniels, 
 O. Farkas, J. B. Foresman, J. V. Ortiz, J. Cioslowski, 
 and D. J. Fox, Gaussian, Inc., Wallingford CT, 2009.
 
 ******************************************
 Gaussian 09:  EM64L-G09RevA.01  8-May-2009
                 2-Mar-2016 
 ******************************************
 %mem=8000Mb
 %nproc=4
 Will use up to    4 processors via shared memory.
 -------------
 # mp2/cc-pVTZ
 -------------
 1/38=1/1;
 2/12=2,17=6,18=5,40=1/2;
 3/5=16,6=1,11=9,16=1,25=1,30=1/1,2,3;
 4//1;
 5/5=2,38=5/2;
 8/10=1/1;
 9/16=-3/6;
 6/7=2,8=2,9=2,10=2/1;
 99/5=1,9=1/99;
 --------------------------------------
 cyclohexylmethylketone-eq_single_point
 --------------------------------------
 Symbolic Z-matrix:
 Charge =  0 Multiplicity = 1
 c
 c                    1    cc2
 c                    2    cc3      1    ccc3
 c                    3    cc4      2    ccc4     1    dih4     0
 c                    4    cc5      3    ccc5     2    dih5     0
 c                    5    cc6      4    ccc6     3    dih6     0
 c                    2    cc7      3    ccc7     4    dih7     0
 o                    7    oc8      2    occ8     3    dih8     0
 c                    7    cc9      2    ccc9     3    dih9     0
 h                    3    hc10     4    hcc10    5    dih10    0
 h                    3    hc11     4    hcc11    5    dih11    0
 h                    4    hc12     3    hcc12    2    dih12    0
 h                    4    hc13     3    hcc13    2    dih13    0
 h                    5    hc14     4    hcc14    3    dih14    0
 h                    5    hc15     4    hcc15    3    dih15    0
 h                    2    hc16     3    hcc16    4    dih16    0
 h                    6    hc17     5    hcc17    4    dih17    0
 h                    6    hc18     5    hcc18    4    dih18    0
 h                    1    hc19     2    hcc19    3    dih19    0
 h                    1    hc20     2    hcc20    3    dih20    0
 h                    9    hc21     7    hcc21    2    dih21    0
 h                    9    hc22     7    hcc22    2    dih22    0
 h                    9    hc23     7    hcc23    2    dih23    0
       Variables:
  cc2                   1.53616                  
  cc3                   1.55114                  
  ccc3                110.988                    
  cc4                   1.53737                  
  ccc4                111.456                    
  dih4                 54.364                    
  cc5                   1.53597                  
  ccc5                111.858                    
  dih5                -54.473                    
  cc6                   1.53629                  
  ccc6                111.254                    
  dih6                 54.529                    
  cc7                   1.52887                  
  ccc7                111.056                    
  dih7               -179.651                    
  oc8                   1.22031                  
  occ8                121.941                    
  dih8               -118.065                    
  cc9                   1.52162                  
  ccc9                117.562                    
  dih9                 61.091                    
  hc10                  1.09605                  
  hcc10               109.774                    
  dih10              -177.337                    
  hc11                  1.09953                  
  hcc11               109.403                    
  dih11                65.724                    
  hc12                  1.097                    
  hcc12               109.618                    
  dih12              -177.307                    
  hc13                  1.09984                  
  hcc13               109.013                    
  dih13                66.433                    
  hc14                  1.09972                  
  hcc14               109.181                    
  dih14               -66.055                    
  hc15                  1.09691                  
  hcc15               110.122                    
  dih15               177.272                    
  hc16                  1.10323                  
  hcc16               106.915                    
  dih16               -64.292                    
  hc17                  1.09678                  
  hcc17               110.235                    
  dih17              -177.06                     
  hc18                  1.10026                  
  hcc18               109.184                    
  dih18                66.445                    
  hc19                  1.09726                  
  hcc19               108.752                    
  dih19                66.575                    
  hc20                  1.09532                  
  hcc20               109.75                     
  dih20              -177.927                    
  hc21                  1.09168                  
  hcc21               109.377                    
  dih21               158.661                    
  hc22                  1.09694                  
  hcc22               109.331                    
  dih22               -83.098                    
  hc23                  1.09465                  
  hcc23               112.203                    
  dih23                35.934                    
 
                          Input orientation:                          
 ---------------------------------------------------------------------
 Center     Atomic      Atomic             Coordinates (Angstroms)
 Number     Number       Type             X           Y           Z
 ---------------------------------------------------------------------
      1          6           0        0.000000    0.000000    0.000000
      2          6           0        0.000000    0.000000    1.536158
      3          6           0        1.448230    0.000000    2.091734
      4          6           0        2.271860    1.162883    1.514811
      5          6           0        2.259371    1.165748   -0.021108
      6          6           0        0.823091    1.167166   -0.566357
      7          6           0       -0.813120   -1.154512    2.122138
      8          8           0       -1.279310   -2.037311    1.420355
      9          6           0       -1.010929   -1.181930    3.630600
     10          1           0        1.441006    0.057894    3.186227
     11          1           0        1.926914   -0.953614    1.826323
     12          1           0        3.301441    1.106340    1.889217
     13          1           0        1.856840    2.112824    1.882267
     14          1           0        2.784642    0.272107   -0.388377
     15          1           0        2.813600    2.032603   -0.401370
     16          1           0       -0.480986    0.926216    1.893773
     17          1           0        0.833183    1.116422   -1.661912
     18          1           0        0.337959    2.119388   -0.304658
     19          1           0        0.413060   -0.953384   -0.352740
     20          1           0       -1.030216    0.037290   -0.370128
     21          1           0       -1.881940   -1.794717    3.870604
     22          1           0       -0.132205   -1.637085    4.103839
     23          1           0       -1.125689   -0.177789    4.051069
 ---------------------------------------------------------------------
                    Distance matrix (angstroms):
                    1          2          3          4          5
     1  C    0.000000
     2  C    1.536158   0.000000
     3  C    2.544154   1.551140   0.000000
     4  C    2.967878   2.552274   1.537369   0.000000
     5  C    2.542473   2.981410   2.545785   1.535973   0.000000
     6  C    1.536397   2.541717   2.969600   2.535787   1.536294
     7  C    2.549026   1.528867   2.539198   3.905927   4.406508
     8  O    2.793685   2.408460   3.469994   4.781315   4.985947
     9  C    3.949708   2.608759   3.132496   4.555372   5.435202
    10  H    3.497412   2.191478   1.096047   2.169090   3.490567
    11  H    2.820963   2.169464   1.099527   2.166930   2.831117
    12  H    3.961394   3.499736   2.167808   1.097002   2.176874
    13  H    3.384495   2.834021   2.162143   1.099842   2.163751
    14  H    2.824732   3.395896   2.830369   2.162996   1.099723
    15  H    3.494127   3.975153   3.494464   2.172935   1.096908
    16  H    2.162313   1.103228   2.149172   2.788868   3.351671
    17  H    2.168535   3.488301   3.964157   3.487624   2.174554
    18  H    2.167681   2.827477   3.386325   2.822294   2.163712
    19  H    1.097262   2.155804   2.820632   3.379567   2.830117
    20  H    1.095322   2.167178   3.493544   3.965307   3.495227
    21  H    4.663077   3.494617   4.180362   5.617047   6.407826
    22  H    4.420296   3.048034   3.037498   4.508039   5.530886
    23  H    4.208318   2.761079   3.239701   4.446723   5.463181
                    6          7          8          9         10
     6  C    0.000000
     7  C    3.910931   0.000000
     8  O    4.316919   1.220314   0.000000
     9  C    5.147458   1.521623   2.385138   0.000000
    10  H    3.961589   2.771876   3.861127   2.783275   0.000000
    11  H    3.382462   2.763268   3.408677   3.455208   1.763120
    12  H    3.489379   4.700565   5.575450   5.183158   2.498538
    13  H    2.821111   4.226312   5.222300   4.704910   2.469001
    14  H    2.163445   4.613222   5.012048   5.716009   3.824792
    15  H    2.176771   5.447834   6.052669   6.420049   4.319067
    16  H    2.794801   2.119409   3.105469   2.782389   2.473555
    17  H    1.096776   4.710254   4.889686   6.057545   4.999438
    18  H    1.100257   4.234707   4.782194   5.310787   4.201517
    19  H    2.170366   2.769294   2.680089   4.236386   3.821471
    20  H    2.179420   2.771085   2.751699   4.182426   4.330707
    21  H    5.981352   2.146945   2.534904   1.091682   3.865554
    22  H    5.530565   2.150270   2.945695   1.096940   2.487963
    23  H    5.189149   2.184596   3.225225   1.094652   2.718717
                   11         12         13         14         15
    11  H    0.000000
    12  H    2.477234   0.000000
    13  H    3.067748   1.760662   0.000000
    14  H    2.672636   2.480012   3.066737   0.000000
    15  H    3.829663   2.518480   2.477261   1.760782   0.000000
    16  H    3.055534   3.786716   2.621755   4.037374   4.164861
    17  H    4.201081   4.324687   3.821243   2.478499   2.520002
    18  H    4.063151   3.823817   2.662646   3.066874   2.479049
    19  H    2.653313   4.196615   4.059727   2.669738   3.831589
    20  H    3.814565   5.001076   4.209064   3.822122   4.330956
    21  H    4.403851   6.261746   5.762017   6.647381   7.412573
    22  H    3.145502   4.921469   4.790981   5.686213   6.514698
    23  H    3.856136   5.091372   4.341209   5.933108   6.342558
                   16         17         18         19         20
    16  H    0.000000
    17  H    3.795538   0.000000
    18  H    2.632000   1.758785   0.000000
    19  H    3.062520   2.484861   3.074065   0.000000
    20  H    2.493409   2.511073   2.492253   1.750652   0.000000
    21  H    3.643352   6.815817   6.138484   4.879703   4.697392
    22  H    3.402434   6.462017   5.810937   4.541570   4.860693
    23  H    2.507668   6.176594   5.137280   4.728934   4.427454
                   21         22         23
    21  H    0.000000
    22  H    1.772235   0.000000
    23  H    1.794140   1.766165   0.000000
 Stoichiometry    C8H14O
 Framework group  C1[X(C8H14O)]
 Deg. of freedom    63
 Full point group                 C1      NOp   1
 Largest Abelian subgroup         C1      NOp   1
 Largest concise Abelian subgroup C1      NOp   1
                         Standard orientation:                         
 ---------------------------------------------------------------------
 Center     Atomic      Atomic             Coordinates (Angstroms)
 Number     Number       Type             X           Y           Z
 ---------------------------------------------------------------------
      1          6           0       -0.476377   -1.307798    0.063067
      2          6           0        0.348963   -0.043671    0.346930
      3          6           0       -0.258019    1.189283   -0.372398
      4          6           0       -1.741203    1.375978   -0.013491
      5          6           0       -2.560228    0.105900   -0.287924
      6          6           0       -1.955971   -1.111886    0.427668
      7          6           0        1.825704   -0.215697   -0.009551
      8          8           0        2.239844   -1.210139   -0.582910
      9          6           0        2.775360    0.914485    0.359470
     10          1           0        0.301771    2.097053   -0.119599
     11          1           0       -0.160106    1.046658   -1.458230
     12          1           0       -2.151764    2.224879   -0.574044
     13          1           0       -1.822015    1.635984    1.052116
     14          1           0       -2.580117   -0.084230   -1.370904
     15          1           0       -3.601744    0.254051    0.022724
     16          1           0        0.317537    0.168407    1.429126
     17          1           0       -2.522172   -2.017640    0.178782
     18          1           0       -2.051059   -0.976033    1.515357
     19          1           0       -0.384484   -1.557395   -1.001471
     20          1           0       -0.052222   -2.157166    0.609324
     21          1           0        3.795764    0.529351    0.406546
     22          1           0        2.737857    1.688408   -0.417006
     23          1           0        2.504619    1.389220    1.307936
 ---------------------------------------------------------------------
 Rotational constants (GHZ):      3.0437816      1.0694978      0.8634187
 Standard basis: CC-pVTZ (5D, 7F)
 There are   466 symmetry adapted basis functions of A   symmetry.
 Integral buffers will be    131072 words long.
 Raffenetti 1 integral format.
 Two-electron integral symmetry is turned on.
   466 basis functions,   706 primitive gaussians,   525 cartesian basis functions
    35 alpha electrons       35 beta electrons
       nuclear repulsion energy       468.5257013854 Hartrees.
 NAtoms=   23 NActive=   23 NUniq=   23 SFac= 7.50D-01 NAtFMM=   80 NAOKFM=F Big=F
 One-electron integrals computed using PRISM.
 NBasis=   466 RedAO= T  NBF=   466
 NBsUse=   466 1.00D-06 NBFU=   466
 Harris functional with IExCor=  205 diagonalized for initial guess.
 ExpMin= 1.03D-01 ExpMax= 1.53D+04 ExpMxC= 5.22D+02 IAcc=1 IRadAn=         1 AccDes= 0.00D+00
 HarFok:  IExCor=  205 AccDes= 0.00D+00 IRadAn=         1 IDoV= 1
 ScaDFX=  1.000000  1.000000  1.000000  1.000000
 FoFCou: FMM=F IPFlag=           0 FMFlag=      100000 FMFlg1=           0
         NFxFlg=           0 DoJE=T BraDBF=F KetDBF=T FulRan=T
         Omega=  0.000000  0.000000  1.000000  0.000000  0.000000 ICntrl=     500 IOpCl=  0
         NMat0=    1 NMatS0=    1 NMatT0=    0 NMatD0=    1 NMtDS0=    0 NMtDT0=    0
         I1Cent=           4 NGrid=           0.
 Petite list used in FoFCou.
 Initial guess orbital symmetries:
       Occupied  (A) (A) (A) (A) (A) (A) (A) (A) (A) (A) (A) (A)
                 (A) (A) (A) (A) (A) (A) (A) (A) (A) (A) (A) (A)
                 (A) (A) (A) (A) (A) (A) (A) (A) (A) (A) (A)
       Virtual   (A) (A) (A) (A) (A) (A) (A) (A) (A) (A) (A) (A)
                 (A) (A) (A) (A) (A) (A) (A) (A) (A) (A) (A) (A)
                 (A) (A) (A) (A) (A) (A) (A) (A) (A) (A) (A) (A)
                 (A) (A) (A) (A) (A) (A) (A) (A) (A) (A) (A) (A)
                 (A) (A) (A) (A) (A) (A) (A) (A) (A) (A) (A) (A)
                 (A) (A) (A) (A) (A) (A) (A) (A) (A) (A) (A) (A)
                 (A) (A) (A) (A) (A) (A) (A) (A) (A) (A) (A) (A)
                 (A) (A) (A) (A) (A) (A) (A) (A) (A) (A) (A) (A)
                 (A) (A) (A) (A) (A) (A) (A) (A) (A) (A) (A) (A)
                 (A) (A) (A) (A) (A) (A) (A) (A) (A) (A) (A) (A)
                 (A) (A) (A) (A) (A) (A) (A) (A) (A) (A) (A) (A)
                 (A) (A) (A) (A) (A) (A) (A) (A) (A) (A) (A) (A)
                 (A) (A) (A) (A) (A) (A) (A) (A) (A) (A) (A) (A)
                 (A) (A) (A) (A) (A) (A) (A) (A) (A) (A) (A) (A)
                 (A) (A) (A) (A) (A) (A) (A) (A) (A) (A) (A) (A)
                 (A) (A) (A) (A) (A) (A) (A) (A) (A) (A) (A) (A)
                 (A) (A) (A) (A) (A) (A) (A) (A) (A) (A) (A) (A)
                 (A) (A) (A) (A) (A) (A) (A) (A) (A) (A) (A) (A)
                 (A) (A) (A) (A) (A) (A) (A) (A) (A) (A) (A) (A)
                 (A) (A) (A) (A) (A) (A) (A) (A) (A) (A) (A) (A)
                 (A) (A) (A) (A) (A) (A) (A) (A) (A) (A) (A) (A)
                 (A) (A) (A) (A) (A) (A) (A) (A) (A) (A) (A) (A)
                 (A) (A) (A) (A) (A) (A) (A) (A) (A) (A) (A) (A)
                 (A) (A) (A) (A) (A) (A) (A) (A) (A) (A) (A) (A)
                 (A) (A) (A) (A) (A) (A) (A) (A) (A) (A) (A) (A)
                 (A) (A) (A) (A) (A) (A) (A) (A) (A) (A) (A) (A)
                 (A) (A) (A) (A) (A) (A) (A) (A) (A) (A) (A) (A)
                 (A) (A) (A) (A) (A) (A) (A) (A) (A) (A) (A) (A)
                 (A) (A) (A) (A) (A) (A) (A) (A) (A) (A) (A) (A)
                 (A) (A) (A) (A) (A) (A) (A) (A) (A) (A) (A) (A)
                 (A) (A) (A) (A) (A) (A) (A) (A) (A) (A) (A) (A)
                 (A) (A) (A) (A) (A) (A) (A) (A) (A) (A) (A) (A)
                 (A) (A) (A) (A) (A) (A) (A) (A) (A) (A) (A) (A)
                 (A) (A) (A) (A) (A) (A) (A) (A) (A) (A) (A) (A)
                 (A) (A) (A) (A) (A) (A) (A) (A) (A) (A) (A) (A)
                 (A) (A) (A) (A) (A) (A) (A) (A) (A) (A) (A)
 The electronic state of the initial guess is 1-A.
 Requested convergence on RMS density matrix=1.00D-08 within 128 cycles.
 Requested convergence on MAX density matrix=1.00D-06.
 Requested convergence on             energy=1.00D-06.
 No special actions if energy rises.
 Integral accuracy reduced to 1.0D-05 until final iterations.
 Initial convergence to 1.0D-05 achieved.  Increase integral accuracy.
 SCF Done:  E(RHF) =  -386.104644620     A.U. after   13 cycles
             Convg  =    0.7898D-08             -V/T =  2.0018
 ExpMin= 1.03D-01 ExpMax= 1.53D+04 ExpMxC= 5.22D+02 IAcc=1 IRadAn=         1 AccDes= 0.00D+00
 HarFok:  IExCor=  205 AccDes= 0.00D+00 IRadAn=         1 IDoV=-2
 ScaDFX=  1.000000  1.000000  1.000000  1.000000
 Range of M.O.s used for correlation:    10   466
 NBasis=   466 NAE=    35 NBE=    35 NFC=     9 NFV=     0
 NROrb=    457 NOA=    26 NOB=    26 NVA=   431 NVB=   431

 **** Warning!!: The largest alpha MO coefficient is  0.11355529D+02

 Fully direct method using O(OVN) memory.
 JobTyp=1 Pass  1:  I=   1 to  26 NPSUse=  4 ParTrn=T ParDer=T DoDerP=F.
 Spin components of T(2) and E(2):
     alpha-alpha T2 =       0.6117712712D-01 E2=     -0.1878325261D+00
     alpha-beta  T2 =       0.3630860911D+00 E2=     -0.1218168409D+01
     beta-beta   T2 =       0.6117712712D-01 E2=     -0.1878325261D+00
 ANorm=    0.1218786423D+01
 E2 =    -0.1593833461D+01 EUMP2 =    -0.38769847808156D+03

 **********************************************************************

            Population analysis using the SCF density.

 **********************************************************************

 Orbital symmetries:
       Occupied  (A) (A) (A) (A) (A) (A) (A) (A) (A) (A) (A) (A)
                 (A) (A) (A) (A) (A) (A) (A) (A) (A) (A) (A) (A)
                 (A) (A) (A) (A) (A) (A) (A) (A) (A) (A) (A)
       Virtual   (A) (A) (A) (A) (A) (A) (A) (A) (A) (A) (A) (A)
                 (A) (A) (A) (A) (A) (A) (A) (A) (A) (A) (A) (A)
                 (A) (A) (A) (A) (A) (A) (A) (A) (A) (A) (A) (A)
                 (A) (A) (A) (A) (A) (A) (A) (A) (A) (A) (A) (A)
                 (A) (A) (A) (A) (A) (A) (A) (A) (A) (A) (A) (A)
                 (A) (A) (A) (A) (A) (A) (A) (A) (A) (A) (A) (A)
                 (A) (A) (A) (A) (A) (A) (A) (A) (A) (A) (A) (A)
                 (A) (A) (A) (A) (A) (A) (A) (A) (A) (A) (A) (A)
                 (A) (A) (A) (A) (A) (A) (A) (A) (A) (A) (A) (A)
                 (A) (A) (A) (A) (A) (A) (A) (A) (A) (A) (A) (A)
                 (A) (A) (A) (A) (A) (A) (A) (A) (A) (A) (A) (A)
                 (A) (A) (A) (A) (A) (A) (A) (A) (A) (A) (A) (A)
                 (A) (A) (A) (A) (A) (A) (A) (A) (A) (A) (A) (A)
                 (A) (A) (A) (A) (A) (A) (A) (A) (A) (A) (A) (A)
                 (A) (A) (A) (A) (A) (A) (A) (A) (A) (A) (A) (A)
                 (A) (A) (A) (A) (A) (A) (A) (A) (A) (A) (A) (A)
                 (A) (A) (A) (A) (A) (A) (A) (A) (A) (A) (A) (A)
                 (A) (A) (A) (A) (A) (A) (A) (A) (A) (A) (A) (A)
                 (A) (A) (A) (A) (A) (A) (A) (A) (A) (A) (A) (A)
                 (A) (A) (A) (A) (A) (A) (A) (A) (A) (A) (A) (A)
                 (A) (A) (A) (A) (A) (A) (A) (A) (A) (A) (A) (A)
                 (A) (A) (A) (A) (A) (A) (A) (A) (A) (A) (A) (A)
                 (A) (A) (A) (A) (A) (A) (A) (A) (A) (A) (A) (A)
                 (A) (A) (A) (A) (A) (A) (A) (A) (A) (A) (A) (A)
                 (A) (A) (A) (A) (A) (A) (A) (A) (A) (A) (A) (A)
                 (A) (A) (A) (A) (A) (A) (A) (A) (A) (A) (A) (A)
                 (A) (A) (A) (A) (A) (A) (A) (A) (A) (A) (A) (A)
                 (A) (A) (A) (A) (A) (A) (A) (A) (A) (A) (A) (A)
                 (A) (A) (A) (A) (A) (A) (A) (A) (A) (A) (A) (A)
                 (A) (A) (A) (A) (A) (A) (A) (A) (A) (A) (A) (A)
                 (A) (A) (A) (A) (A) (A) (A) (A) (A) (A) (A) (A)
                 (A) (A) (A) (A) (A) (A) (A) (A) (A) (A) (A) (A)
                 (A) (A) (A) (A) (A) (A) (A) (A) (A) (A) (A) (A)
                 (A) (A) (A) (A) (A) (A) (A) (A) (A) (A) (A) (A)
                 (A) (A) (A) (A) (A) (A) (A) (A) (A) (A) (A) (A)
                 (A) (A) (A) (A) (A) (A) (A) (A) (A) (A) (A)
 The electronic state is 1-A.
 Alpha  occ. eigenvalues --  -20.53845 -11.32585 -11.23980 -11.23405 -11.23284
 Alpha  occ. eigenvalues --  -11.22669 -11.22157 -11.22019 -11.21720  -1.37557
 Alpha  occ. eigenvalues --   -1.12341  -1.03633  -1.00729  -0.98628  -0.85948
 Alpha  occ. eigenvalues --   -0.83626  -0.76768  -0.72734  -0.66289  -0.63620
 Alpha  occ. eigenvalues --   -0.61702  -0.61296  -0.59765  -0.58642  -0.57614
 Alpha  occ. eigenvalues --   -0.54049  -0.53000  -0.51640  -0.49845  -0.48746
 Alpha  occ. eigenvalues --   -0.47611  -0.46105  -0.45318  -0.43368  -0.39771
 Alpha virt. eigenvalues --    0.12907   0.14451   0.14989   0.15582   0.16531
 Alpha virt. eigenvalues --    0.18795   0.19693   0.20794   0.21245   0.21755
 Alpha virt. eigenvalues --    0.22668   0.24260   0.24525   0.24635   0.25301
 Alpha virt. eigenvalues --    0.30293   0.31254   0.32666   0.34222   0.35303
 Alpha virt. eigenvalues --    0.36795   0.37862   0.38475   0.40018   0.41254
 Alpha virt. eigenvalues --    0.41741   0.43011   0.43607   0.46227   0.47952
 Alpha virt. eigenvalues --    0.48721   0.50050   0.51858   0.53330   0.55630
 Alpha virt. eigenvalues --    0.56668   0.57771   0.58321   0.59185   0.59823
 Alpha virt. eigenvalues --    0.60062   0.60845   0.61266   0.61377   0.62484
 Alpha virt. eigenvalues --    0.63528   0.63784   0.64298   0.65724   0.66229
 Alpha virt. eigenvalues --    0.67212   0.67745   0.68477   0.68859   0.69127
 Alpha virt. eigenvalues --    0.70922   0.71491   0.72963   0.73981   0.75143
 Alpha virt. eigenvalues --    0.76266   0.78849   0.80507   0.82114   0.84789
 Alpha virt. eigenvalues --    0.86351   0.86523   0.88316   0.91758   0.93963
 Alpha virt. eigenvalues --    0.95578   0.96421   0.97780   0.98293   1.00900
 Alpha virt. eigenvalues --    1.01636   1.02973   1.05185   1.06618   1.09045
 Alpha virt. eigenvalues --    1.09647   1.10368   1.12274   1.13212   1.13617
 Alpha virt. eigenvalues --    1.16206   1.16774   1.18339   1.19935   1.20449
 Alpha virt. eigenvalues --    1.22453   1.23455   1.23938   1.25755   1.28216
 Alpha virt. eigenvalues --    1.29001   1.29677   1.30642   1.31820   1.32264
 Alpha virt. eigenvalues --    1.32770   1.33415   1.34856   1.36126   1.36648
 Alpha virt. eigenvalues --    1.37679   1.38325   1.39713   1.40321   1.42110
 Alpha virt. eigenvalues --    1.42965   1.44629   1.45810   1.46763   1.47246
 Alpha virt. eigenvalues --    1.48155   1.49802   1.50470   1.51228   1.53707
 Alpha virt. eigenvalues --    1.54171   1.54371   1.54692   1.55906   1.57144
 Alpha virt. eigenvalues --    1.57732   1.60872   1.61448   1.62350   1.63379
 Alpha virt. eigenvalues --    1.64922   1.66233   1.66947   1.67155   1.69412
 Alpha virt. eigenvalues --    1.70546   1.70904   1.72839   1.73875   1.74730
 Alpha virt. eigenvalues --    1.75588   1.79640   1.80534   1.83037   1.84731
 Alpha virt. eigenvalues --    1.86939   1.88289   1.90081   1.91103   1.92569
 Alpha virt. eigenvalues --    1.97166   2.02661   2.06400   2.07178   2.08006
 Alpha virt. eigenvalues --    2.09761   2.15387   2.22973   2.33010   2.45579
 Alpha virt. eigenvalues --    2.48716   2.52816   2.54902   2.59542   2.60611
 Alpha virt. eigenvalues --    2.62642   2.65551   2.66641   2.70147   2.70618
 Alpha virt. eigenvalues --    2.72754   2.76431   2.79688   2.79854   2.80360
 Alpha virt. eigenvalues --    2.82784   2.83260   2.84466   2.84941   2.85930
 Alpha virt. eigenvalues --    2.86734   2.88646   2.89442   2.90042   2.92787
 Alpha virt. eigenvalues --    2.94815   2.95003   2.95424   2.96115   2.97902
 Alpha virt. eigenvalues --    2.98192   3.00169   3.01825   3.02323   3.02940
 Alpha virt. eigenvalues --    3.04711   3.06550   3.07971   3.08521   3.09322
 Alpha virt. eigenvalues --    3.12603   3.13810   3.16978   3.18097   3.19708
 Alpha virt. eigenvalues --    3.20115   3.21488   3.22652   3.23781   3.25152
 Alpha virt. eigenvalues --    3.26020   3.26922   3.29511   3.30443   3.31956
 Alpha virt. eigenvalues --    3.32849   3.33602   3.35097   3.36824   3.38089
 Alpha virt. eigenvalues --    3.40952   3.41202   3.42319   3.42782   3.43262
 Alpha virt. eigenvalues --    3.43986   3.44721   3.45835   3.46360   3.46978
 Alpha virt. eigenvalues --    3.47859   3.48040   3.50244   3.50890   3.51161
 Alpha virt. eigenvalues --    3.52502   3.52707   3.54161   3.55825   3.57341
 Alpha virt. eigenvalues --    3.58347   3.59239   3.61099   3.61854   3.63368
 Alpha virt. eigenvalues --    3.64149   3.64940   3.65938   3.67422   3.68339
 Alpha virt. eigenvalues --    3.70960   3.71492   3.74084   3.74903   3.76714
 Alpha virt. eigenvalues --    3.78118   3.78691   3.80010   3.81725   3.82883
 Alpha virt. eigenvalues --    3.83810   3.84224   3.85976   3.86794   3.88433
 Alpha virt. eigenvalues --    3.89354   3.90359   3.92964   3.93377   3.97015
 Alpha virt. eigenvalues --    3.97911   3.98583   3.99132   4.00573   4.01876
 Alpha virt. eigenvalues --    4.03083   4.04095   4.05357   4.07405   4.08035
 Alpha virt. eigenvalues --    4.08520   4.10089   4.10370   4.11344   4.13567
 Alpha virt. eigenvalues --    4.14749   4.15604   4.17190   4.19567   4.21307
 Alpha virt. eigenvalues --    4.22606   4.24529   4.25634   4.26267   4.27037
 Alpha virt. eigenvalues --    4.27400   4.28273   4.31627   4.32290   4.32992
 Alpha virt. eigenvalues --    4.34470   4.35124   4.36358   4.36645   4.37454
 Alpha virt. eigenvalues --    4.37803   4.38935   4.40665   4.40924   4.42452
 Alpha virt. eigenvalues --    4.43737   4.45413   4.46810   4.47302   4.49921
 Alpha virt. eigenvalues --    4.50772   4.52459   4.53508   4.53877   4.54608
 Alpha virt. eigenvalues --    4.55878   4.57467   4.58025   4.59486   4.60488
 Alpha virt. eigenvalues --    4.62306   4.63756   4.64756   4.66811   4.67610
 Alpha virt. eigenvalues --    4.68540   4.69832   4.70398   4.73273   4.73739
 Alpha virt. eigenvalues --    4.75852   4.76936   4.80345   4.81869   4.83821
 Alpha virt. eigenvalues --    4.86541   4.89087   4.89952   4.92486   4.96904
 Alpha virt. eigenvalues --    4.97534   4.98261   5.00567   5.03234   5.04775
 Alpha virt. eigenvalues --    5.05794   5.10119   5.13138   5.14468   5.17023
 Alpha virt. eigenvalues --    5.17746   5.18114   5.20927   5.21826   5.23282
 Alpha virt. eigenvalues --    5.26103   5.28096   5.32470   5.33113   5.34090
 Alpha virt. eigenvalues --    5.34570   5.36363   5.37065   5.39585   5.41144
 Alpha virt. eigenvalues --    5.42256   5.42702   5.43452   5.44384   5.47379
 Alpha virt. eigenvalues --    5.49694   5.52060   5.52637   5.52998   5.59577
 Alpha virt. eigenvalues --    5.61077   5.62386   5.62676   5.63463   5.64086
 Alpha virt. eigenvalues --    5.67893   5.68344   5.71220   5.72991   5.75428
 Alpha virt. eigenvalues --    5.77573   5.79027   5.81186   5.83118   5.83301
 Alpha virt. eigenvalues --    5.84634   5.88384   5.89009   5.90625   5.94445
 Alpha virt. eigenvalues --    5.97397   6.01177   6.07519   6.12221   6.13190
 Alpha virt. eigenvalues --    6.16904   6.23465   6.26435   6.27466   6.37348
 Alpha virt. eigenvalues --    6.38312   6.44364   6.47290   6.48944   6.71975
 Alpha virt. eigenvalues --    6.76969   6.94431   7.02993   7.11259   7.38247
 Alpha virt. eigenvalues --    7.58426   7.59021   9.92262  12.39442  12.87479
 Alpha virt. eigenvalues --   13.23543  13.49530  13.55792  13.59610  13.81054
 Alpha virt. eigenvalues --   14.17129
          Condensed to atoms (all electrons):
              1          2          3          4          5          6
     1  C    4.876932   0.300114  -0.033236  -0.002071  -0.040296   0.340931
     2  C    0.300114   5.345644   0.301892  -0.032677  -0.002760  -0.039711
     3  C   -0.033236   0.301892   4.919971   0.347345  -0.042925  -0.001945
     4  C   -0.002071  -0.032677   0.347345   4.863470   0.348125  -0.040581
     5  C   -0.040296  -0.002760  -0.042925   0.348125   4.871092   0.339845
     6  C    0.340931  -0.039711  -0.001945  -0.040581   0.339845   4.892240
     7  C   -0.049261   0.207015  -0.023586  -0.000995  -0.000978   0.005064
     8  O    0.013597  -0.123546   0.004475  -0.000143  -0.000149   0.001454
     9  C    0.009181  -0.113007   0.000914   0.000027  -0.000046  -0.000001
    10  H    0.005342  -0.035840   0.437078  -0.037751   0.005829  -0.000846
    11  H    0.001052  -0.046717   0.414812  -0.030600  -0.002260   0.000011
    12  H   -0.001074   0.006352  -0.037820   0.437345  -0.035590   0.006128
    13  H    0.000548  -0.002118  -0.041100   0.422196  -0.038641  -0.002171
    14  H   -0.000864  -0.000074  -0.001478  -0.039632   0.422290  -0.038836
    15  H    0.006198  -0.000833   0.006549  -0.037672   0.437370  -0.036704
    16  H   -0.022997   0.388386  -0.035256  -0.001591  -0.000087  -0.002219
    17  H   -0.039954   0.006385  -0.001013   0.006389  -0.035615   0.438704
    18  H   -0.037496  -0.001932   0.000668  -0.002837  -0.040201   0.418738
    19  H    0.423521  -0.039885  -0.001647  -0.000315  -0.002055  -0.039180
    20  H    0.435541  -0.038091   0.005768  -0.000869   0.005827  -0.039181
    21  H   -0.000513   0.009253  -0.000019   0.000013   0.000002   0.000003
    22  H   -0.000504   0.002109  -0.000501   0.000384  -0.000004  -0.000004
    23  H   -0.000238   0.019448  -0.003232   0.000085  -0.000011  -0.000017
              7          8          9         10         11         12
     1  C   -0.049261   0.013597   0.009181   0.005342   0.001052  -0.001074
     2  C    0.207015  -0.123546  -0.113007  -0.035840  -0.046717   0.006352
     3  C   -0.023586   0.004475   0.000914   0.437078   0.414812  -0.037820
     4  C   -0.000995  -0.000143   0.000027  -0.037751  -0.030600   0.437345
     5  C   -0.000978  -0.000149  -0.000046   0.005829  -0.002260  -0.035590
     6  C    0.005064   0.001454  -0.000001  -0.000846   0.000011   0.006128
     7  C    4.603598   0.710014   0.401726  -0.004284   0.002644  -0.000051
     8  O    0.710014   7.816192  -0.073038   0.000243   0.001031   0.000004
     9  C    0.401726  -0.073038   4.866588   0.000507  -0.000688   0.000016
    10  H   -0.004284   0.000243   0.000507   0.560183  -0.028914  -0.004898
    11  H    0.002644   0.001031  -0.000688  -0.028914   0.573568  -0.005014
    12  H   -0.000051   0.000004   0.000016  -0.004898  -0.005014   0.562356
    13  H    0.000225  -0.000001   0.000002  -0.004786   0.006440  -0.030504
    14  H    0.000064  -0.000004   0.000009  -0.000089   0.001492  -0.004651
    15  H    0.000036  -0.000002  -0.000001  -0.000258  -0.000130  -0.004659
    16  H   -0.012987   0.001663  -0.002363  -0.003146   0.006474  -0.000061
    17  H   -0.000198  -0.000001   0.000011   0.000094  -0.000090  -0.000292
    18  H    0.000059  -0.000015  -0.000007  -0.000091   0.000032  -0.000101
    19  H   -0.001130   0.005968   0.000443   0.000035   0.002183  -0.000098
    20  H   -0.001611   0.005217   0.000379  -0.000269  -0.000161   0.000094
    21  H   -0.036901   0.004602   0.412290   0.000116  -0.000090  -0.000001
    22  H   -0.024400   0.000551   0.396621  -0.003887   0.000016  -0.000018
    23  H   -0.052541   0.002936   0.412295  -0.000384   0.000211   0.000009
             13         14         15         16         17         18
     1  C    0.000548  -0.000864   0.006198  -0.022997  -0.039954  -0.037496
     2  C   -0.002118  -0.000074  -0.000833   0.388386   0.006385  -0.001932
     3  C   -0.041100  -0.001478   0.006549  -0.035256  -0.001013   0.000668
     4  C    0.422196  -0.039632  -0.037672  -0.001591   0.006389  -0.002837
     5  C   -0.038641   0.422290   0.437370  -0.000087  -0.035615  -0.040201
     6  C   -0.002171  -0.038836  -0.036704  -0.002219   0.438704   0.418738
     7  C    0.000225   0.000064   0.000036  -0.012987  -0.000198   0.000059
     8  O   -0.000001  -0.000004  -0.000002   0.001663  -0.000001  -0.000015
     9  C    0.000002   0.000009  -0.000001  -0.002363   0.000011  -0.000007
    10  H   -0.004786  -0.000089  -0.000258  -0.003146   0.000094  -0.000091
    11  H    0.006440   0.001492  -0.000130   0.006474  -0.000090   0.000032
    12  H   -0.030504  -0.004651  -0.004659  -0.000061  -0.000292  -0.000101
    13  H    0.595916   0.006886  -0.004948   0.001501  -0.000129   0.001857
    14  H    0.006886   0.592912  -0.031191   0.000054  -0.004949   0.006982
    15  H   -0.004948  -0.031191   0.566156  -0.000188  -0.004612  -0.004723
    16  H    0.001501   0.000054  -0.000188   0.567925  -0.000093   0.001380
    17  H   -0.000129  -0.004949  -0.004612  -0.000093   0.563562  -0.031158
    18  H    0.001857   0.006982  -0.004723   0.001380  -0.031158   0.601421
    19  H    0.000030   0.001587  -0.000131   0.006318  -0.004338   0.006194
    20  H   -0.000086  -0.000080  -0.000257  -0.003840  -0.004778  -0.004122
    21  H    0.000000   0.000000   0.000000  -0.000524   0.000000   0.000000
    22  H    0.000001   0.000000   0.000001   0.001086   0.000000  -0.000001
    23  H   -0.000012  -0.000001   0.000000  -0.002491   0.000001  -0.000003
             19         20         21         22         23
     1  C    0.423521   0.435541  -0.000513  -0.000504  -0.000238
     2  C   -0.039885  -0.038091   0.009253   0.002109   0.019448
     3  C   -0.001647   0.005768  -0.000019  -0.000501  -0.003232
     4  C   -0.000315  -0.000869   0.000013   0.000384   0.000085
     5  C   -0.002055   0.005827   0.000002  -0.000004  -0.000011
     6  C   -0.039180  -0.039181   0.000003  -0.000004  -0.000017
     7  C   -0.001130  -0.001611  -0.036901  -0.024400  -0.052541
     8  O    0.005968   0.005217   0.004602   0.000551   0.002936
     9  C    0.000443   0.000379   0.412290   0.396621   0.412295
    10  H    0.000035  -0.000269   0.000116  -0.003887  -0.000384
    11  H    0.002183  -0.000161  -0.000090   0.000016   0.000211
    12  H   -0.000098   0.000094  -0.000001  -0.000018   0.000009
    13  H    0.000030  -0.000086   0.000000   0.000001  -0.000012
    14  H    0.001587  -0.000080   0.000000   0.000000  -0.000001
    15  H   -0.000131  -0.000257   0.000000   0.000001   0.000000
    16  H    0.006318  -0.003840  -0.000524   0.001086  -0.002491
    17  H   -0.004338  -0.004778   0.000000   0.000000   0.000001
    18  H    0.006194  -0.004122   0.000000  -0.000001  -0.000003
    19  H    0.559702  -0.023638  -0.000027  -0.000057  -0.000052
    20  H   -0.023638   0.546048  -0.000036  -0.000013  -0.000093
    21  H   -0.000027  -0.000036   0.517027  -0.017533  -0.022222
    22  H   -0.000057  -0.000013  -0.017533   0.571426  -0.032490
    23  H   -0.000052  -0.000093  -0.022222  -0.032490   0.575474
 Mulliken atomic charges:
              1
     1  C   -0.184450
     2  C   -0.109406
     3  C   -0.215713
     4  C   -0.197643
     5  C   -0.188762
     6  C   -0.201722
     7  C    0.278479
     8  O   -0.371050
     9  C   -0.311857
    10  H    0.116016
    11  H    0.104697
    12  H    0.112530
    13  H    0.088895
    14  H    0.089574
    15  H    0.109998
    16  H    0.113056
    17  H    0.112075
    18  H    0.085356
    19  H    0.106572
    20  H    0.118249
    21  H    0.134560
    22  H    0.107217
    23  H    0.103330
 Sum of Mulliken atomic charges =   0.00000
 Mulliken charges with hydrogens summed into heavy atoms:
              1
     1  C    0.040370
     2  C    0.003649
     3  C    0.005000
     4  C    0.003782
     5  C    0.010811
     6  C   -0.004291
     7  C    0.278479
     8  O   -0.371050
     9  C    0.033251
 Sum of Mulliken charges with hydrogens summed into heavy atoms =   0.00000
 Electronic spatial extent (au):  <R**2>=           1420.1380
 Charge=              0.0000 electrons
 Dipole moment (field-independent basis, Debye):
    X=             -1.3910    Y=              2.5928    Z=              1.3424  Tot=              3.2341
 Quadrupole moment (field-independent basis, Debye-Ang):
   XX=            -60.1761   YY=            -59.5832   ZZ=            -56.7615
   XY=              6.5152   XZ=              3.5040   YZ=             -1.7864
 Traceless Quadrupole moment (field-independent basis, Debye-Ang):
   XX=             -1.3358   YY=             -0.7430   ZZ=              2.0787
   XY=              6.5152   XZ=              3.5040   YZ=             -1.7864
 Octapole moment (field-independent basis, Debye-Ang**2):
  XXX=              3.6289  YYY=              0.1323  ZZZ=             -1.1278  XYY=             -3.6711
  XXY=             14.0367  XXZ=              7.3681  XZZ=              1.8647  YZZ=              0.4246
  YYZ=              1.0557  XYZ=             -4.6078
 Hexadecapole moment (field-independent basis, Debye-Ang**3):
 XXXX=          -1298.4802 YYYY=           -471.1240 ZZZZ=           -147.2524 XXXY=             26.4516
 XXXZ=             13.8691 YYYX=              4.7454 YYYZ=             -2.7469 ZZZX=             -1.7934
 ZZZY=              3.8339 XXYY=           -310.2004 XXZZ=           -246.5660 YYZZ=           -103.6097
 XXYZ=             -9.1817 YYXZ=              5.6679 ZZXY=             -0.1885
 N-N= 4.685257013854D+02 E-N=-1.838156120797D+03  KE= 3.854156543566D+02
 1\1\GINC-ROCK\SP\RMP2-FC\CC-pVTZ\C8H14O1\STYLIANAKIS\02-Mar-2016\0\\# 
 mp2/cc-pVTZ\\cyclohexylmethylketone-eq_single_point\\0,1\C\C,1,1.53615
 8\C,2,1.55114,1,110.988\C,3,1.537369,2,111.456,1,54.364,0\C,4,1.535973
 ,3,111.858,2,-54.473,0\C,5,1.536294,4,111.254,3,54.529,0\C,2,1.528867,
 3,111.056,4,-179.651,0\O,7,1.220314,2,121.941,3,-118.065,0\C,7,1.52162
 3,2,117.562,3,61.091,0\H,3,1.096047,4,109.774,5,-177.337,0\H,3,1.09952
 7,4,109.403,5,65.724,0\H,4,1.097002,3,109.618,2,-177.307,0\H,4,1.09984
 2,3,109.013,2,66.433,0\H,5,1.099723,4,109.181,3,-66.055,0\H,5,1.096908
 ,4,110.122,3,177.272,0\H,2,1.103228,3,106.915,4,-64.292,0\H,6,1.096776
 ,5,110.235,4,-177.06,0\H,6,1.100257,5,109.184,4,66.445,0\H,1,1.097262,
 2,108.752,3,66.575,0\H,1,1.095322,2,109.75,3,-177.927,0\H,9,1.091682,7
 ,109.377,2,158.661,0\H,9,1.09694,7,109.331,2,-83.098,0\H,9,1.094652,7,
 112.203,2,35.934,0\\Version=EM64L-G09RevA.01\State=1-A\HF=-386.1046446
 \MP2=-387.6984781\RMSD=7.898e-09\PG=C01 [X(C8H14O1)]\\@


 GOD DOES NOT PLAY WITH DICE.
               -- A. EINSTEIN
 Job cpu time:  0 days  1 hours 48 minutes 10.3 seconds.
 File lengths (MBytes):  RWF=    119 Int=      0 D2E=      0 Chk=     10 Scr=      1
 Normal termination of Gaussian 09 at Wed Mar  2 04:13:28 2016.
