 Entering Gaussian System, Link 0=g09
 Input=isopropylcyclohexane-ax.gjf
 Output=isopropylcyclohexane-ax.out
 Initial command:
 /usr/local/g09/l1.exe /home/scratch/stylianakis/Gau-30096.inp -scrdir=/home/scratch/stylianakis/
 Entering Link 1 = /usr/local/g09/l1.exe PID=     30097.
  
 Copyright (c) 1988,1990,1992,1993,1995,1998,2003,2009, Gaussian, Inc.
                  All Rights Reserved.
  
 This is part of the Gaussian(R) 09 program.  It is based on
 the Gaussian(R) 03 system (copyright 2003, Gaussian, Inc.),
 the Gaussian(R) 98 system (copyright 1998, Gaussian, Inc.),
 the Gaussian(R) 94 system (copyright 1995, Gaussian, Inc.),
 the Gaussian 92(TM) system (copyright 1992, Gaussian, Inc.),
 the Gaussian 90(TM) system (copyright 1990, Gaussian, Inc.),
 the Gaussian 88(TM) system (copyright 1988, Gaussian, Inc.),
 the Gaussian 86(TM) system (copyright 1986, Carnegie Mellon
 University), and the Gaussian 82(TM) system (copyright 1983,
 Carnegie Mellon University). Gaussian is a federally registered
 trademark of Gaussian, Inc.
  
 This software contains proprietary and confidential information,
 including trade secrets, belonging to Gaussian, Inc.
  
 This software is provided under written license and may be
 used, copied, transmitted, or stored only in accord with that
 written license.
  
 The following legend is applicable only to US Government
 contracts under FAR:
  
                    RESTRICTED RIGHTS LEGEND
  
 Use, reproduction and disclosure by the US Government is
 subject to restrictions as set forth in subparagraphs (a)
 and (c) of the Commercial Computer Software - Restricted
 Rights clause in FAR 52.227-19.
  
 Gaussian, Inc.
 340 Quinnipiac St., Bldg. 40, Wallingford CT 06492
  
  
 ---------------------------------------------------------------
 Warning -- This program may not be used in any manner that
 competes with the business of Gaussian, Inc. or will provide
 assistance to any competitor of Gaussian, Inc.  The licensee
 of this program is prohibited from giving any competitor of
 Gaussian, Inc. access to this program.  By using this program,
 the user acknowledges that Gaussian, Inc. is engaged in the
 business of creating and licensing software in the field of
 computational chemistry and represents and warrants to the
 licensee that it is not a competitor of Gaussian, Inc. and that
 it will not use this program in any manner prohibited above.
 ---------------------------------------------------------------
  

 Cite this work as:
 Gaussian 09, Revision A.01,
 M. J. Frisch, G. W. Trucks, H. B. Schlegel, G. E. Scuseria, 
 M. A. Robb, J. R. Cheeseman, G. Scalmani, V. Barone, B. Mennucci, 
 G. A. Petersson, H. Nakatsuji, M. Caricato, X. Li, H. P. Hratchian, 
 A. F. Izmaylov, J. Bloino, G. Zheng, J. L. Sonnenberg, M. Hada, 
 M. Ehara, K. Toyota, R. Fukuda, J. Hasegawa, M. Ishida, T. Nakajima, 
 Y. Honda, O. Kitao, H. Nakai, T. Vreven, J. A. Montgomery, Jr., 
 J. E. Peralta, F. Ogliaro, M. Bearpark, J. J. Heyd, E. Brothers, 
 K. N. Kudin, V. N. Staroverov, R. Kobayashi, J. Normand, 
 K. Raghavachari, A. Rendell, J. C. Burant, S. S. Iyengar, J. Tomasi, 
 M. Cossi, N. Rega, J. M. Millam, M. Klene, J. E. Knox, J. B. Cross, 
 V. Bakken, C. Adamo, J. Jaramillo, R. Gomperts, R. E. Stratmann, 
 O. Yazyev, A. J. Austin, R. Cammi, C. Pomelli, J. W. Ochterski, 
 R. L. Martin, K. Morokuma, V. G. Zakrzewski, G. A. Voth, 
 P. Salvador, J. J. Dannenberg, S. Dapprich, A. D. Daniels, 
 O. Farkas, J. B. Foresman, J. V. Ortiz, J. Cioslowski, 
 and D. J. Fox, Gaussian, Inc., Wallingford CT, 2009.
 
 ******************************************
 Gaussian 09:  EM64L-G09RevA.01  8-May-2009
                 2-Mar-2016 
 ******************************************
 %mem=8000Mb
 %nproc=4
 Will use up to    4 processors via shared memory.
 -------------
 # mp2/cc-pVTZ
 -------------
 1/38=1/1;
 2/12=2,17=6,18=5,40=1/2;
 3/5=16,6=1,11=9,16=1,25=1,30=1/1,2,3;
 4//1;
 5/5=2,38=5/2;
 8/10=1/1;
 9/16=-3/6;
 6/7=2,8=2,9=2,10=2/1;
 99/5=1,9=1/99;
 ------------------------------------
 isopropylcyclohexane-ax_single_point
 ------------------------------------
 Symbolic Z-matrix:
 Charge =  0 Multiplicity = 1
 c
 c                    1    cc2
 c                    2    cc3      1    ccc3
 c                    3    cc4      2    ccc4     1    dih4     0
 c                    4    cc5      3    ccc5     2    dih5     0
 c                    5    cc6      4    ccc6     3    dih6     0
 c                    1    cc7      2    ccc7     3    dih7     0
 c                    7    cc8      1    ccc8     2    dih8     0
 c                    7    cc9      1    ccc9     2    dih9     0
 h                    3    hc10     4    hcc10    5    dih10    0
 h                    3    hc11     4    hcc11    5    dih11    0
 h                    4    hc12     3    hcc12    2    dih12    0
 h                    4    hc13     3    hcc13    2    dih13    0
 h                    5    hc14     4    hcc14    3    dih14    0
 h                    5    hc15     4    hcc15    3    dih15    0
 h                    2    hc16     3    hcc16    4    dih16    0
 h                    2    hc17     3    hcc17    4    dih17    0
 h                    6    hc18     5    hcc18    4    dih18    0
 h                    6    hc19     5    hcc19    4    dih19    0
 h                    1    hc20     2    hcc20    3    dih20    0
 h                    7    hc21     1    hcc21    2    dih21    0
 h                    9    hc22     7    hcc22    1    dih22    0
 h                    9    hc23     7    hcc23    1    dih23    0
 h                    9    hc24     7    hcc24    1    dih24    0
 h                    8    hc25     7    hcc25    1    dih25    0
 h                    8    hc26     7    hcc26    1    dih26    0
 h                    8    hc27     7    hcc27    1    dih27    0
       Variables:
  cc2                   1.54861                  
  cc3                   1.53893                  
  ccc3                113.013                    
  cc4                   1.53738                  
  ccc4                111.34                     
  dih4                 55.892                    
  cc5                   1.53739                  
  ccc5                111.61                     
  dih5                -53.214                    
  cc6                   1.53893                  
  ccc6                111.341                    
  dih6                 53.214                    
  cc7                   1.55804                  
  ccc7                113.942                    
  dih7                 71.746                    
  cc8                   1.53973                  
  ccc8                111.952                    
  dih8                 56.303                    
  cc9                   1.53973                  
  ccc9                111.947                    
  dih9                179.252                    
  hc10                  1.09736                  
  hcc10               110.069                    
  dih10              -175.152                    
  hc11                  1.09887                  
  hcc11               109.418                    
  dih11                68.533                    
  hc12                  1.09732                  
  hcc12               110.41                     
  dih12              -176.418                    
  hc13                  1.10021                  
  hcc13               108.883                    
  dih13                67.011                    
  hc14                  1.09887                  
  hcc14               109.417                    
  dih14               -68.534                    
  hc15                  1.09736                  
  hcc15               110.069                    
  dih15               175.152                    
  hc16                  1.09967                  
  hcc16               108.354                    
  dih16               -63.528                    
  hc17                  1.09484                  
  hcc17               110.347                    
  dih17              -179.025                    
  hc18                  1.09485                  
  hcc18               110.347                    
  dih18               179.028                    
  hc19                  1.09967                  
  hcc19               108.355                    
  dih19                63.53                     
  hc20                  1.10161                  
  hcc20               107.389                    
  dih20              -171.381                    
  hc21                  1.09882                  
  hcc21               108.839                    
  dih21               -62.224                    
  hc22                  1.09572                  
  hcc22               110.529                    
  dih22              -176.073                    
  hc23                  1.09795                  
  hcc23               110.879                    
  dih23               -56.919                    
  hc24                  1.09366                  
  hcc24               112.625                    
  dih24                63.93                     
  hc25                  1.09572                  
  hcc25               110.528                    
  dih25               176.063                    
  hc26                  1.09366                  
  hcc26               112.626                    
  dih26               -63.94                     
  hc27                  1.09795                  
  hcc27               110.879                    
  dih27                56.91                     
 
                          Input orientation:                          
 ---------------------------------------------------------------------
 Center     Atomic      Atomic             Coordinates (Angstroms)
 Number     Number       Type             X           Y           Z
 ---------------------------------------------------------------------
      1          6           0        0.000000    0.000000    0.000000
      2          6           0        0.000000    0.000000    1.548613
      3          6           0        1.416456    0.000000    2.150242
      4          6           0        2.245308    1.185650    1.629874
      5          6           0        2.255590    1.238299    0.093420
      6          6           0        0.826474    1.219598   -0.477169
      7          6           0        0.446033   -1.352322   -0.632270
      8          6           0       -0.416835   -2.529434   -0.141718
      9          6           0        0.411554   -1.307304   -2.170954
     10          1           0        1.354264    0.035794    3.245258
     11          1           0        1.928757   -0.940240    1.903250
     12          1           0        3.270501    1.135479    2.017921
     13          1           0        1.810955    2.120141    2.015273
     14          1           0        2.826652    0.384748   -0.297537
     15          1           0        2.779833    2.139485   -0.248983
     16          1           0       -0.519143    0.909130    1.885127
     17          1           0       -0.581044   -0.840029    1.942844
     18          1           0        0.852262    1.274978   -1.570310
     19          1           0        0.307841    2.129507   -0.141978
     20          1           0       -1.039395    0.157546   -0.329225
     21          1           0        1.483043   -1.558855   -0.333323
     22          1           0        0.661539   -2.288475   -2.589770
     23          1           0       -0.589896   -1.038833   -2.532229
     24          1           0        1.120777   -0.586055   -2.586760
     25          1           0       -0.129524   -3.455398   -0.652245
     26          1           0       -0.315964   -2.705904    0.932883
     27          1           0       -1.479235   -2.350815   -0.353622
 ---------------------------------------------------------------------
                    Distance matrix (angstroms):
                    1          2          3          4          5
     1  C    0.000000
     2  C    1.548613   0.000000
     3  C    2.574857   1.538930   0.000000
     4  C    3.017228   2.540429   1.537383   0.000000
     5  C    2.574840   2.956122   2.543236   1.537390   0.000000
     6  C    1.548602   2.504849   2.956144   2.540447   1.538927
     7  C    1.558039   2.604606   3.242356   3.846555   3.242289
     8  C    2.567464   3.070668   3.874542   4.901775   4.625252
     9  C    2.567384   3.964038   4.625106   4.901405   3.874010
    10  H    3.516676   2.171155   1.097364   2.173843   3.491774
    11  H    2.868191   2.174839   1.098867   2.166645   2.851024
    12  H    4.007180   3.493671   2.178142   1.097323   2.178146
    13  H    3.440332   2.827070   2.160751   1.100213   2.160756
    14  H    2.868191   3.397979   2.851019   2.166637   1.098866
    15  H    3.516655   3.941601   3.491773   2.173849   1.097364
    16  H    2.156323   1.099667   2.154843   2.789948   3.319294
    17  H    2.194972   1.094842   2.176849   3.491360   3.973199
    18  H    2.194948   3.475572   3.973210   3.491380   2.176850
    19  H    2.156321   2.736359   3.319352   2.790000   2.154853
    20  H    1.101613   2.152078   3.493391   3.960346   3.493362
    21  H    2.177280   2.858519   2.933012   3.459408   2.933089
    22  H    3.518759   4.775036   5.317399   5.690630   4.709421
    23  H    2.799881   4.252108   5.199054   5.505434   4.491787
    24  H    2.879397   4.324455   4.782267   4.709937   3.435030
    25  H    3.518803   4.098820   4.709964   5.690977   5.317478
    26  H    2.879587   2.793005   3.435864   4.710638   4.782711
    27  H    2.799913   3.366447   4.492293   5.505730   5.199087
                    6          7          8          9         10
     6  C    0.000000
     7  C    2.604527   0.000000
     8  C    3.964036   1.539733   0.000000
     9  C    3.070228   1.539728   2.509508   0.000000
    10  H    3.941626   4.217460   4.603128   5.659325   0.000000
    11  H    3.397988   2.965999   3.494172   4.363002   1.756038
    12  H    3.493683   4.603290   5.629571   5.629160   2.527375
    13  H    2.827092   4.574986   5.588757   5.588399   2.462911
    14  H    2.174846   2.965940   4.363135   3.493627   3.852413
    15  H    2.171146   4.217374   5.659417   4.602508   4.320588
    16  H    2.736333   3.518951   3.992779   4.714930   2.474333
    17  H    3.475576   2.819317   2.688206   4.257573   2.491739
    18  H    1.094847   2.819157   4.257351   2.687598   4.997727
    19  H    1.099667   3.518894   4.714964   3.992389   4.117280
    20  H    2.152047   2.139634   2.764526   2.764598   4.303644
    21  H    2.858597   1.098824   2.142025   2.142021   3.919915
    22  H    4.098397   2.180512   2.685873   1.095717   6.318991
    23  H    3.365989   2.186611   2.822479   1.097952   6.189825
    24  H    2.792377   2.205101   3.481264   1.093660   5.869722
    25  H    4.774952   2.180504   1.095717   2.685805   5.438803
    26  H    4.324694   2.205115   1.093656   3.481259   3.956469
    27  H    4.251988   2.186616   1.097953   2.822532   5.164935
                   11         12         13         14         15
    11  H    0.000000
    12  H    2.474274   0.000000
    13  H    3.064696   1.760637   0.000000
    14  H    2.721263   2.474256   3.064689   0.000000
    15  H    3.852421   2.527378   2.462916   1.756033   0.000000
    16  H    3.068014   3.798719   2.629229   4.029062   4.117213
    17  H    2.512114   4.329280   3.806509   4.258143   4.997710
    18  H    4.258129   4.329289   3.806547   2.512106   2.491748
    19  H    4.029103   3.798764   2.629290   3.068027   2.474327
    20  H    3.872855   5.004063   4.180065   3.872847   4.303605
    21  H    2.362966   3.997848   4.377036   2.363083   3.920013
    22  H    4.859096   6.305629   6.477922   4.133784   5.438133
    23  H    5.101648   6.350918   6.035145   4.323567   5.164299
    24  H    4.575857   5.365452   5.383173   3.015462   3.955532
    25  H    4.134380   6.306037   6.478252   4.859168   6.318995
    26  H    3.016282   5.366214   5.383871   4.576254   5.870142
    27  H    4.324073   6.351256   6.035434   5.101677   6.189782
                   16         17         18         19         20
    16  H    0.000000
    17  H    1.751205   0.000000
    18  H    3.735591   4.343947   0.000000
    19  H    2.506467   3.735604   1.751213   0.000000
    20  H    2.395599   2.523399   2.523353   2.395565   0.000000
    21  H    3.875721   3.155646   3.155731   3.875787   3.051023
    22  H    5.625246   4.917987   3.711317   5.063137   3.739821
    23  H    4.828312   4.479495   2.891164   4.069104   2.546879
    24  H    4.992262   4.845411   2.137455   3.743274   3.211813
    25  H    5.063513   3.711942   4.917643   5.625195   3.739729
    26  H    3.743864   2.138172   4.845426   4.992560   3.211794
    27  H    4.069522   2.891881   4.479128   4.828221   2.546749
                   21         22         23         24         25
    21  H    0.000000
    22  H    2.509735   0.000000
    23  H    3.066380   1.769465   0.000000
    24  H    2.481039   1.763276   1.770419   0.000000
    25  H    2.509772   2.396142   3.096138   3.679501   0.000000
    26  H    2.481012   3.679517   3.855019   4.352685   1.763273
    27  H    3.066382   3.096313   2.694169   3.855041   1.769463
                   26         27
    26  H    0.000000
    27  H    1.770419   0.000000
 Stoichiometry    C9H18
 Framework group  C1[X(C9H18)]
 Deg. of freedom    75
 Full point group                 C1      NOp   1
 Largest Abelian subgroup         C1      NOp   1
 Largest concise Abelian subgroup C1      NOp   1
                         Standard orientation:                         
 ---------------------------------------------------------------------
 Center     Atomic      Atomic             Coordinates (Angstroms)
 Number     Number       Type             X           Y           Z
 ---------------------------------------------------------------------
      1          6           0       -0.327114   -0.000127    0.773233
      2          6           0        0.583699   -1.252508    0.760381
      3          6           0        1.563635   -1.271595   -0.426070
      4          6           0        2.426961    0.000066   -0.459137
      5          6           0        1.563501    1.271641   -0.425924
      6          6           0        0.583560    1.252342    0.760515
      7          6           0       -1.417732   -0.000053   -0.339440
      8          6           0       -2.307847   -1.254670   -0.273043
      9          6           0       -2.307456    1.254838   -0.273081
     10          1           0        2.204419   -2.160242   -0.363541
     11          1           0        1.008004   -1.360586   -1.369926
     12          1           0        3.074356    0.000151   -1.345138
     13          1           0        3.094556    0.000051    0.415383
     14          1           0        1.007884    1.360677   -1.369782
     15          1           0        2.204195    2.160346   -0.363293
     16          1           0        1.167887   -1.253319    1.692041
     17          1           0       -0.010198   -2.172094    0.778430
     18          1           0       -0.010462    2.171853    0.778623
     19          1           0        1.167724    1.253147    1.692190
     20          1           0       -0.873468   -0.000189    1.729814
     21          1           0       -0.923418   -0.000144   -1.320800
     22          1           0       -3.107813    1.198304   -1.019290
     23          1           0       -2.780760    1.347227    0.713299
     24          1           0       -1.750039    2.176339   -0.463379
     25          1           0       -3.108255   -1.197837   -1.019175
     26          1           0       -1.750756   -2.176346   -0.463431
     27          1           0       -2.781095   -1.346942    0.713376
 ---------------------------------------------------------------------
 Rotational constants (GHZ):      2.4224485      1.2038348      0.9654117
 Standard basis: CC-pVTZ (5D, 7F)
 There are   522 symmetry adapted basis functions of A   symmetry.
 Integral buffers will be    131072 words long.
 Raffenetti 1 integral format.
 Two-electron integral symmetry is turned on.
   522 basis functions,   774 primitive gaussians,   585 cartesian basis functions
    36 alpha electrons       36 beta electrons
       nuclear repulsion energy       497.5411516942 Hartrees.
 NAtoms=   27 NActive=   27 NUniq=   27 SFac= 7.50D-01 NAtFMM=   80 NAOKFM=F Big=F
 One-electron integrals computed using PRISM.
 NBasis=   522 RedAO= T  NBF=   522
 NBsUse=   522 1.00D-06 NBFU=   522
 Harris functional with IExCor=  205 diagonalized for initial guess.
 ExpMin= 1.03D-01 ExpMax= 8.24D+03 ExpMxC= 2.81D+02 IAcc=1 IRadAn=         1 AccDes= 0.00D+00
 HarFok:  IExCor=  205 AccDes= 0.00D+00 IRadAn=         1 IDoV= 1
 ScaDFX=  1.000000  1.000000  1.000000  1.000000
 FoFCou: FMM=F IPFlag=           0 FMFlag=      100000 FMFlg1=           0
         NFxFlg=           0 DoJE=T BraDBF=F KetDBF=T FulRan=T
         Omega=  0.000000  0.000000  1.000000  0.000000  0.000000 ICntrl=     500 IOpCl=  0
         NMat0=    1 NMatS0=    1 NMatT0=    0 NMatD0=    1 NMtDS0=    0 NMtDT0=    0
         I1Cent=           4 NGrid=           0.
 Petite list used in FoFCou.
 Initial guess orbital symmetries:
       Occupied  (A) (A) (A) (A) (A) (A) (A) (A) (A) (A) (A) (A)
                 (A) (A) (A) (A) (A) (A) (A) (A) (A) (A) (A) (A)
                 (A) (A) (A) (A) (A) (A) (A) (A) (A) (A) (A) (A)
       Virtual   (A) (A) (A) (A) (A) (A) (A) (A) (A) (A) (A) (A)
                 (A) (A) (A) (A) (A) (A) (A) (A) (A) (A) (A) (A)
                 (A) (A) (A) (A) (A) (A) (A) (A) (A) (A) (A) (A)
                 (A) (A) (A) (A) (A) (A) (A) (A) (A) (A) (A) (A)
                 (A) (A) (A) (A) (A) (A) (A) (A) (A) (A) (A) (A)
                 (A) (A) (A) (A) (A) (A) (A) (A) (A) (A) (A) (A)
                 (A) (A) (A) (A) (A) (A) (A) (A) (A) (A) (A) (A)
                 (A) (A) (A) (A) (A) (A) (A) (A) (A) (A) (A) (A)
                 (A) (A) (A) (A) (A) (A) (A) (A) (A) (A) (A) (A)
                 (A) (A) (A) (A) (A) (A) (A) (A) (A) (A) (A) (A)
                 (A) (A) (A) (A) (A) (A) (A) (A) (A) (A) (A) (A)
                 (A) (A) (A) (A) (A) (A) (A) (A) (A) (A) (A) (A)
                 (A) (A) (A) (A) (A) (A) (A) (A) (A) (A) (A) (A)
                 (A) (A) (A) (A) (A) (A) (A) (A) (A) (A) (A) (A)
                 (A) (A) (A) (A) (A) (A) (A) (A) (A) (A) (A) (A)
                 (A) (A) (A) (A) (A) (A) (A) (A) (A) (A) (A) (A)
                 (A) (A) (A) (A) (A) (A) (A) (A) (A) (A) (A) (A)
                 (A) (A) (A) (A) (A) (A) (A) (A) (A) (A) (A) (A)
                 (A) (A) (A) (A) (A) (A) (A) (A) (A) (A) (A) (A)
                 (A) (A) (A) (A) (A) (A) (A) (A) (A) (A) (A) (A)
                 (A) (A) (A) (A) (A) (A) (A) (A) (A) (A) (A) (A)
                 (A) (A) (A) (A) (A) (A) (A) (A) (A) (A) (A) (A)
                 (A) (A) (A) (A) (A) (A) (A) (A) (A) (A) (A) (A)
                 (A) (A) (A) (A) (A) (A) (A) (A) (A) (A) (A) (A)
                 (A) (A) (A) (A) (A) (A) (A) (A) (A) (A) (A) (A)
                 (A) (A) (A) (A) (A) (A) (A) (A) (A) (A) (A) (A)
                 (A) (A) (A) (A) (A) (A) (A) (A) (A) (A) (A) (A)
                 (A) (A) (A) (A) (A) (A) (A) (A) (A) (A) (A) (A)
                 (A) (A) (A) (A) (A) (A) (A) (A) (A) (A) (A) (A)
                 (A) (A) (A) (A) (A) (A) (A) (A) (A) (A) (A) (A)
                 (A) (A) (A) (A) (A) (A) (A) (A) (A) (A) (A) (A)
                 (A) (A) (A) (A) (A) (A) (A) (A) (A) (A) (A) (A)
                 (A) (A) (A) (A) (A) (A) (A) (A) (A) (A) (A) (A)
                 (A) (A) (A) (A) (A) (A) (A) (A) (A) (A) (A) (A)
                 (A) (A) (A) (A) (A) (A) (A) (A) (A) (A) (A) (A)
                 (A) (A) (A) (A) (A) (A) (A) (A) (A) (A) (A) (A)
                 (A) (A) (A) (A) (A) (A) (A) (A) (A) (A) (A) (A)
                 (A) (A) (A) (A) (A) (A) (A) (A) (A) (A) (A) (A)
                 (A) (A) (A) (A) (A) (A) (A) (A) (A) (A) (A) (A)
                 (A) (A) (A) (A) (A) (A) (A) (A) (A) (A) (A) (A)
                 (A) (A) (A) (A) (A) (A)
 The electronic state of the initial guess is 1-A.
 Requested convergence on RMS density matrix=1.00D-08 within 128 cycles.
 Requested convergence on MAX density matrix=1.00D-06.
 Requested convergence on             energy=1.00D-06.
 No special actions if energy rises.
 Integral accuracy reduced to 1.0D-05 until final iterations.
 Initial convergence to 1.0D-05 achieved.  Increase integral accuracy.
 SCF Done:  E(RHF) =  -351.418604961     A.U. after   11 cycles
             Convg  =    0.3986D-08             -V/T =  2.0018
 ExpMin= 1.03D-01 ExpMax= 8.24D+03 ExpMxC= 2.81D+02 IAcc=1 IRadAn=         1 AccDes= 0.00D+00
 HarFok:  IExCor=  205 AccDes= 0.00D+00 IRadAn=         1 IDoV=-2
 ScaDFX=  1.000000  1.000000  1.000000  1.000000
 Range of M.O.s used for correlation:    10   522
 NBasis=   522 NAE=    36 NBE=    36 NFC=     9 NFV=     0
 NROrb=    513 NOA=    27 NOB=    27 NVA=   486 NVB=   486

 **** Warning!!: The largest alpha MO coefficient is  0.12205543D+02

 Fully direct method using O(OVN) memory.
 JobTyp=1 Pass  1:  I=   1 to  27 NPSUse=  4 ParTrn=T ParDer=T DoDerP=F.
 Spin components of T(2) and E(2):
     alpha-alpha T2 =       0.6098086170D-01 E2=     -0.1787977388D+00
     alpha-beta  T2 =       0.3733650047D+00 E2=     -0.1219684572D+01
     beta-beta   T2 =       0.6098086170D-01 E2=     -0.1787977388D+00
 ANorm=    0.1222835528D+01
 E2 =    -0.1577280049D+01 EUMP2 =    -0.35299588501056D+03

 **********************************************************************

            Population analysis using the SCF density.

 **********************************************************************

 Orbital symmetries:
       Occupied  (A) (A) (A) (A) (A) (A) (A) (A) (A) (A) (A) (A)
                 (A) (A) (A) (A) (A) (A) (A) (A) (A) (A) (A) (A)
                 (A) (A) (A) (A) (A) (A) (A) (A) (A) (A) (A) (A)
       Virtual   (A) (A) (A) (A) (A) (A) (A) (A) (A) (A) (A) (A)
                 (A) (A) (A) (A) (A) (A) (A) (A) (A) (A) (A) (A)
                 (A) (A) (A) (A) (A) (A) (A) (A) (A) (A) (A) (A)
                 (A) (A) (A) (A) (A) (A) (A) (A) (A) (A) (A) (A)
                 (A) (A) (A) (A) (A) (A) (A) (A) (A) (A) (A) (A)
                 (A) (A) (A) (A) (A) (A) (A) (A) (A) (A) (A) (A)
                 (A) (A) (A) (A) (A) (A) (A) (A) (A) (A) (A) (A)
                 (A) (A) (A) (A) (A) (A) (A) (A) (A) (A) (A) (A)
                 (A) (A) (A) (A) (A) (A) (A) (A) (A) (A) (A) (A)
                 (A) (A) (A) (A) (A) (A) (A) (A) (A) (A) (A) (A)
                 (A) (A) (A) (A) (A) (A) (A) (A) (A) (A) (A) (A)
                 (A) (A) (A) (A) (A) (A) (A) (A) (A) (A) (A) (A)
                 (A) (A) (A) (A) (A) (A) (A) (A) (A) (A) (A) (A)
                 (A) (A) (A) (A) (A) (A) (A) (A) (A) (A) (A) (A)
                 (A) (A) (A) (A) (A) (A) (A) (A) (A) (A) (A) (A)
                 (A) (A) (A) (A) (A) (A) (A) (A) (A) (A) (A) (A)
                 (A) (A) (A) (A) (A) (A) (A) (A) (A) (A) (A) (A)
                 (A) (A) (A) (A) (A) (A) (A) (A) (A) (A) (A) (A)
                 (A) (A) (A) (A) (A) (A) (A) (A) (A) (A) (A) (A)
                 (A) (A) (A) (A) (A) (A) (A) (A) (A) (A) (A) (A)
                 (A) (A) (A) (A) (A) (A) (A) (A) (A) (A) (A) (A)
                 (A) (A) (A) (A) (A) (A) (A) (A) (A) (A) (A) (A)
                 (A) (A) (A) (A) (A) (A) (A) (A) (A) (A) (A) (A)
                 (A) (A) (A) (A) (A) (A) (A) (A) (A) (A) (A) (A)
                 (A) (A) (A) (A) (A) (A) (A) (A) (A) (A) (A) (A)
                 (A) (A) (A) (A) (A) (A) (A) (A) (A) (A) (A) (A)
                 (A) (A) (A) (A) (A) (A) (A) (A) (A) (A) (A) (A)
                 (A) (A) (A) (A) (A) (A) (A) (A) (A) (A) (A) (A)
                 (A) (A) (A) (A) (A) (A) (A) (A) (A) (A) (A) (A)
                 (A) (A) (A) (A) (A) (A) (A) (A) (A) (A) (A) (A)
                 (A) (A) (A) (A) (A) (A) (A) (A) (A) (A) (A) (A)
                 (A) (A) (A) (A) (A) (A) (A) (A) (A) (A) (A) (A)
                 (A) (A) (A) (A) (A) (A) (A) (A) (A) (A) (A) (A)
                 (A) (A) (A) (A) (A) (A) (A) (A) (A) (A) (A) (A)
                 (A) (A) (A) (A) (A) (A) (A) (A) (A) (A) (A) (A)
                 (A) (A) (A) (A) (A) (A) (A) (A) (A) (A) (A) (A)
                 (A) (A) (A) (A) (A) (A) (A) (A) (A) (A) (A) (A)
                 (A) (A) (A) (A) (A) (A) (A) (A) (A) (A) (A) (A)
                 (A) (A) (A) (A) (A) (A) (A) (A) (A) (A) (A) (A)
                 (A) (A) (A) (A) (A) (A) (A) (A) (A) (A) (A) (A)
                 (A) (A) (A) (A) (A) (A)
 The electronic state is 1-A.
 Alpha  occ. eigenvalues --  -11.22312 -11.22000 -11.21402 -11.21357 -11.21319
 Alpha  occ. eigenvalues --  -11.21165 -11.21162 -11.20825 -11.20823  -1.11802
 Alpha  occ. eigenvalues --   -1.05747  -0.99543  -0.97910  -0.92138  -0.83766
 Alpha  occ. eigenvalues --   -0.82278  -0.78694  -0.71356  -0.65138  -0.62368
 Alpha  occ. eigenvalues --   -0.60017  -0.59897  -0.58338  -0.54313  -0.54157
 Alpha  occ. eigenvalues --   -0.53056  -0.52293  -0.51803  -0.50139  -0.47832
 Alpha  occ. eigenvalues --   -0.47256  -0.46461  -0.45576  -0.42544  -0.41867
 Alpha  occ. eigenvalues --   -0.41321
 Alpha virt. eigenvalues --    0.13700   0.15020   0.15741   0.16445   0.18769
 Alpha virt. eigenvalues --    0.19178   0.19354   0.19861   0.21231   0.22288
 Alpha virt. eigenvalues --    0.22792   0.23452   0.25303   0.25671   0.26007
 Alpha virt. eigenvalues --    0.27164   0.28434   0.29354   0.30124   0.32634
 Alpha virt. eigenvalues --    0.34045   0.34526   0.35925   0.36008   0.38674
 Alpha virt. eigenvalues --    0.39121   0.39535   0.40760   0.42080   0.42689
 Alpha virt. eigenvalues --    0.44319   0.44458   0.46927   0.47203   0.48032
 Alpha virt. eigenvalues --    0.49458   0.50897   0.52568   0.53222   0.56101
 Alpha virt. eigenvalues --    0.56839   0.58630   0.58967   0.59831   0.59869
 Alpha virt. eigenvalues --    0.60327   0.60490   0.61687   0.62655   0.63286
 Alpha virt. eigenvalues --    0.63436   0.64377   0.65390   0.65543   0.66570
 Alpha virt. eigenvalues --    0.66606   0.67637   0.67738   0.68676   0.69379
 Alpha virt. eigenvalues --    0.70300   0.70499   0.71266   0.71561   0.72188
 Alpha virt. eigenvalues --    0.72378   0.74457   0.75108   0.75666   0.77024
 Alpha virt. eigenvalues --    0.81707   0.81799   0.85473   0.85640   0.86714
 Alpha virt. eigenvalues --    0.86829   0.89616   0.93667   0.95014   0.97245
 Alpha virt. eigenvalues --    0.97969   1.00513   1.01738   1.02410   1.03034
 Alpha virt. eigenvalues --    1.04028   1.05123   1.08031   1.08499   1.08847
 Alpha virt. eigenvalues --    1.11524   1.11793   1.12798   1.14572   1.15290
 Alpha virt. eigenvalues --    1.16824   1.17735   1.18367   1.18507   1.19883
 Alpha virt. eigenvalues --    1.21102   1.22845   1.23742   1.26141   1.26377
 Alpha virt. eigenvalues --    1.26917   1.27144   1.29684   1.30392   1.31417
 Alpha virt. eigenvalues --    1.32509   1.32879   1.33182   1.35462   1.35555
 Alpha virt. eigenvalues --    1.36720   1.37230   1.37595   1.37870   1.39038
 Alpha virt. eigenvalues --    1.39551   1.40970   1.41765   1.42384   1.42481
 Alpha virt. eigenvalues --    1.43963   1.45558   1.47775   1.48663   1.48769
 Alpha virt. eigenvalues --    1.48816   1.49073   1.50840   1.50864   1.52335
 Alpha virt. eigenvalues --    1.53913   1.54266   1.56776   1.56852   1.57219
 Alpha virt. eigenvalues --    1.58097   1.58414   1.58707   1.62609   1.63714
 Alpha virt. eigenvalues --    1.63881   1.64874   1.66626   1.66686   1.68545
 Alpha virt. eigenvalues --    1.70784   1.71350   1.72285   1.73078   1.73349
 Alpha virt. eigenvalues --    1.73759   1.75226   1.76096   1.76622   1.78638
 Alpha virt. eigenvalues --    1.79104   1.81383   1.84241   1.84845   1.86037
 Alpha virt. eigenvalues --    1.88598   1.89149   1.90515   1.90955   1.93478
 Alpha virt. eigenvalues --    1.93528   1.95117   1.98925   2.01913   2.02375
 Alpha virt. eigenvalues --    2.05728   2.08739   2.17684   2.18669   2.19973
 Alpha virt. eigenvalues --    2.56826   2.56903   2.60180   2.62908   2.63937
 Alpha virt. eigenvalues --    2.64105   2.68674   2.69314   2.70263   2.72475
 Alpha virt. eigenvalues --    2.76097   2.76749   2.77918   2.79197   2.80112
 Alpha virt. eigenvalues --    2.81162   2.82182   2.83398   2.85827   2.86272
 Alpha virt. eigenvalues --    2.87172   2.87525   2.89863   2.90329   2.91811
 Alpha virt. eigenvalues --    2.92353   2.94525   2.94943   2.95627   2.96283
 Alpha virt. eigenvalues --    2.97637   2.98633   2.98704   3.00988   3.01395
 Alpha virt. eigenvalues --    3.02482   3.03246   3.04984   3.07008   3.07701
 Alpha virt. eigenvalues --    3.07948   3.08823   3.09752   3.10369   3.11890
 Alpha virt. eigenvalues --    3.13718   3.14027   3.15169   3.17292   3.18854
 Alpha virt. eigenvalues --    3.19985   3.22494   3.23844   3.24316   3.25176
 Alpha virt. eigenvalues --    3.26532   3.27090   3.28100   3.29810   3.31217
 Alpha virt. eigenvalues --    3.32023   3.32251   3.33091   3.35109   3.37845
 Alpha virt. eigenvalues --    3.39161   3.39627   3.40062   3.40665   3.40792
 Alpha virt. eigenvalues --    3.42418   3.43531   3.44162   3.45204   3.45629
 Alpha virt. eigenvalues --    3.46910   3.47520   3.48504   3.48577   3.49143
 Alpha virt. eigenvalues --    3.51156   3.51668   3.52133   3.52805   3.53500
 Alpha virt. eigenvalues --    3.53772   3.54663   3.54885   3.56189   3.57485
 Alpha virt. eigenvalues --    3.59800   3.60267   3.60516   3.62098   3.62452
 Alpha virt. eigenvalues --    3.64524   3.65677   3.66389   3.68176   3.69184
 Alpha virt. eigenvalues --    3.71091   3.71551   3.72238   3.73580   3.73975
 Alpha virt. eigenvalues --    3.74715   3.75687   3.75831   3.78081   3.78728
 Alpha virt. eigenvalues --    3.81649   3.82114   3.82981   3.83081   3.83869
 Alpha virt. eigenvalues --    3.85749   3.86654   3.87067   3.88341   3.89688
 Alpha virt. eigenvalues --    3.90793   3.92651   3.93007   3.96368   3.96804
 Alpha virt. eigenvalues --    3.97222   3.99192   3.99966   4.00425   4.01208
 Alpha virt. eigenvalues --    4.02803   4.03184   4.03509   4.04053   4.04529
 Alpha virt. eigenvalues --    4.06328   4.07358   4.09210   4.10123   4.10176
 Alpha virt. eigenvalues --    4.12485   4.13077   4.14069   4.16356   4.16819
 Alpha virt. eigenvalues --    4.17058   4.17663   4.18724   4.20825   4.21762
 Alpha virt. eigenvalues --    4.23186   4.24648   4.25585   4.27205   4.27623
 Alpha virt. eigenvalues --    4.28652   4.29648   4.29894   4.30992   4.31595
 Alpha virt. eigenvalues --    4.32970   4.35092   4.35549   4.35842   4.37662
 Alpha virt. eigenvalues --    4.38543   4.38646   4.40228   4.41905   4.42597
 Alpha virt. eigenvalues --    4.44722   4.45888   4.46620   4.47767   4.48340
 Alpha virt. eigenvalues --    4.48507   4.48659   4.49881   4.51949   4.51994
 Alpha virt. eigenvalues --    4.52403   4.52863   4.55182   4.55408   4.56390
 Alpha virt. eigenvalues --    4.56869   4.58262   4.58487   4.59735   4.59837
 Alpha virt. eigenvalues --    4.62324   4.64197   4.64597   4.66549   4.67240
 Alpha virt. eigenvalues --    4.67703   4.69513   4.70020   4.72004   4.72309
 Alpha virt. eigenvalues --    4.74471   4.75767   4.77157   4.78469   4.80234
 Alpha virt. eigenvalues --    4.82046   4.82395   4.84365   4.85832   4.89174
 Alpha virt. eigenvalues --    4.90240   4.90612   4.91555   4.92493   4.97395
 Alpha virt. eigenvalues --    4.98797   4.99288   5.00814   5.03942   5.06639
 Alpha virt. eigenvalues --    5.06774   5.08865   5.10804   5.11207   5.11850
 Alpha virt. eigenvalues --    5.14931   5.16200   5.17331   5.18299   5.18508
 Alpha virt. eigenvalues --    5.21889   5.22181   5.23454   5.24839   5.26236
 Alpha virt. eigenvalues --    5.27225   5.28917   5.30961   5.33813   5.34520
 Alpha virt. eigenvalues --    5.36344   5.36573   5.37542   5.40158   5.41261
 Alpha virt. eigenvalues --    5.41498   5.43124   5.43470   5.44427   5.48616
 Alpha virt. eigenvalues --    5.49150   5.49970   5.52220   5.53604   5.56887
 Alpha virt. eigenvalues --    5.58709   5.60717   5.63536   5.63721   5.64761
 Alpha virt. eigenvalues --    5.66798   5.68528   5.70353   5.72154   5.74905
 Alpha virt. eigenvalues --    5.75270   5.76054   5.76218   5.77943   5.78081
 Alpha virt. eigenvalues --    5.79761   5.82213   5.82597   5.82646   5.86088
 Alpha virt. eigenvalues --    5.86674   5.87370   5.88143   5.89609   5.96189
 Alpha virt. eigenvalues --    5.96838   6.01904   6.02295   6.07185   6.13510
 Alpha virt. eigenvalues --    6.15994   6.26521   6.32569   6.34542   6.35786
 Alpha virt. eigenvalues --    6.37445   6.38907   6.40324   6.43893   6.51491
 Alpha virt. eigenvalues --    6.52961   6.57320  12.06377  12.76236  13.04022
 Alpha virt. eigenvalues --   13.28884  13.47083  13.61283  13.67367  14.18205
 Alpha virt. eigenvalues --   14.30579
          Condensed to atoms (all electrons):
              1          2          3          4          5          6
     1  C    4.922908   0.351798  -0.039843   0.003745  -0.039849   0.351788
     2  C    0.351798   4.912504   0.337231  -0.043420  -0.003630  -0.042690
     3  C   -0.039843   0.337231   4.890484   0.344542  -0.037702  -0.003628
     4  C    0.003745  -0.043420   0.344542   4.863273   0.344546  -0.043419
     5  C   -0.039849  -0.003630  -0.037702   0.344546   4.890482   0.337231
     6  C    0.351788  -0.042690  -0.003628  -0.043419   0.337231   4.912555
     7  C    0.356899  -0.044199  -0.000924  -0.000336  -0.000921  -0.044199
     8  C   -0.048580  -0.006738  -0.000338   0.000055  -0.000063   0.004403
     9  C   -0.048581   0.004403  -0.000063   0.000055  -0.000339  -0.006755
    10  H    0.005926  -0.036003   0.436804  -0.036504   0.006446  -0.001082
    11  H   -0.002681  -0.036081   0.421093  -0.037842  -0.002333   0.001258
    12  H   -0.001146   0.006447  -0.037595   0.437457  -0.037594   0.006447
    13  H   -0.000782  -0.001384  -0.041150   0.424477  -0.041150  -0.001384
    14  H   -0.002682   0.001258  -0.002333  -0.037843   0.421093  -0.036079
    15  H    0.005927  -0.001082   0.006446  -0.036503   0.436802  -0.036004
    16  H   -0.040107   0.433965  -0.038254  -0.001895  -0.000205  -0.003824
    17  H   -0.032609   0.438182  -0.039840   0.006251  -0.000915   0.006240
    18  H   -0.032608   0.006240  -0.000915   0.006251  -0.039843   0.438193
    19  H   -0.040105  -0.003824  -0.000204  -0.001895  -0.038248   0.433962
    20  H    0.435261  -0.038175   0.006888  -0.001421   0.006889  -0.038179
    21  H   -0.025677  -0.002655  -0.000030  -0.000737  -0.000031  -0.002654
    22  H    0.006528  -0.000246   0.000018  -0.000001  -0.000008   0.000159
    23  H   -0.002339   0.000206  -0.000049  -0.000003   0.000207  -0.001139
    24  H   -0.004133  -0.000319   0.000051  -0.000013  -0.000301  -0.002849
    25  H    0.006528   0.000158  -0.000008  -0.000001   0.000018  -0.000246
    26  H   -0.004130  -0.002840  -0.000301  -0.000013   0.000051  -0.000319
    27  H   -0.002343  -0.001137   0.000206  -0.000003  -0.000049   0.000206
              7          8          9         10         11         12
     1  C    0.356899  -0.048580  -0.048581   0.005926  -0.002681  -0.001146
     2  C   -0.044199  -0.006738   0.004403  -0.036003  -0.036081   0.006447
     3  C   -0.000924  -0.000338  -0.000063   0.436804   0.421093  -0.037595
     4  C   -0.000336   0.000055   0.000055  -0.036504  -0.037842   0.437457
     5  C   -0.000921  -0.000063  -0.000339   0.006446  -0.002333  -0.037594
     6  C   -0.044199   0.004403  -0.006755  -0.001082   0.001258   0.006447
     7  C    4.943286   0.355599   0.355596  -0.000164  -0.000611  -0.000007
     8  C    0.355599   4.843943  -0.052410  -0.000061   0.000261   0.000004
     9  C    0.355596  -0.052410   4.843973   0.000018   0.000231   0.000004
    10  H   -0.000164  -0.000061   0.000018   0.567441  -0.033080  -0.004519
    11  H   -0.000611   0.000261   0.000231  -0.033080   0.597833  -0.005119
    12  H   -0.000007   0.000004   0.000004  -0.004519  -0.005119   0.571039
    13  H    0.000073  -0.000001  -0.000001  -0.005519   0.007109  -0.032279
    14  H   -0.000609   0.000231   0.000260  -0.000140   0.001072  -0.005119
    15  H   -0.000164   0.000018  -0.000061  -0.000285  -0.000140  -0.004518
    16  H    0.006577   0.000085  -0.000203  -0.005497   0.006603  -0.000097
    17  H   -0.004169  -0.003928  -0.000215  -0.004922  -0.004353  -0.000272
    18  H   -0.004172  -0.000215  -0.003939   0.000098  -0.000113  -0.000272
    19  H    0.006577  -0.000203   0.000086  -0.000136   0.000003  -0.000097
    20  H   -0.035417  -0.004666  -0.004662  -0.000247  -0.000348   0.000096
    21  H    0.416455  -0.037982  -0.037983   0.000110  -0.003833   0.000070
    22  H   -0.036160  -0.009253   0.426066  -0.000001   0.000015  -0.000001
    23  H   -0.041842  -0.003208   0.415713   0.000000  -0.000022   0.000000
    24  H   -0.032916   0.007065   0.424614  -0.000002   0.000007   0.000004
    25  H   -0.036163   0.426069  -0.009255  -0.000001   0.000042  -0.000001
    26  H   -0.032919   0.424608   0.007065   0.000017   0.000559   0.000003
    27  H   -0.041839   0.415709  -0.003206   0.000006  -0.000068   0.000000
             13         14         15         16         17         18
     1  C   -0.000782  -0.002682   0.005927  -0.040107  -0.032609  -0.032608
     2  C   -0.001384   0.001258  -0.001082   0.433965   0.438182   0.006240
     3  C   -0.041150  -0.002333   0.006446  -0.038254  -0.039840  -0.000915
     4  C    0.424477  -0.037843  -0.036503  -0.001895   0.006251   0.006251
     5  C   -0.041150   0.421093   0.436802  -0.000205  -0.000915  -0.039843
     6  C   -0.001384  -0.036079  -0.036004  -0.003824   0.006240   0.438193
     7  C    0.000073  -0.000609  -0.000164   0.006577  -0.004169  -0.004172
     8  C   -0.000001   0.000231   0.000018   0.000085  -0.003928  -0.000215
     9  C   -0.000001   0.000260  -0.000061  -0.000203  -0.000215  -0.003939
    10  H   -0.005519  -0.000140  -0.000285  -0.005497  -0.004922   0.000098
    11  H    0.007109   0.001072  -0.000140   0.006603  -0.004353  -0.000113
    12  H   -0.032279  -0.005119  -0.004518  -0.000097  -0.000272  -0.000272
    13  H    0.602484   0.007109  -0.005519   0.002162  -0.000129  -0.000129
    14  H    0.007109   0.597832  -0.033080   0.000003  -0.000113  -0.004354
    15  H   -0.005519  -0.033080   0.567443  -0.000136   0.000098  -0.004922
    16  H    0.002162   0.000003  -0.000136   0.576306  -0.030946  -0.000070
    17  H   -0.000129  -0.000113   0.000098  -0.030946   0.565268  -0.000268
    18  H   -0.000129  -0.004354  -0.004922  -0.000070  -0.000268   0.565288
    19  H    0.002162   0.006603  -0.005498   0.001623  -0.000070  -0.030947
    20  H   -0.000170  -0.000348  -0.000247  -0.007932  -0.003430  -0.003431
    21  H   -0.000091  -0.003833   0.000110  -0.000358   0.000635   0.000635
    22  H    0.000000   0.000042  -0.000001   0.000018  -0.000002   0.000202
    23  H   -0.000001  -0.000068   0.000006  -0.000026   0.000006   0.000471
    24  H    0.000001   0.000559   0.000017  -0.000003  -0.000001  -0.006031
    25  H    0.000000   0.000015  -0.000001   0.000035   0.000201  -0.000002
    26  H    0.000001   0.000007  -0.000002   0.000322  -0.006018  -0.000001
    27  H   -0.000001  -0.000022   0.000000  -0.000170   0.000471   0.000006
             19         20         21         22         23         24
     1  C   -0.040105   0.435261  -0.025677   0.006528  -0.002339  -0.004133
     2  C   -0.003824  -0.038175  -0.002655  -0.000246   0.000206  -0.000319
     3  C   -0.000204   0.006888  -0.000030   0.000018  -0.000049   0.000051
     4  C   -0.001895  -0.001421  -0.000737  -0.000001  -0.000003  -0.000013
     5  C   -0.038248   0.006889  -0.000031  -0.000008   0.000207  -0.000301
     6  C    0.433962  -0.038179  -0.002654   0.000159  -0.001139  -0.002849
     7  C    0.006577  -0.035417   0.416455  -0.036160  -0.041842  -0.032916
     8  C   -0.000203  -0.004666  -0.037982  -0.009253  -0.003208   0.007065
     9  C    0.000086  -0.004662  -0.037983   0.426066   0.415713   0.424614
    10  H   -0.000136  -0.000247   0.000110  -0.000001   0.000000  -0.000002
    11  H    0.000003  -0.000348  -0.003833   0.000015  -0.000022   0.000007
    12  H   -0.000097   0.000096   0.000070  -0.000001   0.000000   0.000004
    13  H    0.002162  -0.000170  -0.000091   0.000000  -0.000001   0.000001
    14  H    0.006603  -0.000348  -0.003833   0.000042  -0.000068   0.000559
    15  H   -0.005498  -0.000247   0.000110  -0.000001   0.000006   0.000017
    16  H    0.001623  -0.007932  -0.000358   0.000018  -0.000026  -0.000003
    17  H   -0.000070  -0.003430   0.000635  -0.000002   0.000006  -0.000001
    18  H   -0.030947  -0.003431   0.000635   0.000202   0.000471  -0.006031
    19  H    0.576294  -0.007932  -0.000358   0.000035  -0.000170   0.000323
    20  H   -0.007932   0.576098   0.006399  -0.000171   0.003086   0.000258
    21  H   -0.000358   0.006399   0.590702  -0.004123   0.007313  -0.005291
    22  H    0.000035  -0.000171  -0.004123   0.575138  -0.029614  -0.032245
    23  H   -0.000170   0.003086   0.007313  -0.029614   0.591281  -0.032102
    24  H    0.000323   0.000258  -0.005291  -0.032245  -0.032102   0.582380
    25  H    0.000018  -0.000171  -0.004122   0.001848  -0.000033   0.000126
    26  H   -0.000003   0.000258  -0.005291   0.000126  -0.000148  -0.000269
    27  H   -0.000026   0.003087   0.007312  -0.000032   0.002014  -0.000148
             25         26         27
     1  C    0.006528  -0.004130  -0.002343
     2  C    0.000158  -0.002840  -0.001137
     3  C   -0.000008  -0.000301   0.000206
     4  C   -0.000001  -0.000013  -0.000003
     5  C    0.000018   0.000051  -0.000049
     6  C   -0.000246  -0.000319   0.000206
     7  C   -0.036163  -0.032919  -0.041839
     8  C    0.426069   0.424608   0.415709
     9  C   -0.009255   0.007065  -0.003206
    10  H   -0.000001   0.000017   0.000006
    11  H    0.000042   0.000559  -0.000068
    12  H   -0.000001   0.000003   0.000000
    13  H    0.000000   0.000001  -0.000001
    14  H    0.000015   0.000007  -0.000022
    15  H   -0.000001  -0.000002   0.000000
    16  H    0.000035   0.000322  -0.000170
    17  H    0.000201  -0.006018   0.000471
    18  H   -0.000002  -0.000001   0.000006
    19  H    0.000018  -0.000003  -0.000026
    20  H   -0.000171   0.000258   0.003087
    21  H   -0.004122  -0.005291   0.007312
    22  H    0.001848   0.000126  -0.000032
    23  H   -0.000033  -0.000148   0.002014
    24  H    0.000126  -0.000269  -0.000148
    25  H    0.575142  -0.032243  -0.029616
    26  H   -0.032243   0.582357  -0.032100
    27  H   -0.029616  -0.032100   0.591287
 Mulliken atomic charges:
              1
     1  C   -0.079113
     2  C   -0.227971
     3  C   -0.200587
     4  C   -0.188805
     5  C   -0.200585
     6  C   -0.227992
     7  C   -0.083333
     8  C   -0.310404
     9  C   -0.310412
    10  H    0.111296
    11  H    0.090537
    12  H    0.107063
    13  H    0.084113
    14  H    0.090537
    15  H    0.111295
    16  H    0.102023
    17  H    0.114849
    18  H    0.114848
    19  H    0.102032
    20  H    0.108626
    21  H    0.105308
    22  H    0.101663
    23  H    0.090459
    24  H    0.101217
    25  H    0.101661
    26  H    0.101222
    27  H    0.090454
 Sum of Mulliken atomic charges =   0.00000
 Mulliken charges with hydrogens summed into heavy atoms:
              1
     1  C    0.029513
     2  C   -0.011099
     3  C    0.001246
     4  C    0.002370
     5  C    0.001248
     6  C   -0.011112
     7  C    0.021975
     8  C   -0.017067
     9  C   -0.017073
 Sum of Mulliken charges with hydrogens summed into heavy atoms =   0.00000
 Electronic spatial extent (au):  <R**2>=           1410.8091
 Charge=              0.0000 electrons
 Dipole moment (field-independent basis, Debye):
    X=              0.0727    Y=              0.0000    Z=             -0.0382  Tot=              0.0822
 Quadrupole moment (field-independent basis, Debye-Ang):
   XX=            -61.6220   YY=            -61.4625   ZZ=            -60.4018
   XY=             -0.0001   XZ=              0.3051   YZ=              0.0001
 Traceless Quadrupole moment (field-independent basis, Debye-Ang):
   XX=             -0.4599   YY=             -0.3004   ZZ=              0.7602
   XY=             -0.0001   XZ=              0.3051   YZ=              0.0001
 Octapole moment (field-independent basis, Debye-Ang**2):
  XXX=              1.8544  YYY=             -0.0006  ZZZ=             -0.3242  XYY=              1.9981
  XXY=              0.0001  XXZ=              0.5620  XZZ=             -0.5741  YZZ=              0.0001
  YYZ=             -0.0766  XYZ=             -0.0002
 Hexadecapole moment (field-independent basis, Debye-Ang**3):
 XXXX=          -1199.3325 YYYY=           -559.1904 ZZZZ=           -243.7701 XXXY=             -0.0036
 XXXZ=              5.1128 YYYX=              0.0016 YYYZ=              0.0017 ZZZX=              0.1139
 ZZZY=             -0.0006 XXYY=           -297.7674 XXZZ=           -230.7514 YYZZ=           -139.2854
 XXYZ=             -0.0003 YYXZ=             -0.2853 ZZXY=             -0.0004
 N-N= 4.975411516942D+02 E-N=-1.811715479343D+03  KE= 3.507955562327D+02
 1\1\GINC-ROCK\SP\RMP2-FC\CC-pVTZ\C9H18\STYLIANAKIS\02-Mar-2016\0\\# mp
 2/cc-pVTZ\\isopropylcyclohexane-ax_single_point\\0,1\C\C,1,1.548613\C,
 2,1.53893,1,113.013\C,3,1.537383,2,111.34,1,55.892,0\C,4,1.53739,3,111
 .61,2,-53.214,0\C,5,1.538927,4,111.341,3,53.214,0\C,1,1.558039,2,113.9
 42,3,71.746,0\C,7,1.539733,1,111.952,2,56.303,0\C,7,1.539728,1,111.947
 ,2,179.252,0\H,3,1.097364,4,110.069,5,-175.152,0\H,3,1.098867,4,109.41
 8,5,68.533,0\H,4,1.097323,3,110.41,2,-176.418,0\H,4,1.100213,3,108.883
 ,2,67.011,0\H,5,1.098866,4,109.417,3,-68.534,0\H,5,1.097364,4,110.069,
 3,175.152,0\H,2,1.099667,3,108.354,4,-63.528,0\H,2,1.094842,3,110.347,
 4,-179.025,0\H,6,1.094847,5,110.347,4,179.028,0\H,6,1.099667,5,108.355
 ,4,63.53,0\H,1,1.101613,2,107.389,3,-171.381,0\H,7,1.098824,1,108.839,
 2,-62.224,0\H,9,1.095717,7,110.529,1,-176.073,0\H,9,1.097952,7,110.879
 ,1,-56.919,0\H,9,1.09366,7,112.625,1,63.93,0\H,8,1.095717,7,110.528,1,
 176.063,0\H,8,1.093656,7,112.626,1,-63.94,0\H,8,1.097953,7,110.879,1,5
 6.91,0\\Version=EM64L-G09RevA.01\State=1-A\HF=-351.418605\MP2=-352.995
 885\RMSD=3.986e-09\PG=C01 [X(C9H18)]\\@


 ALL SCIENCE IS EITHER PHYSICS, OR STAMP COLLECTING.
   --ERNEST RUTHERFORD, 1871-1937.
 Job cpu time:  0 days  2 hours 32 minutes 12.8 seconds.
 File lengths (MBytes):  RWF=    148 Int=      0 D2E=      0 Chk=     13 Scr=      1
 Normal termination of Gaussian 09 at Wed Mar  2 06:08:07 2016.
