 Entering Gaussian System, Link 0=g09
 Input=me_cyclohexanecarboxylate-eq.gjf
 Output=me_cyclohexanecarboxylate-eq.out
 Initial command:
 /usr/local/g09/l1.exe /home/scratch/stylianakis/Gau-30909.inp -scrdir=/home/scratch/stylianakis/
 Entering Link 1 = /usr/local/g09/l1.exe PID=     30910.
  
 Copyright (c) 1988,1990,1992,1993,1995,1998,2003,2009, Gaussian, Inc.
                  All Rights Reserved.
  
 This is part of the Gaussian(R) 09 program.  It is based on
 the Gaussian(R) 03 system (copyright 2003, Gaussian, Inc.),
 the Gaussian(R) 98 system (copyright 1998, Gaussian, Inc.),
 the Gaussian(R) 94 system (copyright 1995, Gaussian, Inc.),
 the Gaussian 92(TM) system (copyright 1992, Gaussian, Inc.),
 the Gaussian 90(TM) system (copyright 1990, Gaussian, Inc.),
 the Gaussian 88(TM) system (copyright 1988, Gaussian, Inc.),
 the Gaussian 86(TM) system (copyright 1986, Carnegie Mellon
 University), and the Gaussian 82(TM) system (copyright 1983,
 Carnegie Mellon University). Gaussian is a federally registered
 trademark of Gaussian, Inc.
  
 This software contains proprietary and confidential information,
 including trade secrets, belonging to Gaussian, Inc.
  
 This software is provided under written license and may be
 used, copied, transmitted, or stored only in accord with that
 written license.
  
 The following legend is applicable only to US Government
 contracts under FAR:
  
                    RESTRICTED RIGHTS LEGEND
  
 Use, reproduction and disclosure by the US Government is
 subject to restrictions as set forth in subparagraphs (a)
 and (c) of the Commercial Computer Software - Restricted
 Rights clause in FAR 52.227-19.
  
 Gaussian, Inc.
 340 Quinnipiac St., Bldg. 40, Wallingford CT 06492
  
  
 ---------------------------------------------------------------
 Warning -- This program may not be used in any manner that
 competes with the business of Gaussian, Inc. or will provide
 assistance to any competitor of Gaussian, Inc.  The licensee
 of this program is prohibited from giving any competitor of
 Gaussian, Inc. access to this program.  By using this program,
 the user acknowledges that Gaussian, Inc. is engaged in the
 business of creating and licensing software in the field of
 computational chemistry and represents and warrants to the
 licensee that it is not a competitor of Gaussian, Inc. and that
 it will not use this program in any manner prohibited above.
 ---------------------------------------------------------------
  

 Cite this work as:
 Gaussian 09, Revision A.01,
 M. J. Frisch, G. W. Trucks, H. B. Schlegel, G. E. Scuseria, 
 M. A. Robb, J. R. Cheeseman, G. Scalmani, V. Barone, B. Mennucci, 
 G. A. Petersson, H. Nakatsuji, M. Caricato, X. Li, H. P. Hratchian, 
 A. F. Izmaylov, J. Bloino, G. Zheng, J. L. Sonnenberg, M. Hada, 
 M. Ehara, K. Toyota, R. Fukuda, J. Hasegawa, M. Ishida, T. Nakajima, 
 Y. Honda, O. Kitao, H. Nakai, T. Vreven, J. A. Montgomery, Jr., 
 J. E. Peralta, F. Ogliaro, M. Bearpark, J. J. Heyd, E. Brothers, 
 K. N. Kudin, V. N. Staroverov, R. Kobayashi, J. Normand, 
 K. Raghavachari, A. Rendell, J. C. Burant, S. S. Iyengar, J. Tomasi, 
 M. Cossi, N. Rega, J. M. Millam, M. Klene, J. E. Knox, J. B. Cross, 
 V. Bakken, C. Adamo, J. Jaramillo, R. Gomperts, R. E. Stratmann, 
 O. Yazyev, A. J. Austin, R. Cammi, C. Pomelli, J. W. Ochterski, 
 R. L. Martin, K. Morokuma, V. G. Zakrzewski, G. A. Voth, 
 P. Salvador, J. J. Dannenberg, S. Dapprich, A. D. Daniels, 
 O. Farkas, J. B. Foresman, J. V. Ortiz, J. Cioslowski, 
 and D. J. Fox, Gaussian, Inc., Wallingford CT, 2009.
 
 ******************************************
 Gaussian 09:  EM64L-G09RevA.01  8-May-2009
                 2-Mar-2016 
 ******************************************
 %mem=8000Mb
 %nproc=4
 Will use up to    4 processors via shared memory.
 -------------
 # mp2/cc-pVTZ
 -------------
 1/38=1/1;
 2/12=2,17=6,18=5,40=1/2;
 3/5=16,6=1,11=9,16=1,25=1,30=1/1,2,3;
 4//1;
 5/5=2,38=5/2;
 8/10=1/1;
 9/16=-3/6;
 6/7=2,8=2,9=2,10=2/1;
 99/5=1,9=1/99;
 -----------------------------------------
 me_cyclohexanecarboxylate-eq_single_point
 -----------------------------------------
 Symbolic Z-matrix:
 Charge =  0 Multiplicity = 1
 c
 c                    1    cc2
 c                    2    cc3      1    ccc3
 c                    3    cc4      2    ccc4     1    dih4     0
 c                    4    cc5      3    ccc5     2    dih5     0
 c                    5    cc6      4    ccc6     3    dih6     0
 c                    2    cc7      3    ccc7     4    dih7     0
 o                    7    oc8      2    occ8     3    dih8     0
 c                    8    co9      7    coc9     2    dih9     0
 o                    7    oc10     2    occ10    3    dih10    0
 h                    3    hc11     4    hcc11    5    dih11    0
 h                    3    hc12     4    hcc12    5    dih12    0
 h                    4    hc13     3    hcc13    2    dih13    0
 h                    4    hc14     3    hcc14    2    dih14    0
 h                    5    hc15     4    hcc15    3    dih15    0
 h                    5    hc16     4    hcc16    3    dih16    0
 h                    2    hc17     3    hcc17    4    dih17    0
 h                    6    hc18     5    hcc18    4    dih18    0
 h                    6    hc19     5    hcc19    4    dih19    0
 h                    1    hc20     2    hcc20    3    dih20    0
 h                    1    hc21     2    hcc21    3    dih21    0
 h                    9    hc22     8    hco22    7    dih22    0
 h                    9    hc23     8    hco23    7    dih23    0
 h                    9    hc24     8    hco24    7    dih24    0
       Variables:
  cc2                   1.55019                  
  cc3                   1.54095                  
  ccc3                110.787                    
  cc4                   1.5364                   
  ccc4                111.355                    
  dih4                 55.306                    
  cc5                   1.53653                  
  ccc5                111.763                    
  dih5                -55.24                     
  cc6                   1.53642                  
  ccc6                111.333                    
  dih6                 54.589                    
  cc7                   1.51679                  
  ccc7                111.355                    
  dih7                177.368                    
  oc8                   1.35536                  
  occ8                111.659                    
  dih8                141.018                    
  co9                   1.44073                  
  coc9                115.965                    
  dih9                177.417                    
  oc10                  1.21572                  
  occ10               125.481                    
  dih10               -40.575                    
  hc11                  1.09679                  
  hcc11               110.256                    
  dih11              -177.43                     
  hc12                  1.09673                  
  hcc12               110.091                    
  dih12                65.262                    
  hc13                  1.09676                  
  hcc13               109.623                    
  dih13              -177.802                    
  hc14                  1.09994                  
  hcc14               109.414                    
  dih14                65.86                     
  hc15                  1.09956                  
  hcc15               109.197                    
  dih15               -66.033                    
  hc16                  1.09689                  
  hcc16               110.243                    
  dih16               177.192                    
  hc17                  1.0971                   
  hcc17               109.512                    
  dih17               -63.842                    
  hc18                  1.09689                  
  hcc18               110.381                    
  dih18              -176.825                    
  hc19                  1.09968                  
  hcc19               109.317                    
  dih19                66.329                    
  hc20                  1.09821                  
  hcc20               108.597                    
  dih20                65.453                    
  hc21                  1.09647                  
  hcc21               109.808                    
  dih21              -177.728                    
  hc22                  1.08976                  
  hco22               105.435                    
  dih22              -179.73                     
  hc23                  1.09265                  
  hco23               110.428                    
  dih23                60.659                    
  hc24                  1.09277                  
  hco24               110.443                    
  dih24               -60.085                    
 
                          Input orientation:                          
 ---------------------------------------------------------------------
 Center     Atomic      Atomic             Coordinates (Angstroms)
 Number     Number       Type             X           Y           Z
 ---------------------------------------------------------------------
      1          6           0        0.000000    0.000000    0.000000
      2          6           0        0.000000    0.000000    1.550193
      3          6           0        1.440642    0.000000    2.097068
      4          6           0        2.252748    1.176504    1.534171
      5          6           0        2.247399    1.189044   -0.002298
      6          6           0        0.814404    1.177993   -0.556350
      7          6           0       -0.782508   -1.197182    2.055245
      8          8           0       -2.064337   -0.869183    2.349048
      9          6           0       -2.908998   -1.952564    2.783263
     10          8           0       -0.349739   -2.328007    2.164451
     11          1           0        1.422801    0.040755    3.192951
     12          1           0        1.917211   -0.950150    1.827026
     13          1           0        3.281905    1.126925    1.910013
     14          1           0        1.831562    2.122335    1.905471
     15          1           0        2.784769    0.304242   -0.372958
     16          1           0        2.791122    2.065079   -0.376582
     17          1           0       -0.521337    0.903145    1.891036
     18          1           0        0.828860    1.130180   -1.652097
     19          1           0        0.314569    2.120926   -0.291138
     20          1           0        0.432419   -0.946797   -0.350231
     21          1           0       -1.030785    0.040896   -0.371560
     22          1           0       -3.885430   -1.504117    2.965079
     23          1           0       -2.513796   -2.401313    3.697776
     24          1           0       -2.974294   -2.719946    2.008015
 ---------------------------------------------------------------------
                    Distance matrix (angstroms):
                    1          2          3          4          5
     1  C    0.000000
     2  C    1.550193   0.000000
     3  C    2.544237   1.540948   0.000000
     4  C    2.968622   2.541514   1.536402   0.000000
     5  C    2.542564   2.979069   2.544016   1.536529   0.000000
     6  C    1.536374   2.547243   2.969927   2.537541   1.536415
     7  C    2.503916   1.516786   2.525349   3.888274   4.371257
     8  O    3.245765   2.378053   3.619924   4.846244   5.325053
     9  C    4.474520   3.714194   4.816922   6.164002   6.649622
    10  O    3.197934   2.432950   2.937621   4.410418   4.879505
    11  H    3.495849   2.173632   1.096786   2.174923   3.494015
    12  H    2.813629   2.157572   1.096734   2.172788   2.834008
    13  H    3.960935   3.488600   2.166841   1.096759   2.175085
    14  H    3.389652   2.825800   2.166526   1.099935   2.164147
    15  H    2.826057   3.397942   2.828474   2.163568   1.099559
    16  H    3.492381   3.970815   3.493893   2.174945   1.096887
    17  H    2.159509   1.097104   2.169673   2.810271   3.366355
    18  H    2.166504   3.495566   3.963309   3.490259   2.176593
    19  H    2.163803   2.826266   3.386723   2.824929   2.165101
    20  H    1.098213   2.166800   2.811087   3.372384   2.824363
    21  H    1.096470   2.181129   3.493386   3.962701   3.493005
    22  H    5.113768   4.400095   5.602040   6.849121   7.325983
    23  H    5.075335   4.086269   4.895524   6.340498   7.017848
    24  H    4.502961   4.056369   5.186298   6.536728   6.825513
                    6          7          8          9         10
     6  C    0.000000
     7  C    3.874534   0.000000
     8  O    4.573775   1.355356   0.000000
     9  C    5.900603   2.371197   1.440732   0.000000
    10  O    4.588030   1.215722   2.258781   2.659642   0.000000
    11  H    3.964936   2.773130   3.701391   4.785985   3.132211
    12  H    3.380186   2.720586   4.016439   5.021106   2.674211
    13  H    3.489143   4.684230   5.723592   6.969440   5.018977
    14  H    2.826120   4.227881   4.931933   6.312545   4.962931
    15  H    2.163195   4.569016   5.683315   6.890130   4.815840
    16  H    2.174087   5.415437   6.294000   7.656203   5.968338
    17  H    2.801685   2.122863   2.394112   3.827802   3.247237
    18  H    1.096885   4.664494   5.327026   6.568661   5.283388
    19  H    1.099680   4.209386   4.644408   6.036278   5.124864
    20  H    2.168670   2.706484   3.677760   4.689927   2.973741
    21  H    2.175283   2.735665   3.049292   4.177855   3.536506
    22  H    6.456207   3.248097   2.024602   1.089762   3.717649
    23  H    6.479656   2.673051   2.090097   1.092655   2.653225
    24  H    6.010335   2.669264   2.090370   1.092771   2.658266
                   11         12         13         14         15
    11  H    0.000000
    12  H    1.758432   0.000000
    13  H    2.506384   2.486668   0.000000
    14  H    2.481464   3.074680   1.759079   0.000000
    15  H    3.826237   2.676955   2.477076   3.066807   0.000000
    16  H    4.325708   3.835521   2.519824   2.476246   1.760852
    17  H    2.493666   3.063546   3.809867   2.650050   4.051504
    18  H    5.001410   4.197212   4.325051   3.827019   2.478700
    19  H    4.206443   4.060368   3.825988   2.669524   3.067397
    20  H    3.809233   2.635350   4.186717   4.057753   2.664426
    21  H    4.327334   3.808757   4.998432   4.208359   3.824631
    22  H    5.533161   5.939081   7.707544   6.852585   7.674908
    23  H    4.659973   5.023883   7.016746   6.523641   7.208724
    24  H    5.325410   5.204973   7.344933   6.823082   6.926872
                   16         17         18         19         20
    16  H    0.000000
    17  H    4.179062   0.000000
    18  H    2.520208   3.798469   0.000000
    19  H    2.478655   2.635073   1.760194   0.000000
    20  H    3.825647   3.058629   2.483114   3.070555   0.000000
    21  H    4.324848   2.474339   2.506909   2.478502   1.765490
    22  H    8.275397   4.273828   7.105094   6.433030   5.472266
    23  H    8.043085   4.260711   7.229519   6.660461   5.213651
    24  H    7.862747   4.376925   6.533290   6.287827   4.506780
                   21         22         23         24
    21  H    0.000000
    22  H    4.655021   0.000000
    23  H    4.972244   1.795324   0.000000
    24  H    4.130600   1.795656   1.780134   0.000000
 Stoichiometry    C8H14O2
 Framework group  C1[X(C8H14O2)]
 Deg. of freedom    66
 Full point group                 C1      NOp   1
 Largest Abelian subgroup         C1      NOp   1
 Largest concise Abelian subgroup C1      NOp   1
                         Standard orientation:                         
 ---------------------------------------------------------------------
 Center     Atomic      Atomic             Coordinates (Angstroms)
 Number     Number       Type             X           Y           Z
 ---------------------------------------------------------------------
      1          6           0       -0.680747    1.176911    0.424548
      2          6           0       -0.052756   -0.030210   -0.318139
      3          6           0       -0.896264   -1.302142   -0.105533
      4          6           0       -2.357525   -1.081080   -0.525508
      5          6           0       -2.982747    0.121263    0.198640
      6          6           0       -2.141855    1.391855    0.000983
      7          6           0        1.374313   -0.228176    0.156122
      8          8           0        2.264543    0.368258   -0.673785
      9          6           0        3.647651    0.287073   -0.278650
     10          8           0        1.706889   -0.816984    1.166409
     11          1           0       -0.461049   -2.136023   -0.669599
     12          1           0       -0.846890   -1.581477    0.953882
     13          1           0       -2.939445   -1.989111   -0.326184
     14          1           0       -2.404499   -0.914074   -1.611675
     15          1           0       -3.054236   -0.101005    1.273124
     16          1           0       -4.007564    0.286753   -0.155655
     17          1           0       -0.015067    0.209910   -1.387980
     18          1           0       -2.570717    2.226060    0.569610
     19          1           0       -2.172104    1.687022   -1.057912
     20          1           0       -0.633022    0.986689    1.505108
     21          1           0       -0.091219    2.080647    0.229702
     22          1           0        4.201948    0.817937   -1.052290
     23          1           0        3.967342   -0.756204   -0.221490
     24          1           0        3.794645    0.759716    0.695593
 ---------------------------------------------------------------------
 Rotational constants (GHZ):      3.0325761      0.7158800      0.6550510
 Standard basis: CC-pVTZ (5D, 7F)
 There are   496 symmetry adapted basis functions of A   symmetry.
 Integral buffers will be    131072 words long.
 Raffenetti 1 integral format.
 Two-electron integral symmetry is turned on.
   496 basis functions,   758 primitive gaussians,   560 cartesian basis functions
    39 alpha electrons       39 beta electrons
       nuclear repulsion energy       559.8457495389 Hartrees.
 NAtoms=   24 NActive=   24 NUniq=   24 SFac= 7.50D-01 NAtFMM=   80 NAOKFM=F Big=F
 One-electron integrals computed using PRISM.
 NBasis=   496 RedAO= T  NBF=   496
 NBsUse=   496 1.00D-06 NBFU=   496
 Harris functional with IExCor=  205 diagonalized for initial guess.
 ExpMin= 1.03D-01 ExpMax= 1.53D+04 ExpMxC= 5.22D+02 IAcc=1 IRadAn=         1 AccDes= 0.00D+00
 HarFok:  IExCor=  205 AccDes= 0.00D+00 IRadAn=         1 IDoV= 1
 ScaDFX=  1.000000  1.000000  1.000000  1.000000
 FoFCou: FMM=F IPFlag=           0 FMFlag=      100000 FMFlg1=           0
         NFxFlg=           0 DoJE=T BraDBF=F KetDBF=T FulRan=T
         Omega=  0.000000  0.000000  1.000000  0.000000  0.000000 ICntrl=     500 IOpCl=  0
         NMat0=    1 NMatS0=    1 NMatT0=    0 NMatD0=    1 NMtDS0=    0 NMtDT0=    0
         I1Cent=           4 NGrid=           0.
 Petite list used in FoFCou.
 Initial guess orbital symmetries:
       Occupied  (A) (A) (A) (A) (A) (A) (A) (A) (A) (A) (A) (A)
                 (A) (A) (A) (A) (A) (A) (A) (A) (A) (A) (A) (A)
                 (A) (A) (A) (A) (A) (A) (A) (A) (A) (A) (A) (A)
                 (A) (A) (A)
       Virtual   (A) (A) (A) (A) (A) (A) (A) (A) (A) (A) (A) (A)
                 (A) (A) (A) (A) (A) (A) (A) (A) (A) (A) (A) (A)
                 (A) (A) (A) (A) (A) (A) (A) (A) (A) (A) (A) (A)
                 (A) (A) (A) (A) (A) (A) (A) (A) (A) (A) (A) (A)
                 (A) (A) (A) (A) (A) (A) (A) (A) (A) (A) (A) (A)
                 (A) (A) (A) (A) (A) (A) (A) (A) (A) (A) (A) (A)
                 (A) (A) (A) (A) (A) (A) (A) (A) (A) (A) (A) (A)
                 (A) (A) (A) (A) (A) (A) (A) (A) (A) (A) (A) (A)
                 (A) (A) (A) (A) (A) (A) (A) (A) (A) (A) (A) (A)
                 (A) (A) (A) (A) (A) (A) (A) (A) (A) (A) (A) (A)
                 (A) (A) (A) (A) (A) (A) (A) (A) (A) (A) (A) (A)
                 (A) (A) (A) (A) (A) (A) (A) (A) (A) (A) (A) (A)
                 (A) (A) (A) (A) (A) (A) (A) (A) (A) (A) (A) (A)
                 (A) (A) (A) (A) (A) (A) (A) (A) (A) (A) (A) (A)
                 (A) (A) (A) (A) (A) (A) (A) (A) (A) (A) (A) (A)
                 (A) (A) (A) (A) (A) (A) (A) (A) (A) (A) (A) (A)
                 (A) (A) (A) (A) (A) (A) (A) (A) (A) (A) (A) (A)
                 (A) (A) (A) (A) (A) (A) (A) (A) (A) (A) (A) (A)
                 (A) (A) (A) (A) (A) (A) (A) (A) (A) (A) (A) (A)
                 (A) (A) (A) (A) (A) (A) (A) (A) (A) (A) (A) (A)
                 (A) (A) (A) (A) (A) (A) (A) (A) (A) (A) (A) (A)
                 (A) (A) (A) (A) (A) (A) (A) (A) (A) (A) (A) (A)
                 (A) (A) (A) (A) (A) (A) (A) (A) (A) (A) (A) (A)
                 (A) (A) (A) (A) (A) (A) (A) (A) (A) (A) (A) (A)
                 (A) (A) (A) (A) (A) (A) (A) (A) (A) (A) (A) (A)
                 (A) (A) (A) (A) (A) (A) (A) (A) (A) (A) (A) (A)
                 (A) (A) (A) (A) (A) (A) (A) (A) (A) (A) (A) (A)
                 (A) (A) (A) (A) (A) (A) (A) (A) (A) (A) (A) (A)
                 (A) (A) (A) (A) (A) (A) (A) (A) (A) (A) (A) (A)
                 (A) (A) (A) (A) (A) (A) (A) (A) (A) (A) (A) (A)
                 (A) (A) (A) (A) (A) (A) (A) (A) (A) (A) (A) (A)
                 (A) (A) (A) (A) (A) (A) (A) (A) (A) (A) (A) (A)
                 (A) (A) (A) (A) (A) (A) (A) (A) (A) (A) (A) (A)
                 (A) (A) (A) (A) (A) (A) (A) (A) (A) (A) (A) (A)
                 (A) (A) (A) (A) (A) (A) (A) (A) (A) (A) (A) (A)
                 (A) (A) (A) (A) (A) (A) (A) (A) (A) (A) (A) (A)
                 (A) (A) (A) (A) (A) (A) (A) (A) (A) (A) (A) (A)
                 (A) (A) (A) (A) (A) (A) (A) (A) (A) (A) (A) (A)
                 (A)
 The electronic state of the initial guess is 1-A.
 Requested convergence on RMS density matrix=1.00D-08 within 128 cycles.
 Requested convergence on MAX density matrix=1.00D-06.
 Requested convergence on             energy=1.00D-06.
 No special actions if energy rises.
 Integral accuracy reduced to 1.0D-05 until final iterations.
 Initial convergence to 1.0D-05 achieved.  Increase integral accuracy.
 SCF Done:  E(RHF) =  -461.008536522     A.U. after   13 cycles
             Convg  =    0.9009D-08             -V/T =  2.0018
 ExpMin= 1.03D-01 ExpMax= 1.53D+04 ExpMxC= 5.22D+02 IAcc=1 IRadAn=         1 AccDes= 0.00D+00
 HarFok:  IExCor=  205 AccDes= 0.00D+00 IRadAn=         1 IDoV=-2
 ScaDFX=  1.000000  1.000000  1.000000  1.000000
 Range of M.O.s used for correlation:    11   496
 NBasis=   496 NAE=    39 NBE=    39 NFC=    10 NFV=     0
 NROrb=    486 NOA=    29 NOB=    29 NVA=   457 NVB=   457

 **** Warning!!: The largest alpha MO coefficient is  0.12010156D+02

 Fully direct method using O(OVN) memory.
 JobTyp=1 Pass  1:  I=   1 to  29 NPSUse=  4 ParTrn=T ParDer=T DoDerP=F.
 Spin components of T(2) and E(2):
     alpha-alpha T2 =       0.6828221337D-01 E2=     -0.2192018328D+00
     alpha-beta  T2 =       0.3975897699D+00 E2=     -0.1385799537D+01
     beta-beta   T2 =       0.6828221337D-01 E2=     -0.2192018328D+00
 ANorm=    0.1238609784D+01
 E2 =    -0.1824203203D+01 EUMP2 =    -0.46283273972538D+03

 **********************************************************************

            Population analysis using the SCF density.

 **********************************************************************

 Orbital symmetries:
       Occupied  (A) (A) (A) (A) (A) (A) (A) (A) (A) (A) (A) (A)
                 (A) (A) (A) (A) (A) (A) (A) (A) (A) (A) (A) (A)
                 (A) (A) (A) (A) (A) (A) (A) (A) (A) (A) (A) (A)
                 (A) (A) (A)
       Virtual   (A) (A) (A) (A) (A) (A) (A) (A) (A) (A) (A) (A)
                 (A) (A) (A) (A) (A) (A) (A) (A) (A) (A) (A) (A)
                 (A) (A) (A) (A) (A) (A) (A) (A) (A) (A) (A) (A)
                 (A) (A) (A) (A) (A) (A) (A) (A) (A) (A) (A) (A)
                 (A) (A) (A) (A) (A) (A) (A) (A) (A) (A) (A) (A)
                 (A) (A) (A) (A) (A) (A) (A) (A) (A) (A) (A) (A)
                 (A) (A) (A) (A) (A) (A) (A) (A) (A) (A) (A) (A)
                 (A) (A) (A) (A) (A) (A) (A) (A) (A) (A) (A) (A)
                 (A) (A) (A) (A) (A) (A) (A) (A) (A) (A) (A) (A)
                 (A) (A) (A) (A) (A) (A) (A) (A) (A) (A) (A) (A)
                 (A) (A) (A) (A) (A) (A) (A) (A) (A) (A) (A) (A)
                 (A) (A) (A) (A) (A) (A) (A) (A) (A) (A) (A) (A)
                 (A) (A) (A) (A) (A) (A) (A) (A) (A) (A) (A) (A)
                 (A) (A) (A) (A) (A) (A) (A) (A) (A) (A) (A) (A)
                 (A) (A) (A) (A) (A) (A) (A) (A) (A) (A) (A) (A)
                 (A) (A) (A) (A) (A) (A) (A) (A) (A) (A) (A) (A)
                 (A) (A) (A) (A) (A) (A) (A) (A) (A) (A) (A) (A)
                 (A) (A) (A) (A) (A) (A) (A) (A) (A) (A) (A) (A)
                 (A) (A) (A) (A) (A) (A) (A) (A) (A) (A) (A) (A)
                 (A) (A) (A) (A) (A) (A) (A) (A) (A) (A) (A) (A)
                 (A) (A) (A) (A) (A) (A) (A) (A) (A) (A) (A) (A)
                 (A) (A) (A) (A) (A) (A) (A) (A) (A) (A) (A) (A)
                 (A) (A) (A) (A) (A) (A) (A) (A) (A) (A) (A) (A)
                 (A) (A) (A) (A) (A) (A) (A) (A) (A) (A) (A) (A)
                 (A) (A) (A) (A) (A) (A) (A) (A) (A) (A) (A) (A)
                 (A) (A) (A) (A) (A) (A) (A) (A) (A) (A) (A) (A)
                 (A) (A) (A) (A) (A) (A) (A) (A) (A) (A) (A) (A)
                 (A) (A) (A) (A) (A) (A) (A) (A) (A) (A) (A) (A)
                 (A) (A) (A) (A) (A) (A) (A) (A) (A) (A) (A) (A)
                 (A) (A) (A) (A) (A) (A) (A) (A) (A) (A) (A) (A)
                 (A) (A) (A) (A) (A) (A) (A) (A) (A) (A) (A) (A)
                 (A) (A) (A) (A) (A) (A) (A) (A) (A) (A) (A) (A)
                 (A) (A) (A) (A) (A) (A) (A) (A) (A) (A) (A) (A)
                 (A) (A) (A) (A) (A) (A) (A) (A) (A) (A) (A) (A)
                 (A) (A) (A) (A) (A) (A) (A) (A) (A) (A) (A) (A)
                 (A) (A) (A) (A) (A) (A) (A) (A) (A) (A) (A) (A)
                 (A) (A) (A) (A) (A) (A) (A) (A) (A) (A) (A) (A)
                 (A) (A) (A) (A) (A) (A) (A) (A) (A) (A) (A) (A)
                 (A)
 The electronic state is 1-A.
 Alpha  occ. eigenvalues --  -20.59867 -20.53620 -11.37143 -11.28355 -11.24252
 Alpha  occ. eigenvalues --  -11.23024 -11.22445 -11.22323 -11.22209 -11.22110
 Alpha  occ. eigenvalues --   -1.44889  -1.34737  -1.12419  -1.03201  -1.00730
 Alpha  occ. eigenvalues --   -0.96393  -0.85841  -0.83768  -0.77541  -0.75003
 Alpha  occ. eigenvalues --   -0.69727  -0.66929  -0.66317  -0.63540  -0.60542
 Alpha  occ. eigenvalues --   -0.60226  -0.59940  -0.55686  -0.54575  -0.53119
 Alpha  occ. eigenvalues --   -0.52249  -0.50813  -0.49252  -0.48864  -0.46396
 Alpha  occ. eigenvalues --   -0.45889  -0.45404  -0.43421  -0.42350
 Alpha virt. eigenvalues --    0.13691   0.15171   0.15599   0.16316   0.17495
 Alpha virt. eigenvalues --    0.18129   0.20413   0.21080   0.21512   0.22051
 Alpha virt. eigenvalues --    0.22606   0.23191   0.23443   0.24834   0.25238
 Alpha virt. eigenvalues --    0.25714   0.29571   0.32478   0.34983   0.35886
 Alpha virt. eigenvalues --    0.36762   0.38222   0.38829   0.39400   0.40222
 Alpha virt. eigenvalues --    0.40967   0.42205   0.43148   0.44544   0.45949
 Alpha virt. eigenvalues --    0.47702   0.48965   0.50391   0.52986   0.54220
 Alpha virt. eigenvalues --    0.54799   0.55671   0.56032   0.57833   0.58817
 Alpha virt. eigenvalues --    0.59494   0.60125   0.60164   0.60920   0.61701
 Alpha virt. eigenvalues --    0.61892   0.62341   0.63159   0.63812   0.64357
 Alpha virt. eigenvalues --    0.65146   0.65719   0.66460   0.67378   0.67746
 Alpha virt. eigenvalues --    0.68333   0.70005   0.70500   0.70982   0.72305
 Alpha virt. eigenvalues --    0.72923   0.76711   0.78134   0.78672   0.80001
 Alpha virt. eigenvalues --    0.82901   0.83013   0.84636   0.87060   0.88357
 Alpha virt. eigenvalues --    0.89151   0.91883   0.92437   0.94938   0.96447
 Alpha virt. eigenvalues --    0.97678   0.98457   0.99947   1.01234   1.02772
 Alpha virt. eigenvalues --    1.05017   1.05957   1.07122   1.08240   1.09393
 Alpha virt. eigenvalues --    1.11126   1.11487   1.13095   1.14363   1.15335
 Alpha virt. eigenvalues --    1.16804   1.17186   1.19189   1.20810   1.21580
 Alpha virt. eigenvalues --    1.23015   1.23483   1.24963   1.26653   1.27261
 Alpha virt. eigenvalues --    1.27789   1.29267   1.30194   1.31408   1.31915
 Alpha virt. eigenvalues --    1.32038   1.32846   1.34320   1.35457   1.37117
 Alpha virt. eigenvalues --    1.37800   1.38624   1.40183   1.41720   1.42943
 Alpha virt. eigenvalues --    1.43495   1.45100   1.46070   1.47169   1.47773
 Alpha virt. eigenvalues --    1.49238   1.49448   1.50185   1.50731   1.52875
 Alpha virt. eigenvalues --    1.53351   1.54431   1.55275   1.55937   1.57065
 Alpha virt. eigenvalues --    1.57876   1.59910   1.61296   1.62587   1.63682
 Alpha virt. eigenvalues --    1.65091   1.65930   1.66831   1.67474   1.68871
 Alpha virt. eigenvalues --    1.70375   1.71236   1.73262   1.74276   1.77103
 Alpha virt. eigenvalues --    1.78803   1.81274   1.81849   1.82339   1.84386
 Alpha virt. eigenvalues --    1.86456   1.88519   1.90180   1.90798   1.92470
 Alpha virt. eigenvalues --    1.94581   1.96291   1.99704   2.03554   2.05186
 Alpha virt. eigenvalues --    2.06846   2.10200   2.12543   2.15419   2.26501
 Alpha virt. eigenvalues --    2.27988   2.35972   2.41460   2.45923   2.48027
 Alpha virt. eigenvalues --    2.50615   2.51461   2.58275   2.60728   2.62620
 Alpha virt. eigenvalues --    2.64085   2.66281   2.69311   2.70011   2.71137
 Alpha virt. eigenvalues --    2.75528   2.77317   2.78883   2.80329   2.82249
 Alpha virt. eigenvalues --    2.83476   2.84334   2.84857   2.85057   2.86389
 Alpha virt. eigenvalues --    2.88849   2.89286   2.91320   2.94215   2.94331
 Alpha virt. eigenvalues --    2.95090   2.96203   2.97315   2.97779   2.98872
 Alpha virt. eigenvalues --    2.99735   2.99960   3.01528   3.01698   3.03270
 Alpha virt. eigenvalues --    3.04382   3.06583   3.07398   3.09597   3.10516
 Alpha virt. eigenvalues --    3.11121   3.12425   3.15967   3.18762   3.19739
 Alpha virt. eigenvalues --    3.20784   3.21558   3.23099   3.23994   3.24662
 Alpha virt. eigenvalues --    3.25975   3.27797   3.28656   3.29560   3.31726
 Alpha virt. eigenvalues --    3.32078   3.34047   3.35093   3.36695   3.39007
 Alpha virt. eigenvalues --    3.39751   3.41005   3.41921   3.42530   3.42950
 Alpha virt. eigenvalues --    3.43895   3.44900   3.45829   3.47098   3.47759
 Alpha virt. eigenvalues --    3.48114   3.48326   3.48953   3.49407   3.50999
 Alpha virt. eigenvalues --    3.52452   3.53072   3.53523   3.54379   3.56178
 Alpha virt. eigenvalues --    3.56776   3.58944   3.59585   3.60188   3.60423
 Alpha virt. eigenvalues --    3.62109   3.64671   3.65070   3.66741   3.68340
 Alpha virt. eigenvalues --    3.69159   3.70413   3.71146   3.72361   3.72681
 Alpha virt. eigenvalues --    3.75022   3.75683   3.77937   3.79427   3.79556
 Alpha virt. eigenvalues --    3.81282   3.81602   3.83167   3.84001   3.84556
 Alpha virt. eigenvalues --    3.85537   3.88787   3.90137   3.91870   3.93350
 Alpha virt. eigenvalues --    3.93669   3.96164   3.96681   3.98414   3.99151
 Alpha virt. eigenvalues --    4.00803   4.01561   4.02743   4.03768   4.06689
 Alpha virt. eigenvalues --    4.07566   4.08399   4.09046   4.09309   4.09983
 Alpha virt. eigenvalues --    4.10667   4.12832   4.13910   4.15592   4.17296
 Alpha virt. eigenvalues --    4.18248   4.19410   4.19948   4.21234   4.21685
 Alpha virt. eigenvalues --    4.24507   4.25159   4.26340   4.27063   4.28525
 Alpha virt. eigenvalues --    4.32137   4.32769   4.34778   4.34871   4.34948
 Alpha virt. eigenvalues --    4.36054   4.36465   4.37431   4.37781   4.39429
 Alpha virt. eigenvalues --    4.39655   4.41301   4.41836   4.43145   4.44612
 Alpha virt. eigenvalues --    4.46293   4.48713   4.50061   4.50674   4.51989
 Alpha virt. eigenvalues --    4.53568   4.53750   4.54977   4.55221   4.56240
 Alpha virt. eigenvalues --    4.58601   4.59190   4.61928   4.62507   4.62939
 Alpha virt. eigenvalues --    4.65236   4.66046   4.66253   4.67486   4.69479
 Alpha virt. eigenvalues --    4.69664   4.72279   4.74889   4.78261   4.78842
 Alpha virt. eigenvalues --    4.79471   4.80814   4.84694   4.87309   4.90494
 Alpha virt. eigenvalues --    4.91986   4.95210   4.95491   4.99286   5.00140
 Alpha virt. eigenvalues --    5.01694   5.03217   5.03785   5.04419   5.05918
 Alpha virt. eigenvalues --    5.11165   5.14098   5.17259   5.17623   5.18261
 Alpha virt. eigenvalues --    5.19070   5.20290   5.23139   5.25242   5.28938
 Alpha virt. eigenvalues --    5.29507   5.30925   5.32688   5.33816   5.34581
 Alpha virt. eigenvalues --    5.34871   5.36707   5.38680   5.40417   5.41504
 Alpha virt. eigenvalues --    5.42059   5.42574   5.44082   5.46212   5.48422
 Alpha virt. eigenvalues --    5.52658   5.54230   5.56141   5.58466   5.61576
 Alpha virt. eigenvalues --    5.62919   5.63134   5.63424   5.65660   5.67804
 Alpha virt. eigenvalues --    5.70743   5.72141   5.73371   5.76824   5.78659
 Alpha virt. eigenvalues --    5.79783   5.82266   5.83147   5.83584   5.84660
 Alpha virt. eigenvalues --    5.87925   5.88583   5.88835   5.90653   5.96731
 Alpha virt. eigenvalues --    5.98156   5.98815   6.00350   6.08892   6.11379
 Alpha virt. eigenvalues --    6.13356   6.17219   6.19049   6.22106   6.29653
 Alpha virt. eigenvalues --    6.37341   6.37563   6.42531   6.46900   6.48343
 Alpha virt. eigenvalues --    6.50345   6.58053   6.66948   6.73428   6.75332
 Alpha virt. eigenvalues --    6.83870   6.91598   7.01426   7.22464   7.24688
 Alpha virt. eigenvalues --    7.35438   7.39018   7.45401   7.56107   7.63421
 Alpha virt. eigenvalues --    7.82948   7.94242   9.97333  11.84219  12.33019
 Alpha virt. eigenvalues --   12.92832  13.22838  13.51590  13.58822  13.67860
 Alpha virt. eigenvalues --   13.76697  14.18156
          Condensed to atoms (all electrons):
              1          2          3          4          5          6
     1  C    4.892860   0.319195  -0.034163  -0.001029  -0.041764   0.348067
     2  C    0.319195   5.026414   0.323460  -0.034186  -0.004569  -0.037599
     3  C   -0.034163   0.323460   4.888418   0.339096  -0.040508  -0.001836
     4  C   -0.001029  -0.034186   0.339096   4.891625   0.341553  -0.038880
     5  C   -0.041764  -0.004569  -0.040508   0.341553   4.870841   0.343467
     6  C    0.348067  -0.037599  -0.001836  -0.038880   0.343467   4.881094
     7  C   -0.033492   0.349347  -0.050405   0.001153   0.000054   0.000270
     8  O   -0.000655  -0.072599   0.003432  -0.000007  -0.000020  -0.000064
     9  C   -0.000390   0.006899  -0.000513   0.000004   0.000001   0.000008
    10  O    0.002985  -0.081184   0.006488   0.001091  -0.000206   0.000138
    11  H    0.005595  -0.039536   0.434227  -0.035666   0.005708  -0.000769
    12  H   -0.001331  -0.034587   0.419560  -0.037579  -0.001012  -0.000731
    13  H   -0.000995   0.006232  -0.038164   0.437368  -0.035521   0.006335
    14  H    0.000364  -0.001766  -0.036268   0.416714  -0.038630  -0.002878
    15  H   -0.000767  -0.000493  -0.000332  -0.039106   0.422302  -0.039380
    16  H    0.006352  -0.000794   0.006341  -0.037693   0.437770  -0.037671
    17  H   -0.023316   0.409109  -0.029350  -0.003115   0.000135  -0.002744
    18  H   -0.036620   0.006418  -0.001075   0.006256  -0.035321   0.435573
    19  H   -0.039677  -0.001174   0.000752  -0.002445  -0.038588   0.420470
    20  H    0.419423  -0.043706  -0.000443  -0.000602  -0.001610  -0.033855
    21  H    0.426391  -0.034508   0.006195  -0.000688   0.005437  -0.033776
    22  H    0.000049   0.000657  -0.000017  -0.000001   0.000000  -0.000001
    23  H   -0.000154  -0.001067   0.000302   0.000003   0.000000  -0.000001
    24  H    0.000270   0.000286  -0.000124  -0.000002   0.000000   0.000000
              7          8          9         10         11         12
     1  C   -0.033492  -0.000655  -0.000390   0.002985   0.005595  -0.001331
     2  C    0.349347  -0.072599   0.006899  -0.081184  -0.039536  -0.034587
     3  C   -0.050405   0.003432  -0.000513   0.006488   0.434227   0.419560
     4  C    0.001153  -0.000007   0.000004   0.001091  -0.035666  -0.037579
     5  C    0.000054  -0.000020   0.000001  -0.000206   0.005708  -0.001012
     6  C    0.000270  -0.000064   0.000008   0.000138  -0.000769  -0.000731
     7  C    4.328476   0.404283  -0.045900   0.690424  -0.003025  -0.002091
     8  O    0.404283   7.875351   0.280959  -0.078559   0.000163   0.000399
     9  C   -0.045900   0.280959   4.579130  -0.002088  -0.000026  -0.000017
    10  O    0.690424  -0.078559  -0.002088   7.859749   0.000801   0.008643
    11  H   -0.003025   0.000163  -0.000026   0.000801   0.559844  -0.025026
    12  H   -0.002091   0.000399  -0.000017   0.008643  -0.025026   0.548874
    13  H   -0.000243   0.000003   0.000000   0.000009  -0.004962  -0.004348
    14  H    0.000533  -0.000024   0.000001  -0.000020  -0.004684   0.006034
    15  H    0.000180   0.000000   0.000000  -0.000041  -0.000097   0.001368
    16  H    0.000052   0.000000   0.000000  -0.000002  -0.000261  -0.000119
    17  H   -0.024419   0.008207  -0.000109   0.002925  -0.002909   0.005194
    18  H   -0.000159  -0.000003  -0.000001   0.000008   0.000096  -0.000064
    19  H    0.000455  -0.000018   0.000001  -0.000015  -0.000106   0.000037
    20  H    0.001283  -0.000051  -0.000027   0.005387  -0.000125   0.002068
    21  H   -0.004729   0.005021  -0.000247  -0.000299  -0.000294  -0.000069
    22  H    0.003063  -0.029619   0.414198   0.000910   0.000001  -0.000001
    23  H   -0.005428  -0.036975   0.418737   0.005581  -0.000017  -0.000013
    24  H   -0.003620  -0.038163   0.415922   0.005255   0.000000  -0.000013
             13         14         15         16         17         18
     1  C   -0.000995   0.000364  -0.000767   0.006352  -0.023316  -0.036620
     2  C    0.006232  -0.001766  -0.000493  -0.000794   0.409109   0.006418
     3  C   -0.038164  -0.036268  -0.000332   0.006341  -0.029350  -0.001075
     4  C    0.437368   0.416714  -0.039106  -0.037693  -0.003115   0.006256
     5  C   -0.035521  -0.038630   0.422302   0.437770   0.000135  -0.035321
     6  C    0.006335  -0.002878  -0.039380  -0.037671  -0.002744   0.435573
     7  C   -0.000243   0.000533   0.000180   0.000052  -0.024419  -0.000159
     8  O    0.000003  -0.000024   0.000000   0.000000   0.008207  -0.000003
     9  C    0.000000   0.000001   0.000000   0.000000  -0.000109  -0.000001
    10  O    0.000009  -0.000020  -0.000041  -0.000002   0.002925   0.000008
    11  H   -0.004962  -0.004684  -0.000097  -0.000261  -0.002909   0.000096
    12  H   -0.004348   0.006034   0.001368  -0.000119   0.005194  -0.000064
    13  H    0.563194  -0.031248  -0.004972  -0.004698  -0.000066  -0.000276
    14  H   -0.031248   0.599713   0.006909  -0.004669   0.001195  -0.000153
    15  H   -0.004972   0.006909   0.591715  -0.031167   0.000031  -0.004798
    16  H   -0.004698  -0.004669  -0.031167   0.566526  -0.000182  -0.004728
    17  H   -0.000066   0.001195   0.000031  -0.000182   0.525283   0.000020
    18  H   -0.000276  -0.000153  -0.004798  -0.004728   0.000020   0.562718
    19  H   -0.000145   0.001920   0.006788  -0.004701   0.001021  -0.030730
    20  H   -0.000063   0.000010   0.001254  -0.000106   0.005747  -0.004863
    21  H    0.000096  -0.000096  -0.000046  -0.000254  -0.003226  -0.004986
    22  H    0.000000   0.000000   0.000000   0.000000  -0.000212   0.000000
    23  H    0.000000   0.000000   0.000000   0.000000  -0.000112   0.000000
    24  H    0.000000   0.000000   0.000000   0.000000   0.000214   0.000000
             19         20         21         22         23         24
     1  C   -0.039677   0.419423   0.426391   0.000049  -0.000154   0.000270
     2  C   -0.001174  -0.043706  -0.034508   0.000657  -0.001067   0.000286
     3  C    0.000752  -0.000443   0.006195  -0.000017   0.000302  -0.000124
     4  C   -0.002445  -0.000602  -0.000688  -0.000001   0.000003  -0.000002
     5  C   -0.038588  -0.001610   0.005437   0.000000   0.000000   0.000000
     6  C    0.420470  -0.033855  -0.033776  -0.000001  -0.000001   0.000000
     7  C    0.000455   0.001283  -0.004729   0.003063  -0.005428  -0.003620
     8  O   -0.000018  -0.000051   0.005021  -0.029619  -0.036975  -0.038163
     9  C    0.000001  -0.000027  -0.000247   0.414198   0.418737   0.415922
    10  O   -0.000015   0.005387  -0.000299   0.000910   0.005581   0.005255
    11  H   -0.000106  -0.000125  -0.000294   0.000001  -0.000017   0.000000
    12  H    0.000037   0.002068  -0.000069  -0.000001  -0.000013  -0.000013
    13  H   -0.000145  -0.000063   0.000096   0.000000   0.000000   0.000000
    14  H    0.001920   0.000010  -0.000096   0.000000   0.000000   0.000000
    15  H    0.006788   0.001254  -0.000046   0.000000   0.000000   0.000000
    16  H   -0.004701  -0.000106  -0.000254   0.000000   0.000000   0.000000
    17  H    0.001021   0.005747  -0.003226  -0.000212  -0.000112   0.000214
    18  H   -0.030730  -0.004863  -0.004986   0.000000   0.000000   0.000000
    19  H    0.594071   0.006077  -0.004323   0.000000   0.000000  -0.000001
    20  H    0.006077   0.563248  -0.028017  -0.000002  -0.000029   0.000072
    21  H   -0.004323  -0.028017   0.555416  -0.000029   0.000091  -0.000252
    22  H    0.000000  -0.000002  -0.000029   0.564846  -0.031812  -0.031661
    23  H    0.000000  -0.000029   0.000091  -0.031812   0.603823  -0.047393
    24  H   -0.000001   0.000072  -0.000252  -0.031661  -0.047393   0.606388
 Mulliken atomic charges:
              1
     1  C   -0.207196
     2  C   -0.060248
     3  C   -0.195072
     4  C   -0.203866
     5  C   -0.189521
     6  C   -0.205239
     7  C    0.393936
     8  O   -0.321061
     9  C   -0.066543
    10  O   -0.427980
    11  H    0.111066
    12  H    0.114824
    13  H    0.112467
    14  H    0.087042
    15  H    0.090651
    16  H    0.110004
    17  H    0.130680
    18  H    0.112687
    19  H    0.090331
    20  H    0.108928
    21  H    0.117194
    22  H    0.109630
    23  H    0.094461
    24  H    0.092822
 Sum of Mulliken atomic charges =   0.00000
 Mulliken charges with hydrogens summed into heavy atoms:
              1
     1  C    0.018926
     2  C    0.070433
     3  C    0.030818
     4  C   -0.004357
     5  C    0.011134
     6  C   -0.002221
     7  C    0.393936
     8  O   -0.321061
     9  C    0.230370
    10  O   -0.427980
 Sum of Mulliken charges with hydrogens summed into heavy atoms =   0.00000
 Electronic spatial extent (au):  <R**2>=           1853.5042
 Charge=              0.0000 electrons
 Dipole moment (field-independent basis, Debye):
    X=             -0.3819    Y=              1.1082    Z=             -1.5055  Tot=              1.9080
 Quadrupole moment (field-independent basis, Debye-Ang):
   XX=            -55.4664   YY=            -62.7653   ZZ=            -65.3533
   XY=              2.4490   XZ=             -3.1493   YZ=              2.9260
 Traceless Quadrupole moment (field-independent basis, Debye-Ang):
   XX=              5.7286   YY=             -1.5703   ZZ=             -4.1583
   XY=              2.4490   XZ=             -3.1493   YZ=              2.9260
 Octapole moment (field-independent basis, Debye-Ang**2):
  XXX=             56.2973  YYY=             -0.7694  ZZZ=             -2.2977  XYY=              4.6739
  XXY=              5.9489  XXZ=             -6.4303  XZZ=             -0.6902  YZZ=              3.0895
  YYZ=             -1.2660  XYZ=              5.1899
 Hexadecapole moment (field-independent basis, Debye-Ang**3):
 XXXX=          -1687.7480 YYYY=           -406.8788 ZZZZ=           -205.4210 XXXY=             19.0654
 XXXZ=            -20.3681 YYYX=              2.2010 YYYZ=             -0.3217 ZZZX=             -7.3496
 ZZZY=             -2.0590 XXYY=           -374.9670 XXZZ=           -351.7607 YYZZ=           -104.1469
 XXYZ=              4.6186 YYXZ=             -7.0894 ZZXY=              5.9679
 N-N= 5.598457495389D+02 E-N=-2.198568739953D+03  KE= 4.601622783052D+02
 1\1\GINC-ROCK\SP\RMP2-FC\CC-pVTZ\C8H14O2\STYLIANAKIS\02-Mar-2016\0\\# 
 mp2/cc-pVTZ\\me_cyclohexanecarboxylate-eq_single_point\\0,1\C\C,1,1.55
 0193\C,2,1.540948,1,110.787\C,3,1.536402,2,111.355,1,55.306,0\C,4,1.53
 6529,3,111.763,2,-55.24,0\C,5,1.536415,4,111.333,3,54.589,0\C,2,1.5167
 86,3,111.355,4,177.368,0\O,7,1.355356,2,111.659,3,141.018,0\C,8,1.4407
 32,7,115.965,2,177.417,0\O,7,1.215722,2,125.481,3,-40.575,0\H,3,1.0967
 86,4,110.256,5,-177.43,0\H,3,1.096734,4,110.091,5,65.262,0\H,4,1.09675
 9,3,109.623,2,-177.802,0\H,4,1.099935,3,109.414,2,65.86,0\H,5,1.099559
 ,4,109.197,3,-66.033,0\H,5,1.096887,4,110.243,3,177.192,0\H,2,1.097104
 ,3,109.512,4,-63.842,0\H,6,1.096885,5,110.381,4,-176.825,0\H,6,1.09968
 ,5,109.317,4,66.329,0\H,1,1.098213,2,108.597,3,65.453,0\H,1,1.09647,2,
 109.808,3,-177.728,0\H,9,1.089762,8,105.435,7,-179.73,0\H,9,1.092655,8
 ,110.428,7,60.659,0\H,9,1.092771,8,110.443,7,-60.085,0\\Version=EM64L-
 G09RevA.01\State=1-A\HF=-461.0085365\MP2=-462.8327397\RMSD=9.009e-09\P
 G=C01 [X(C8H14O2)]\\@



 WE LOSE BECAUSE WE WIN

 GAMBLERS,

 RECOLLECTING WHICH,

 TOSS THEIR DICE AGAIN....


                          EMILY DICKINSON  BOLTS OF MELODY NO. 533
 Job cpu time:  0 days  2 hours  9 minutes 15.2 seconds.
 File lengths (MBytes):  RWF=    134 Int=      0 D2E=      0 Chk=     11 Scr=      1
 Normal termination of Gaussian 09 at Wed Mar  2 07:51:16 2016.
