 Entering Gaussian System, Link 0=g09
 Input=methylcyclohexane-ax.gjf
 Output=methylcyclohexane-ax.out
 Initial command:
 /usr/local/g09/l1.exe /home/scratch/stylianakis/Gau-21432.inp -scrdir=/home/scratch/stylianakis/
 Entering Link 1 = /usr/local/g09/l1.exe PID=     21433.
  
 Copyright (c) 1988,1990,1992,1993,1995,1998,2003,2009, Gaussian, Inc.
                  All Rights Reserved.
  
 This is part of the Gaussian(R) 09 program.  It is based on
 the Gaussian(R) 03 system (copyright 2003, Gaussian, Inc.),
 the Gaussian(R) 98 system (copyright 1998, Gaussian, Inc.),
 the Gaussian(R) 94 system (copyright 1995, Gaussian, Inc.),
 the Gaussian 92(TM) system (copyright 1992, Gaussian, Inc.),
 the Gaussian 90(TM) system (copyright 1990, Gaussian, Inc.),
 the Gaussian 88(TM) system (copyright 1988, Gaussian, Inc.),
 the Gaussian 86(TM) system (copyright 1986, Carnegie Mellon
 University), and the Gaussian 82(TM) system (copyright 1983,
 Carnegie Mellon University). Gaussian is a federally registered
 trademark of Gaussian, Inc.
  
 This software contains proprietary and confidential information,
 including trade secrets, belonging to Gaussian, Inc.
  
 This software is provided under written license and may be
 used, copied, transmitted, or stored only in accord with that
 written license.
  
 The following legend is applicable only to US Government
 contracts under FAR:
  
                    RESTRICTED RIGHTS LEGEND
  
 Use, reproduction and disclosure by the US Government is
 subject to restrictions as set forth in subparagraphs (a)
 and (c) of the Commercial Computer Software - Restricted
 Rights clause in FAR 52.227-19.
  
 Gaussian, Inc.
 340 Quinnipiac St., Bldg. 40, Wallingford CT 06492
  
  
 ---------------------------------------------------------------
 Warning -- This program may not be used in any manner that
 competes with the business of Gaussian, Inc. or will provide
 assistance to any competitor of Gaussian, Inc.  The licensee
 of this program is prohibited from giving any competitor of
 Gaussian, Inc. access to this program.  By using this program,
 the user acknowledges that Gaussian, Inc. is engaged in the
 business of creating and licensing software in the field of
 computational chemistry and represents and warrants to the
 licensee that it is not a competitor of Gaussian, Inc. and that
 it will not use this program in any manner prohibited above.
 ---------------------------------------------------------------
  

 Cite this work as:
 Gaussian 09, Revision A.01,
 M. J. Frisch, G. W. Trucks, H. B. Schlegel, G. E. Scuseria, 
 M. A. Robb, J. R. Cheeseman, G. Scalmani, V. Barone, B. Mennucci, 
 G. A. Petersson, H. Nakatsuji, M. Caricato, X. Li, H. P. Hratchian, 
 A. F. Izmaylov, J. Bloino, G. Zheng, J. L. Sonnenberg, M. Hada, 
 M. Ehara, K. Toyota, R. Fukuda, J. Hasegawa, M. Ishida, T. Nakajima, 
 Y. Honda, O. Kitao, H. Nakai, T. Vreven, J. A. Montgomery, Jr., 
 J. E. Peralta, F. Ogliaro, M. Bearpark, J. J. Heyd, E. Brothers, 
 K. N. Kudin, V. N. Staroverov, R. Kobayashi, J. Normand, 
 K. Raghavachari, A. Rendell, J. C. Burant, S. S. Iyengar, J. Tomasi, 
 M. Cossi, N. Rega, J. M. Millam, M. Klene, J. E. Knox, J. B. Cross, 
 V. Bakken, C. Adamo, J. Jaramillo, R. Gomperts, R. E. Stratmann, 
 O. Yazyev, A. J. Austin, R. Cammi, C. Pomelli, J. W. Ochterski, 
 R. L. Martin, K. Morokuma, V. G. Zakrzewski, G. A. Voth, 
 P. Salvador, J. J. Dannenberg, S. Dapprich, A. D. Daniels, 
 O. Farkas, J. B. Foresman, J. V. Ortiz, J. Cioslowski, 
 and D. J. Fox, Gaussian, Inc., Wallingford CT, 2009.
 
 ******************************************
 Gaussian 09:  EM64L-G09RevA.01  8-May-2009
                14-Feb-2016 
 ******************************************
 %mem=8000Mb
 %nproc=4
 Will use up to    4 processors via shared memory.
 -------------
 # mp2/cc-pVTZ
 -------------
 1/38=1/1;
 2/12=2,17=6,18=5,40=1/2;
 3/5=16,6=1,11=9,16=1,25=1,30=1/1,2,3;
 4//1;
 5/5=2,38=5/2;
 8/10=1/1;
 9/16=-3/6;
 6/7=2,8=2,9=2,10=2/1;
 99/5=1,9=1/99;
 ---------------------------------
 methylcyclohexane-ax_single_point
 ---------------------------------
 Symbolic Z-matrix:
 Charge =  0 Multiplicity = 1
 c
 c                    1    cc2
 c                    2    cc3      1    ccc3
 c                    3    cc4      2    ccc4     1    dih4     0
 c                    4    cc5      3    ccc5     2    dih5     0
 c                    5    cc6      4    ccc6     3    dih6     0
 c                    1    cc7      2    ccc7     3    dih7     0
 h                    3    hc8      4    hcc8     5    dih8     0
 h                    3    hc9      4    hcc9     5    dih9     0
 h                    4    hc10     3    hcc10    2    dih10    0
 h                    4    hc11     3    hcc11    2    dih11    0
 h                    5    hc12     4    hcc12    3    dih12    0
 h                    5    hc13     4    hcc13    3    dih13    0
 h                    2    hc14     3    hcc14    4    dih14    0
 h                    2    hc15     3    hcc15    4    dih15    0
 h                    6    hc16     5    hcc16    4    dih16    0
 h                    6    hc17     5    hcc17    4    dih17    0
 h                    1    hc18     2    hcc18    3    dih18    0
 h                    7    hc19     1    hcc19    2    dih19    0
 h                    7    hc20     1    hcc20    2    dih20    0
 h                    7    hc21     1    hcc21    2    dih21    0
       Variables:
  cc2                   1.54619                  
  cc3                   1.53848                  
  ccc3                113.108                    
  cc4                   1.53766                  
  ccc4                111.417                    
  dih4                 54.588                    
  cc5                   1.53766                  
  ccc5                111.417                    
  dih5                -54.475                    
  cc6                   1.53848                  
  ccc6                111.417                    
  dih6                 54.475                    
  cc7                   1.53885                  
  ccc7                112.442                    
  dih7                 73.085                    
  hc8                   1.09725                  
  hcc8                110.19                     
  dih8               -176.466                    
  hc9                   1.09871                  
  hcc9                109.316                    
  dih9                 67.232                    
  hc10                  1.09725                  
  hcc10               110.367                    
  dih10              -177.457                    
  hc11                  1.10035                  
  hcc11               109.023                    
  dih11                65.896                    
  hc12                  1.09871                  
  hcc12               109.315                    
  dih12               -67.232                    
  hc13                  1.09725                  
  hcc13               110.189                    
  dih13               176.467                    
  hc14                  1.09968                  
  hcc14               108.517                    
  dih14               -65.938                    
  hc15                  1.09793                  
  hcc15               110.183                    
  dih15               177.96                     
  hc16                  1.09793                  
  hcc16               110.183                    
  dih16              -177.961                    
  hc17                  1.09968                  
  hcc17               108.516                    
  dih17                65.938                    
  hc18                  1.09921                  
  hcc18               107.479                    
  dih18              -169.633                    
  hc19                  1.09495                  
  hcc19               112.508                    
  dih19               -62.329                    
  hc20                  1.09632                  
  hcc20               110.815                    
  dih20                57.934                    
  hc21                  1.09632                  
  hcc21               110.815                    
  dih21               177.408                    
 
                          Input orientation:                          
 ---------------------------------------------------------------------
 Center     Atomic      Atomic             Coordinates (Angstroms)
 Number     Number       Type             X           Y           Z
 ---------------------------------------------------------------------
      1          6           0        0.000000    0.000000    0.000000
      2          6           0        0.000000    0.000000    1.546185
      3          6           0        1.415041    0.000000    2.149985
      4          6           0        2.257010    1.166663    1.607425
      5          6           0        2.293969    1.165135    0.070210
      6          6           0        0.875647    1.160786   -0.525828
      7          6           0        0.413824   -1.360774   -0.587453
      8          1           0        1.350157    0.056412    3.243860
      9          1           0        1.919552   -0.949058    1.922138
     10          1           0        3.275293    1.124131    2.013920
     11          1           0        1.821183    2.115442    1.954777
     12          1           0        2.849808    0.284108   -0.279066
     13          1           0        2.846227    2.039622   -0.296171
     14          1           0       -0.529089    0.898223    1.896267
     15          1           0       -0.570886   -0.860597    1.918892
     16          1           0        0.925511    1.123093   -1.621976
     17          1           0        0.386485    2.111925   -0.270178
     18          1           0       -1.031343    0.188673   -0.330155
     19          1           0        1.435817   -1.642349   -0.313287
     20          1           0       -0.251841   -2.156647   -0.233331
     21          1           0        0.360545   -1.344860   -1.682366
 ---------------------------------------------------------------------
                    Distance matrix (angstroms):
                    1          2          3          4          5
     1  C    0.000000
     2  C    1.546185   0.000000
     3  C    2.573864   1.538478   0.000000
     4  C    3.006495   2.541446   1.537656   0.000000
     5  C    2.573861   2.966198   2.540770   1.537660   0.000000
     6  C    1.546182   2.531288   2.966200   2.541450   1.538479
     7  C    1.538849   2.564247   3.216785   3.821356   3.216781
     8  H    3.514077   2.169840   1.097249   2.175536   3.491718
     9  H    2.877500   2.174105   1.098707   2.165456   2.835425
    10  H    4.005882   3.494280   2.177779   1.097245   2.177771
    11  H    3.407779   2.821126   2.162904   1.100355   2.162916
    12  H    2.877499   3.396125   2.835412   2.165447   1.098708
    13  H    3.514084   3.956684   3.491709   2.175526   1.097248
    14  H    2.163925   1.099681   2.156576   2.813866   3.372741
    15  H    2.179147   1.097929   2.176680   3.493393   3.965930
    16  H    2.179155   3.486424   3.965938   3.493397   2.176681
    17  H    2.163930   2.812253   3.372735   2.813855   2.156564
    18  H    1.099213   2.149400   3.488766   3.940045   3.488763
    19  H    2.203867   2.866447   2.960650   3.500578   2.960652
    20  H    2.183803   2.807352   3.620748   4.552703   4.196131
    21  H    2.183803   3.515990   4.196132   4.552698   3.620735
                    6          7          8          9         10
     6  C    0.000000
     7  C    2.564243   0.000000
     8  H    3.956684   4.190954   0.000000
     9  H    3.396133   2.955465   1.755600   0.000000
    10  H    3.494276   4.596727   2.521690   2.478824   0.000000
    11  H    2.821136   4.530747   2.474510   3.066252   1.760861
    12  H    2.174114   2.955462   3.835597   2.689121   2.478802
    13  H    2.169858   4.190957   4.324716   3.835600   2.521655
    14  H    2.812253   3.487265   2.460939   3.067403   3.812899
    15  H    3.486417   2.738903   2.507360   2.492011   4.329118
    16  H    1.097929   2.738915   4.999449   4.224059   4.329113
    17  H    1.099682   3.487269   4.183570   4.065238   3.812880
    18  H    2.149396   2.134361   4.296816   3.882659   4.991682
    19  H    2.866450   1.094953   3.942895   2.389933   4.056227
    20  H    3.515985   1.096324   4.422091   3.289265   5.315479
    21  H    2.807343   1.096325   5.216378   3.947102   5.315469
                   11         12         13         14         15
    11  H    0.000000
    12  H    3.066253   0.000000
    13  H    2.474517   1.755601   0.000000
    14  H    2.647418   4.065238   4.183580   0.000000
    15  H    3.818388   4.224040   4.999444   1.759463   0.000000
    16  H    3.818397   2.492032   2.507376   3.813721   4.325734
    17  H    2.647413   3.067402   2.460942   2.646664   3.813721
    18  H    4.131618   3.882661   4.296827   2.390121   2.524124
    19  H    4.406089   2.389933   3.942900   3.898397   3.101712
    20  H    5.228383   3.947101   5.216383   3.734205   2.532508
    21  H    5.228381   3.289258   4.422089   4.316189   3.751151
                   16         17         18         19         20
    16  H    0.000000
    17  H    1.759459   0.000000
    18  H    2.524127   2.390132   0.000000
    19  H    3.101733   3.898401   3.072427   0.000000
    20  H    3.751158   4.316193   2.473363   1.766094   0.000000
    21  H    2.532513   3.734208   2.473368   1.766094   1.770232
                   21
    21  H    0.000000
 Stoichiometry    C7H14
 Framework group  C1[X(C7H14)]
 Deg. of freedom    57
 Full point group                 C1      NOp   1
 Largest Abelian subgroup         C1      NOp   1
 Largest concise Abelian subgroup C1      NOp   1
                         Standard orientation:                         
 ---------------------------------------------------------------------
 Center     Atomic      Atomic             Coordinates (Angstroms)
 Number     Number       Type             X           Y           Z
 ---------------------------------------------------------------------
      1          6           0        1.130423    0.000001    0.493654
      2          6           0        0.252838    1.265645    0.630319
      3          6           0       -0.952940    1.270383   -0.325187
      4          6           0       -1.803731   -0.000002   -0.161900
      5          6           0       -0.952933   -1.270387   -0.325186
      6          6           0        0.252845   -1.265643    0.630321
      7          6           0        1.963994    0.000001   -0.799875
      8          1           0       -1.565427    2.162360   -0.143000
      9          1           0       -0.606479    1.344567   -1.365196
     10          1           0       -2.632007   -0.000014   -0.881557
     11          1           0       -2.259760    0.000005    0.839508
     12          1           0       -0.606480   -1.344554   -1.365200
     13          1           0       -1.565435   -2.162355   -0.143013
     14          1           0       -0.119899    1.323332    1.663295
     15          1           0        0.865429    2.162864    0.471648
     16          1           0        0.865431   -2.162869    0.471662
     17          1           0       -0.119909   -1.323331    1.663291
     18          1           0        1.842517    0.000003    1.331026
     19          1           0        1.340759    0.000006   -1.700153
     20          1           0        2.609148    0.885114   -0.847593
     21          1           0        2.609142   -0.885117   -0.847597
 ---------------------------------------------------------------------
 Rotational constants (GHZ):      3.4801913      2.4928074      1.8921818
 Standard basis: CC-pVTZ (5D, 7F)
 There are   406 symmetry adapted basis functions of A   symmetry.
 Integral buffers will be    131072 words long.
 Raffenetti 1 integral format.
 Two-electron integral symmetry is turned on.
   406 basis functions,   602 primitive gaussians,   455 cartesian basis functions
    28 alpha electrons       28 beta electrons
       nuclear repulsion energy       331.0503538955 Hartrees.
 NAtoms=   21 NActive=   21 NUniq=   21 SFac= 7.50D-01 NAtFMM=   80 NAOKFM=F Big=F
 One-electron integrals computed using PRISM.
 NBasis=   406 RedAO= T  NBF=   406
 NBsUse=   406 1.00D-06 NBFU=   406
 Harris functional with IExCor=  205 diagonalized for initial guess.
 ExpMin= 1.03D-01 ExpMax= 8.24D+03 ExpMxC= 2.81D+02 IAcc=1 IRadAn=         1 AccDes= 0.00D+00
 HarFok:  IExCor=  205 AccDes= 0.00D+00 IRadAn=         1 IDoV= 1
 ScaDFX=  1.000000  1.000000  1.000000  1.000000
 FoFCou: FMM=F IPFlag=           0 FMFlag=      100000 FMFlg1=           0
         NFxFlg=           0 DoJE=T BraDBF=F KetDBF=T FulRan=T
         Omega=  0.000000  0.000000  1.000000  0.000000  0.000000 ICntrl=     500 IOpCl=  0
         NMat0=    1 NMatS0=    1 NMatT0=    0 NMatD0=    1 NMtDS0=    0 NMtDT0=    0
         I1Cent=           4 NGrid=           0.
 Petite list used in FoFCou.
 Initial guess orbital symmetries:
       Occupied  (A) (A) (A) (A) (A) (A) (A) (A) (A) (A) (A) (A)
                 (A) (A) (A) (A) (A) (A) (A) (A) (A) (A) (A) (A)
                 (A) (A) (A) (A)
       Virtual   (A) (A) (A) (A) (A) (A) (A) (A) (A) (A) (A) (A)
                 (A) (A) (A) (A) (A) (A) (A) (A) (A) (A) (A) (A)
                 (A) (A) (A) (A) (A) (A) (A) (A) (A) (A) (A) (A)
                 (A) (A) (A) (A) (A) (A) (A) (A) (A) (A) (A) (A)
                 (A) (A) (A) (A) (A) (A) (A) (A) (A) (A) (A) (A)
                 (A) (A) (A) (A) (A) (A) (A) (A) (A) (A) (A) (A)
                 (A) (A) (A) (A) (A) (A) (A) (A) (A) (A) (A) (A)
                 (A) (A) (A) (A) (A) (A) (A) (A) (A) (A) (A) (A)
                 (A) (A) (A) (A) (A) (A) (A) (A) (A) (A) (A) (A)
                 (A) (A) (A) (A) (A) (A) (A) (A) (A) (A) (A) (A)
                 (A) (A) (A) (A) (A) (A) (A) (A) (A) (A) (A) (A)
                 (A) (A) (A) (A) (A) (A) (A) (A) (A) (A) (A) (A)
                 (A) (A) (A) (A) (A) (A) (A) (A) (A) (A) (A) (A)
                 (A) (A) (A) (A) (A) (A) (A) (A) (A) (A) (A) (A)
                 (A) (A) (A) (A) (A) (A) (A) (A) (A) (A) (A) (A)
                 (A) (A) (A) (A) (A) (A) (A) (A) (A) (A) (A) (A)
                 (A) (A) (A) (A) (A) (A) (A) (A) (A) (A) (A) (A)
                 (A) (A) (A) (A) (A) (A) (A) (A) (A) (A) (A) (A)
                 (A) (A) (A) (A) (A) (A) (A) (A) (A) (A) (A) (A)
                 (A) (A) (A) (A) (A) (A) (A) (A) (A) (A) (A) (A)
                 (A) (A) (A) (A) (A) (A) (A) (A) (A) (A) (A) (A)
                 (A) (A) (A) (A) (A) (A) (A) (A) (A) (A) (A) (A)
                 (A) (A) (A) (A) (A) (A) (A) (A) (A) (A) (A) (A)
                 (A) (A) (A) (A) (A) (A) (A) (A) (A) (A) (A) (A)
                 (A) (A) (A) (A) (A) (A) (A) (A) (A) (A) (A) (A)
                 (A) (A) (A) (A) (A) (A) (A) (A) (A) (A) (A) (A)
                 (A) (A) (A) (A) (A) (A) (A) (A) (A) (A) (A) (A)
                 (A) (A) (A) (A) (A) (A) (A) (A) (A) (A) (A) (A)
                 (A) (A) (A) (A) (A) (A) (A) (A) (A) (A) (A) (A)
                 (A) (A) (A) (A) (A) (A) (A) (A) (A) (A) (A) (A)
                 (A) (A) (A) (A) (A) (A) (A) (A) (A) (A) (A) (A)
                 (A) (A) (A) (A) (A) (A)
 The electronic state of the initial guess is 1-A.
 Requested convergence on RMS density matrix=1.00D-08 within 128 cycles.
 Requested convergence on MAX density matrix=1.00D-06.
 Requested convergence on             energy=1.00D-06.
 No special actions if energy rises.
 Integral accuracy reduced to 1.0D-05 until final iterations.
 Initial convergence to 1.0D-05 achieved.  Increase integral accuracy.
 SCF Done:  E(RHF) =  -273.329749629     A.U. after   11 cycles
             Convg  =    0.4284D-08             -V/T =  2.0018
 ExpMin= 1.03D-01 ExpMax= 8.24D+03 ExpMxC= 2.81D+02 IAcc=1 IRadAn=         1 AccDes= 0.00D+00
 HarFok:  IExCor=  205 AccDes= 0.00D+00 IRadAn=         1 IDoV=-2
 ScaDFX=  1.000000  1.000000  1.000000  1.000000
 Range of M.O.s used for correlation:     8   406
 NBasis=   406 NAE=    28 NBE=    28 NFC=     7 NFV=     0
 NROrb=    399 NOA=    21 NOB=    21 NVA=   378 NVB=   378

 **** Warning!!: The largest alpha MO coefficient is  0.11902618D+02

 Fully direct method using O(OVN) memory.
 JobTyp=1 Pass  1:  I=   1 to  21 NPSUse=  4 ParTrn=T ParDer=T DoDerP=F.
 Spin components of T(2) and E(2):
     alpha-alpha T2 =       0.4685531097D-01 E2=     -0.1378438915D+00
     alpha-beta  T2 =       0.2891211239D+00 E2=     -0.9458678050D+00
     beta-beta   T2 =       0.4685531097D-01 E2=     -0.1378438915D+00
 ANorm=    0.1175938666D+01
 E2 =    -0.1221555588D+01 EUMP2 =    -0.27455130521653D+03

 **********************************************************************

            Population analysis using the SCF density.

 **********************************************************************

 Orbital symmetries:
       Occupied  (A) (A) (A) (A) (A) (A) (A) (A) (A) (A) (A) (A)
                 (A) (A) (A) (A) (A) (A) (A) (A) (A) (A) (A) (A)
                 (A) (A) (A) (A)
       Virtual   (A) (A) (A) (A) (A) (A) (A) (A) (A) (A) (A) (A)
                 (A) (A) (A) (A) (A) (A) (A) (A) (A) (A) (A) (A)
                 (A) (A) (A) (A) (A) (A) (A) (A) (A) (A) (A) (A)
                 (A) (A) (A) (A) (A) (A) (A) (A) (A) (A) (A) (A)
                 (A) (A) (A) (A) (A) (A) (A) (A) (A) (A) (A) (A)
                 (A) (A) (A) (A) (A) (A) (A) (A) (A) (A) (A) (A)
                 (A) (A) (A) (A) (A) (A) (A) (A) (A) (A) (A) (A)
                 (A) (A) (A) (A) (A) (A) (A) (A) (A) (A) (A) (A)
                 (A) (A) (A) (A) (A) (A) (A) (A) (A) (A) (A) (A)
                 (A) (A) (A) (A) (A) (A) (A) (A) (A) (A) (A) (A)
                 (A) (A) (A) (A) (A) (A) (A) (A) (A) (A) (A) (A)
                 (A) (A) (A) (A) (A) (A) (A) (A) (A) (A) (A) (A)
                 (A) (A) (A) (A) (A) (A) (A) (A) (A) (A) (A) (A)
                 (A) (A) (A) (A) (A) (A) (A) (A) (A) (A) (A) (A)
                 (A) (A) (A) (A) (A) (A) (A) (A) (A) (A) (A) (A)
                 (A) (A) (A) (A) (A) (A) (A) (A) (A) (A) (A) (A)
                 (A) (A) (A) (A) (A) (A) (A) (A) (A) (A) (A) (A)
                 (A) (A) (A) (A) (A) (A) (A) (A) (A) (A) (A) (A)
                 (A) (A) (A) (A) (A) (A) (A) (A) (A) (A) (A) (A)
                 (A) (A) (A) (A) (A) (A) (A) (A) (A) (A) (A) (A)
                 (A) (A) (A) (A) (A) (A) (A) (A) (A) (A) (A) (A)
                 (A) (A) (A) (A) (A) (A) (A) (A) (A) (A) (A) (A)
                 (A) (A) (A) (A) (A) (A) (A) (A) (A) (A) (A) (A)
                 (A) (A) (A) (A) (A) (A) (A) (A) (A) (A) (A) (A)
                 (A) (A) (A) (A) (A) (A) (A) (A) (A) (A) (A) (A)
                 (A) (A) (A) (A) (A) (A) (A) (A) (A) (A) (A) (A)
                 (A) (A) (A) (A) (A) (A) (A) (A) (A) (A) (A) (A)
                 (A) (A) (A) (A) (A) (A) (A) (A) (A) (A) (A) (A)
                 (A) (A) (A) (A) (A) (A) (A) (A) (A) (A) (A) (A)
                 (A) (A) (A) (A) (A) (A) (A) (A) (A) (A) (A) (A)
                 (A) (A) (A) (A) (A) (A) (A) (A) (A) (A) (A) (A)
                 (A) (A) (A) (A) (A) (A)
 The electronic state is 1-A.
 Alpha  occ. eigenvalues --  -11.22146 -11.21412 -11.21363 -11.21333 -11.21282
 Alpha  occ. eigenvalues --  -11.21276 -11.20825  -1.11224  -1.02081  -0.99544
 Alpha  occ. eigenvalues --   -0.91678  -0.82539  -0.80769  -0.72131  -0.64853
 Alpha  occ. eigenvalues --   -0.60970  -0.60525  -0.57937  -0.55192  -0.54739
 Alpha  occ. eigenvalues --   -0.51903  -0.49677  -0.49541  -0.47200  -0.47043
 Alpha  occ. eigenvalues --   -0.43850  -0.42031  -0.41877
 Alpha virt. eigenvalues --    0.13480   0.15653   0.16303   0.17004   0.19876
 Alpha virt. eigenvalues --    0.20034   0.20501   0.21719   0.21974   0.23091
 Alpha virt. eigenvalues --    0.24578   0.25087   0.26700   0.28589   0.30685
 Alpha virt. eigenvalues --    0.33281   0.33580   0.36604   0.37584   0.38580
 Alpha virt. eigenvalues --    0.38765   0.40872   0.42013   0.42451   0.43488
 Alpha virt. eigenvalues --    0.45455   0.47692   0.47795   0.48243   0.49258
 Alpha virt. eigenvalues --    0.54154   0.57422   0.58439   0.58946   0.59755
 Alpha virt. eigenvalues --    0.59983   0.61042   0.61467   0.62426   0.63474
 Alpha virt. eigenvalues --    0.63956   0.64637   0.65642   0.65941   0.66927
 Alpha virt. eigenvalues --    0.67323   0.68834   0.69081   0.69942   0.69998
 Alpha virt. eigenvalues --    0.70536   0.71575   0.72058   0.72723   0.78918
 Alpha virt. eigenvalues --    0.81426   0.82789   0.85236   0.85287   0.87375
 Alpha virt. eigenvalues --    0.94215   0.94413   0.96426   0.97322   0.98166
 Alpha virt. eigenvalues --    1.01877   1.02972   1.05016   1.06771   1.07058
 Alpha virt. eigenvalues --    1.10963   1.11764   1.13503   1.15001   1.17634
 Alpha virt. eigenvalues --    1.18741   1.19727   1.19964   1.20908   1.21672
 Alpha virt. eigenvalues --    1.23341   1.24886   1.26017   1.27408   1.30087
 Alpha virt. eigenvalues --    1.31268   1.31992   1.32508   1.32878   1.34544
 Alpha virt. eigenvalues --    1.36044   1.37366   1.38062   1.39373   1.39636
 Alpha virt. eigenvalues --    1.40092   1.41791   1.42660   1.45041   1.46245
 Alpha virt. eigenvalues --    1.46802   1.47547   1.48021   1.49813   1.50748
 Alpha virt. eigenvalues --    1.52341   1.53345   1.53564   1.57292   1.57443
 Alpha virt. eigenvalues --    1.58518   1.58627   1.61803   1.63214   1.63598
 Alpha virt. eigenvalues --    1.65527   1.66114   1.66234   1.66861   1.69643
 Alpha virt. eigenvalues --    1.71553   1.72212   1.74203   1.74906   1.77227
 Alpha virt. eigenvalues --    1.77518   1.78100   1.80884   1.83026   1.85127
 Alpha virt. eigenvalues --    1.87736   1.89045   1.91157   1.95471   1.96331
 Alpha virt. eigenvalues --    2.00360   2.01917   2.12768   2.14037   2.16263
 Alpha virt. eigenvalues --    2.56205   2.58411   2.61996   2.63384   2.65725
 Alpha virt. eigenvalues --    2.68263   2.70295   2.70668   2.72647   2.77659
 Alpha virt. eigenvalues --    2.79605   2.81663   2.81688   2.83594   2.84064
 Alpha virt. eigenvalues --    2.85998   2.86577   2.88502   2.90334   2.91472
 Alpha virt. eigenvalues --    2.94044   2.95119   2.95541   2.95985   2.96492
 Alpha virt. eigenvalues --    2.99267   3.00344   3.00972   3.01171   3.02247
 Alpha virt. eigenvalues --    3.02646   3.04526   3.04744   3.05402   3.06823
 Alpha virt. eigenvalues --    3.11349   3.13269   3.14955   3.15580   3.18697
 Alpha virt. eigenvalues --    3.22595   3.23779   3.24215   3.27302   3.27383
 Alpha virt. eigenvalues --    3.28854   3.30279   3.32856   3.34333   3.35185
 Alpha virt. eigenvalues --    3.36290   3.38837   3.40066   3.40889   3.42622
 Alpha virt. eigenvalues --    3.43375   3.43876   3.43972   3.45306   3.46460
 Alpha virt. eigenvalues --    3.48063   3.48129   3.48390   3.50142   3.50692
 Alpha virt. eigenvalues --    3.51000   3.51259   3.53704   3.54107   3.54483
 Alpha virt. eigenvalues --    3.56764   3.59698   3.59914   3.60687   3.63863
 Alpha virt. eigenvalues --    3.65569   3.67158   3.67552   3.68937   3.70385
 Alpha virt. eigenvalues --    3.72685   3.73834   3.75814   3.77381   3.77793
 Alpha virt. eigenvalues --    3.80763   3.82422   3.82451   3.83580   3.84412
 Alpha virt. eigenvalues --    3.85063   3.86691   3.88075   3.90751   3.91233
 Alpha virt. eigenvalues --    3.94201   3.96767   3.96992   3.99293   4.00689
 Alpha virt. eigenvalues --    4.01066   4.01416   4.02902   4.02994   4.04149
 Alpha virt. eigenvalues --    4.05243   4.07699   4.07949   4.09310   4.09763
 Alpha virt. eigenvalues --    4.13024   4.14642   4.14960   4.16121   4.16314
 Alpha virt. eigenvalues --    4.18326   4.20828   4.22355   4.24139   4.25162
 Alpha virt. eigenvalues --    4.27429   4.28301   4.31060   4.31789   4.33428
 Alpha virt. eigenvalues --    4.33729   4.34643   4.35629   4.35987   4.37269
 Alpha virt. eigenvalues --    4.38732   4.39177   4.41035   4.42120   4.44592
 Alpha virt. eigenvalues --    4.45876   4.47531   4.47550   4.48602   4.49272
 Alpha virt. eigenvalues --    4.50685   4.51176   4.53059   4.53548   4.56122
 Alpha virt. eigenvalues --    4.58129   4.59720   4.59936   4.60260   4.62755
 Alpha virt. eigenvalues --    4.63679   4.64311   4.65112   4.67122   4.67653
 Alpha virt. eigenvalues --    4.69464   4.69559   4.74167   4.76109   4.76904
 Alpha virt. eigenvalues --    4.77693   4.80002   4.81692   4.85093   4.85737
 Alpha virt. eigenvalues --    4.89389   4.93171   4.95918   4.98862   5.00960
 Alpha virt. eigenvalues --    5.01216   5.05126   5.06976   5.09293   5.10949
 Alpha virt. eigenvalues --    5.11848   5.14628   5.16424   5.17659   5.18838
 Alpha virt. eigenvalues --    5.20143   5.22515   5.27284   5.27442   5.32486
 Alpha virt. eigenvalues --    5.33578   5.33997   5.35534   5.38034   5.39051
 Alpha virt. eigenvalues --    5.39622   5.41822   5.42400   5.45367   5.45874
 Alpha virt. eigenvalues --    5.46324   5.49447   5.55947   5.58268   5.58350
 Alpha virt. eigenvalues --    5.60589   5.63714   5.66721   5.66785   5.69451
 Alpha virt. eigenvalues --    5.73066   5.75058   5.76496   5.77060   5.79771
 Alpha virt. eigenvalues --    5.80157   5.80824   5.83064   5.84050   5.85393
 Alpha virt. eigenvalues --    5.86624   5.90578   5.95497   6.00027   6.00094
 Alpha virt. eigenvalues --    6.02606   6.12791   6.12900   6.29082   6.32483
 Alpha virt. eigenvalues --    6.32585   6.40368   6.44596   6.47208   6.50661
 Alpha virt. eigenvalues --    6.50945  12.26369  12.89785  13.20566  13.44681
 Alpha virt. eigenvalues --   13.51790  13.55692  14.22317
          Condensed to atoms (all electrons):
              1          2          3          4          5          6
     1  C    4.919124   0.350052  -0.033677   0.000209  -0.033677   0.350053
     2  C    0.350052   4.882862   0.339406  -0.041947  -0.005626  -0.038628
     3  C   -0.033677   0.339406   4.887870   0.343570  -0.037229  -0.005625
     4  C    0.000209  -0.041947   0.343570   4.868306   0.343570  -0.041947
     5  C   -0.033677  -0.005626  -0.037229   0.343570   4.887872   0.339406
     6  C    0.350053  -0.038628  -0.005625  -0.041947   0.339406   4.882860
     7  C    0.341153  -0.050707  -0.001498   0.000186  -0.001498  -0.050708
     8  H    0.005823  -0.035601   0.436535  -0.036353   0.006329  -0.000942
     9  H   -0.002633  -0.036214   0.422418  -0.038851  -0.002375   0.000983
    10  H   -0.000943   0.006276  -0.037383   0.437279  -0.037384   0.006276
    11  H   -0.000315  -0.001472  -0.040358   0.422463  -0.040357  -0.001472
    12  H   -0.002633   0.000983  -0.002375  -0.038852   0.422418  -0.036214
    13  H    0.005823  -0.000942   0.006329  -0.036354   0.436535  -0.035599
    14  H   -0.042357   0.432012  -0.039688  -0.002061   0.000042  -0.002236
    15  H   -0.036041   0.434990  -0.038972   0.006385  -0.000995   0.006439
    16  H   -0.036040   0.006439  -0.000995   0.006385  -0.038972   0.434990
    17  H   -0.042357  -0.002236   0.000042  -0.002062  -0.039689   0.432012
    18  H    0.446923  -0.040787   0.006931  -0.001330   0.006931  -0.040788
    19  H   -0.030217  -0.003081   0.000849  -0.000708   0.000849  -0.003081
    20  H   -0.037221  -0.004761  -0.000054   0.000032  -0.000285   0.006616
    21  H   -0.037221   0.006616  -0.000285   0.000032  -0.000054  -0.004761
              7          8          9         10         11         12
     1  C    0.341153   0.005823  -0.002633  -0.000943  -0.000315  -0.002633
     2  C   -0.050707  -0.035601  -0.036214   0.006276  -0.001472   0.000983
     3  C   -0.001498   0.436535   0.422418  -0.037383  -0.040358  -0.002375
     4  C    0.000186  -0.036353  -0.038851   0.437279   0.422463  -0.038852
     5  C   -0.001498   0.006329  -0.002375  -0.037384  -0.040357   0.422418
     6  C   -0.050708  -0.000942   0.000983   0.006276  -0.001472  -0.036214
     7  C    4.853127  -0.000142  -0.001510  -0.000037   0.000002  -0.001510
     8  H   -0.000142   0.567896  -0.033014  -0.004663  -0.005164  -0.000101
     9  H   -0.001510  -0.033014   0.597543  -0.004969   0.007095   0.001096
    10  H   -0.000037  -0.004663  -0.004969   0.571036  -0.032342  -0.004969
    11  H    0.000002  -0.005164   0.007095  -0.032342   0.602843   0.007095
    12  H   -0.001510  -0.000101   0.001096  -0.004969   0.007095   0.597545
    13  H   -0.000142  -0.000288  -0.000101  -0.004663  -0.005164  -0.033014
    14  H    0.007252  -0.005936   0.006743  -0.000113   0.002010  -0.000003
    15  H   -0.005818  -0.004945  -0.004211  -0.000281  -0.000111  -0.000122
    16  H   -0.005817   0.000101  -0.000122  -0.000281  -0.000111  -0.004211
    17  H    0.007252  -0.000089  -0.000003  -0.000113   0.002011   0.006743
    18  H   -0.038541  -0.000257  -0.000313   0.000098  -0.000190  -0.000313
    19  H    0.414579   0.000068  -0.003301   0.000060  -0.000086  -0.003301
    20  H    0.423484  -0.000080   0.000556  -0.000005   0.000008   0.000090
    21  H    0.423484   0.000029   0.000090  -0.000005   0.000008   0.000556
             13         14         15         16         17         18
     1  C    0.005823  -0.042357  -0.036041  -0.036040  -0.042357   0.446923
     2  C   -0.000942   0.432012   0.434990   0.006439  -0.002236  -0.040787
     3  C    0.006329  -0.039688  -0.038972  -0.000995   0.000042   0.006931
     4  C   -0.036354  -0.002061   0.006385   0.006385  -0.002062  -0.001330
     5  C    0.436535   0.000042  -0.000995  -0.038972  -0.039689   0.006931
     6  C   -0.035599  -0.002236   0.006439   0.434990   0.432012  -0.040788
     7  C   -0.000142   0.007252  -0.005818  -0.005817   0.007252  -0.038541
     8  H   -0.000288  -0.005936  -0.004945   0.000101  -0.000089  -0.000257
     9  H   -0.000101   0.006743  -0.004211  -0.000122  -0.000003  -0.000313
    10  H   -0.004663  -0.000113  -0.000281  -0.000281  -0.000113   0.000098
    11  H   -0.005164   0.002010  -0.000111  -0.000111   0.002011  -0.000190
    12  H   -0.033014  -0.000003  -0.000122  -0.004211   0.006743  -0.000313
    13  H    0.567894  -0.000089   0.000101  -0.004945  -0.005936  -0.000257
    14  H   -0.000089   0.585305  -0.029566  -0.000183   0.001557  -0.007969
    15  H    0.000101  -0.029566   0.571891  -0.000300  -0.000183  -0.003842
    16  H   -0.004945  -0.000183  -0.000300   0.571890  -0.029566  -0.003842
    17  H   -0.005936   0.001557  -0.000183  -0.029566   0.585309  -0.007969
    18  H   -0.000257  -0.007969  -0.003842  -0.003842  -0.007969   0.581676
    19  H    0.000068  -0.000314   0.000334   0.000334  -0.000314   0.006627
    20  H    0.000029   0.000047   0.002330  -0.000095  -0.000260  -0.005596
    21  H   -0.000080  -0.000260  -0.000095   0.002330   0.000047  -0.005596
             19         20         21
     1  C   -0.030217  -0.037221  -0.037221
     2  C   -0.003081  -0.004761   0.006616
     3  C    0.000849  -0.000054  -0.000285
     4  C   -0.000708   0.000032   0.000032
     5  C    0.000849  -0.000285  -0.000054
     6  C   -0.003081   0.006616  -0.004761
     7  C    0.414579   0.423484   0.423484
     8  H    0.000068  -0.000080   0.000029
     9  H   -0.003301   0.000556   0.000090
    10  H    0.000060  -0.000005  -0.000005
    11  H   -0.000086   0.000008   0.000008
    12  H   -0.003301   0.000090   0.000556
    13  H    0.000068   0.000029  -0.000080
    14  H   -0.000314   0.000047  -0.000260
    15  H    0.000334   0.002330  -0.000095
    16  H    0.000334  -0.000095   0.002330
    17  H   -0.000314  -0.000260   0.000047
    18  H    0.006627  -0.005596  -0.005596
    19  H    0.596981  -0.033334  -0.033334
    20  H   -0.033334   0.576160  -0.027859
    21  H   -0.033334  -0.027859   0.576160
 Mulliken atomic charges:
              1
     1  C   -0.083828
     2  C   -0.197635
     3  C   -0.205811
     4  C   -0.187952
     5  C   -0.205812
     6  C   -0.197634
     7  C   -0.312592
     8  H    0.110793
     9  H    0.091093
    10  H    0.107127
    11  H    0.083604
    12  H    0.091092
    13  H    0.110794
    14  H    0.095808
    15  H    0.103011
    16  H    0.103012
    17  H    0.095806
    18  H    0.108405
    19  H    0.090319
    20  H    0.100200
    21  H    0.100199
 Sum of Mulliken atomic charges =   0.00000
 Mulliken charges with hydrogens summed into heavy atoms:
              1
     1  C    0.024576
     2  C    0.001184
     3  C   -0.003925
     4  C    0.002779
     5  C   -0.003925
     6  C    0.001184
     7  C   -0.021874
 Sum of Mulliken charges with hydrogens summed into heavy atoms =   0.00000
 Electronic spatial extent (au):  <R**2>=            801.4924
 Charge=              0.0000 electrons
 Dipole moment (field-independent basis, Debye):
    X=             -0.0068    Y=              0.0000    Z=              0.0634  Tot=              0.0638
 Quadrupole moment (field-independent basis, Debye-Ang):
   XX=            -47.6297   YY=            -47.5505   ZZ=            -47.1692
   XY=              0.0000   XZ=              0.0920   YZ=              0.0000
 Traceless Quadrupole moment (field-independent basis, Debye-Ang):
   XX=             -0.1799   YY=             -0.1007   ZZ=              0.2806
   XY=              0.0000   XZ=              0.0920   YZ=              0.0000
 Octapole moment (field-independent basis, Debye-Ang**2):
  XXX=              0.0666  YYY=              0.0000  ZZZ=              0.5184  XYY=              0.8182
  XXY=             -0.0001  XXZ=              1.1019  XZZ=             -1.4298  YZZ=              0.0000
  YYZ=             -0.0003  XYZ=             -0.0001
 Hexadecapole moment (field-independent basis, Debye-Ang**3):
 XXXX=           -559.6670 YYYY=           -380.6310 ZZZZ=           -190.2582 XXXY=              0.0004
 XXXZ=              4.6779 YYYX=              0.0000 YYYZ=             -0.0001 ZZZX=              1.5397
 ZZZY=              0.0000 XXYY=           -150.9025 XXZZ=           -125.9128 YYZZ=            -99.4248
 XXYZ=              0.0002 YYXZ=             -2.1943 ZZXY=              0.0001
 N-N= 3.310503538955D+02 E-N=-1.297262827976D+03  KE= 2.728414441551D+02
 1\1\GINC-ROCK\SP\RMP2-FC\CC-pVTZ\C7H14\STYLIANAKIS\14-Feb-2016\0\\# mp
 2/cc-pVTZ\\methylcyclohexane-ax_single_point\\0,1\C\C,1,1.546185\C,2,1
 .538478,1,113.108\C,3,1.537656,2,111.417,1,54.588,0\C,4,1.53766,3,111.
 417,2,-54.475,0\C,5,1.538479,4,111.417,3,54.475,0\C,1,1.538849,2,112.4
 42,3,73.085,0\H,3,1.097249,4,110.19,5,-176.466,0\H,3,1.098707,4,109.31
 6,5,67.232,0\H,4,1.097245,3,110.367,2,-177.457,0\H,4,1.100355,3,109.02
 3,2,65.896,0\H,5,1.098708,4,109.315,3,-67.232,0\H,5,1.097248,4,110.189
 ,3,176.467,0\H,2,1.099681,3,108.517,4,-65.938,0\H,2,1.097929,3,110.183
 ,4,177.96,0\H,6,1.097929,5,110.183,4,-177.961,0\H,6,1.099682,5,108.516
 ,4,65.938,0\H,1,1.099213,2,107.479,3,-169.633,0\H,7,1.094953,1,112.508
 ,2,-62.329,0\H,7,1.096324,1,110.815,2,57.934,0\H,7,1.096325,1,110.815,
 2,177.408,0\\Version=EM64L-G09RevA.01\State=1-A\HF=-273.3297496\MP2=-2
 74.5513052\RMSD=4.284e-09\PG=C01 [X(C7H14)]\\@


 I LOVE MANKIND - IT'S PEOPLE I CAN'T STAND.
     -- LINUS OF PEANUTS
 Job cpu time:  0 days  1 hours 50 minutes 52.3 seconds.
 File lengths (MBytes):  RWF=     92 Int=      0 D2E=      0 Chk=      8 Scr=      1
 Normal termination of Gaussian 09 at Sun Feb 14 22:56:29 2016.
