 Entering Gaussian System, Link 0=g09
 Input=methoxycyclohexane-ax.gjf
 Output=methoxycyclohexane-ax.out
 Initial command:
 /usr/local/g09/l1.exe /home/scratch/stylianakis/Gau-31245.inp -scrdir=/home/scratch/stylianakis/
 Entering Link 1 = /usr/local/g09/l1.exe PID=     31246.
  
 Copyright (c) 1988,1990,1992,1993,1995,1998,2003,2009, Gaussian, Inc.
                  All Rights Reserved.
  
 This is part of the Gaussian(R) 09 program.  It is based on
 the Gaussian(R) 03 system (copyright 2003, Gaussian, Inc.),
 the Gaussian(R) 98 system (copyright 1998, Gaussian, Inc.),
 the Gaussian(R) 94 system (copyright 1995, Gaussian, Inc.),
 the Gaussian 92(TM) system (copyright 1992, Gaussian, Inc.),
 the Gaussian 90(TM) system (copyright 1990, Gaussian, Inc.),
 the Gaussian 88(TM) system (copyright 1988, Gaussian, Inc.),
 the Gaussian 86(TM) system (copyright 1986, Carnegie Mellon
 University), and the Gaussian 82(TM) system (copyright 1983,
 Carnegie Mellon University). Gaussian is a federally registered
 trademark of Gaussian, Inc.
  
 This software contains proprietary and confidential information,
 including trade secrets, belonging to Gaussian, Inc.
  
 This software is provided under written license and may be
 used, copied, transmitted, or stored only in accord with that
 written license.
  
 The following legend is applicable only to US Government
 contracts under FAR:
  
                    RESTRICTED RIGHTS LEGEND
  
 Use, reproduction and disclosure by the US Government is
 subject to restrictions as set forth in subparagraphs (a)
 and (c) of the Commercial Computer Software - Restricted
 Rights clause in FAR 52.227-19.
  
 Gaussian, Inc.
 340 Quinnipiac St., Bldg. 40, Wallingford CT 06492
  
  
 ---------------------------------------------------------------
 Warning -- This program may not be used in any manner that
 competes with the business of Gaussian, Inc. or will provide
 assistance to any competitor of Gaussian, Inc.  The licensee
 of this program is prohibited from giving any competitor of
 Gaussian, Inc. access to this program.  By using this program,
 the user acknowledges that Gaussian, Inc. is engaged in the
 business of creating and licensing software in the field of
 computational chemistry and represents and warrants to the
 licensee that it is not a competitor of Gaussian, Inc. and that
 it will not use this program in any manner prohibited above.
 ---------------------------------------------------------------
  

 Cite this work as:
 Gaussian 09, Revision A.01,
 M. J. Frisch, G. W. Trucks, H. B. Schlegel, G. E. Scuseria, 
 M. A. Robb, J. R. Cheeseman, G. Scalmani, V. Barone, B. Mennucci, 
 G. A. Petersson, H. Nakatsuji, M. Caricato, X. Li, H. P. Hratchian, 
 A. F. Izmaylov, J. Bloino, G. Zheng, J. L. Sonnenberg, M. Hada, 
 M. Ehara, K. Toyota, R. Fukuda, J. Hasegawa, M. Ishida, T. Nakajima, 
 Y. Honda, O. Kitao, H. Nakai, T. Vreven, J. A. Montgomery, Jr., 
 J. E. Peralta, F. Ogliaro, M. Bearpark, J. J. Heyd, E. Brothers, 
 K. N. Kudin, V. N. Staroverov, R. Kobayashi, J. Normand, 
 K. Raghavachari, A. Rendell, J. C. Burant, S. S. Iyengar, J. Tomasi, 
 M. Cossi, N. Rega, J. M. Millam, M. Klene, J. E. Knox, J. B. Cross, 
 V. Bakken, C. Adamo, J. Jaramillo, R. Gomperts, R. E. Stratmann, 
 O. Yazyev, A. J. Austin, R. Cammi, C. Pomelli, J. W. Ochterski, 
 R. L. Martin, K. Morokuma, V. G. Zakrzewski, G. A. Voth, 
 P. Salvador, J. J. Dannenberg, S. Dapprich, A. D. Daniels, 
 O. Farkas, J. B. Foresman, J. V. Ortiz, J. Cioslowski, 
 and D. J. Fox, Gaussian, Inc., Wallingford CT, 2009.
 
 ******************************************
 Gaussian 09:  EM64L-G09RevA.01  8-May-2009
                 2-Mar-2016 
 ******************************************
 %mem=8000Mb
 %nproc=4
 Will use up to    4 processors via shared memory.
 -------------
 # mp2/cc-pVTZ
 -------------
 1/38=1/1;
 2/12=2,17=6,18=5,40=1/2;
 3/5=16,6=1,11=9,16=1,25=1,30=1/1,2,3;
 4//1;
 5/5=2,38=5/2;
 8/10=1/1;
 9/16=-3/6;
 6/7=2,8=2,9=2,10=2/1;
 99/5=1,9=1/99;
 ----------------------------------
 methoxycyclohexane-ax_single_point
 ----------------------------------
 Symbolic Z-matrix:
 Charge =  0 Multiplicity = 1
 c
 c                    1    cc2
 c                    2    cc3      1    ccc3
 c                    3    cc4      2    ccc4     1    dih4     0
 c                    4    cc5      3    ccc5     2    dih5     0
 c                    5    cc6      4    ccc6     3    dih6     0
 o                    1    oc7      2    occ7     3    dih7     0
 c                    7    co8      1    coc8     2    dih8     0
 h                    3    hc9      4    hcc9     5    dih9     0
 h                    3    hc10     4    hcc10    5    dih10    0
 h                    4    hc11     3    hcc11    2    dih11    0
 h                    4    hc12     3    hcc12    2    dih12    0
 h                    5    hc13     4    hcc13    3    dih13    0
 h                    5    hc14     4    hcc14    3    dih14    0
 h                    2    hc15     3    hcc15    4    dih15    0
 h                    2    hc16     3    hcc16    4    dih16    0
 h                    6    hc17     5    hcc17    4    dih17    0
 h                    6    hc18     5    hcc18    4    dih18    0
 h                    1    hc19     2    hcc19    3    dih19    0
 h                    8    hc20     7    hco20    1    dih20    0
 h                    8    hc21     7    hco21    1    dih21    0
 h                    8    hc22     7    hco22    1    dih22    0
       Variables:
  cc2                   1.54026                  
  cc3                   1.53748                  
  ccc3                112.133                    
  cc4                   1.53715                  
  ccc4                111.388                    
  dih4                 54.694                    
  cc5                   1.53714                  
  ccc5                111.292                    
  dih5                -54.954                    
  cc6                   1.53776                  
  ccc6                111.392                    
  dih6                 54.714                    
  oc7                   1.43473                  
  occ7                112.207                    
  dih7                 65.899                    
  co8                   1.41501                  
  coc8                114.941                    
  dih8                 75.219                    
  hc9                   1.09704                  
  hcc9                110.391                    
  dih9               -177.195                    
  hc10                  1.0976                   
  hcc10               109.243                    
  dih10                65.651                    
  hc11                  1.09707                  
  hcc11               110.173                    
  dih11              -177.554                    
  hc12                  1.10064                  
  hcc12               109.192                    
  dih12                65.806                    
  hc13                  1.09696                  
  hcc13               109.431                    
  dih13               -65.905                    
  hc14                  1.09699                  
  hcc14               110.333                    
  dih14               176.796                    
  hc15                  1.09943                  
  hcc15               109.675                    
  dih15               -64.912                    
  hc16                  1.09651                  
  hcc16               110.644                    
  dih16               178.383                    
  hc17                  1.0958                   
  hcc17               110.73                     
  dih17              -176.441                    
  hc18                  1.0991                   
  hcc18               109.541                    
  dih18                65.574                    
  hc19                  1.10328                  
  hcc19               109.281                    
  dih19              -174.164                    
  hc20                  1.0928                   
  hco20               106.862                    
  dih20               173.757                    
  hc21                  1.09945                  
  hco21               112.614                    
  dih21               -67.138                    
  hc22                  1.10154                  
  hco22               111.275                    
  dih22                54.999                    
 
                          Input orientation:                          
 ---------------------------------------------------------------------
 Center     Atomic      Atomic             Coordinates (Angstroms)
 Number     Number       Type             X           Y           Z
 ---------------------------------------------------------------------
      1          6           0        0.000000    0.000000    0.000000
      2          6           0        0.000000    0.000000    1.540255
      3          6           0        1.424182    0.000000    2.119511
      4          6           0        2.255101    1.168043    1.564462
      5          6           0        2.273285    1.159279    0.027457
      6          6           0        0.848203    1.152357   -0.550306
      7          8           0        0.542409   -1.212515   -0.542261
      8          6           0       -0.313931   -2.336308   -0.464725
      9          1           0        1.379744    0.048950    3.214555
     10          1           0        1.916032   -0.947374    1.863978
     11          1           0        3.278813    1.123939    1.956417
     12          1           0        1.825552    2.117746    1.917952
     13          1           0        2.806706    0.268342   -0.326110
     14          1           0        2.821891    2.030065   -0.352230
     15          1           0       -0.535574    0.900084    1.874550
     16          1           0       -0.572535   -0.853778    1.921827
     17          1           0        0.873243    1.082533   -1.643596
     18          1           0        0.344191    2.095634   -0.296906
     19          1           0       -1.036001    0.105891   -0.364305
     20          1           0        0.176828   -3.146951   -1.008995
     21          1           0       -0.487810   -2.664732    0.570020
     22          1           0       -1.288294   -2.129547   -0.935097
 ---------------------------------------------------------------------
                    Distance matrix (angstroms):
                    1          2          3          4          5
     1  C    0.000000
     2  C    1.540255   0.000000
     3  C    2.553551   1.537476   0.000000
     4  C    2.982842   2.539762   1.537150   0.000000
     5  C    2.551961   2.966531   2.538029   1.537137   0.000000
     6  C    1.533040   2.533342   2.964389   2.540050   1.537764
     7  O    1.434729   2.470076   3.054955   3.610907   2.990972
     8  C    2.402677   3.094645   3.893282   4.795623   4.376649
     9  H    3.498493   2.170108   1.097038   2.177482   3.491252
    10  H    2.836037   2.161826   1.097602   2.163253   2.817521
    11  H    3.980128   3.490994   2.174740   1.097069   2.175597
    12  H    3.390579   2.821372   2.164849   1.100638   2.166356
    13  H    2.838301   3.381260   2.822134   2.165176   1.096957
    14  H    3.494037   3.957995   3.490595   2.176703   1.096995
    15  H    2.147307   1.099429   2.170438   2.820607   3.371739
    16  H    2.179485   1.096508   2.180572   3.494423   3.967332
    17  H    2.153100   3.474383   3.954287   3.494063   2.181381
    18  H    2.144365   2.808080   3.375964   2.824304   2.168726
    19  H    1.103281   2.170682   3.497579   3.959755   3.494922
    20  H    3.309477   4.053794   4.609419   5.437009   4.900304
    21  H    2.768334   2.877518   3.627317   4.816911   4.747744
    22  H    2.658774   3.510277   4.606857   5.447710   4.942442
                    6          7          8          9         10
     6  C    0.000000
     7  O    2.384574   0.000000
     8  C    3.678133   1.415006   0.000000
     9  H    3.959069   4.050444   4.700541   0.000000
    10  H    3.373114   2.783366   3.510659   1.761909   0.000000
    11  H    3.491752   4.380675   5.544641   2.518924   2.481139
    12  H    2.824799   4.334714   5.485721   2.481903   3.066930
    13  H    2.160435   2.714166   4.067160   3.823697   2.658524
    14  H    2.169113   3.968182   5.376917   4.327419   3.820641
    15  H    2.803285   3.386163   3.999445   2.487667   3.069786
    16  H    3.486333   2.728283   2.821419   2.509473   2.490998
    17  H    1.095803   2.567028   3.806257   4.992641   4.184615
    18  H    1.099095   3.323152   4.483681   4.194240   4.049691
    19  H    2.163310   2.064277   2.548687   4.318252   3.845661
    20  H    4.375522   2.023248   1.092802   5.431313   4.014591
    21  H    4.196454   2.099394   1.099451   4.224380   3.225228
    22  H    3.934918   2.084885   1.101537   5.392948   4.415887
                   11         12         13         14         15
    11  H    0.000000
    12  H    1.760994   0.000000
    13  H    2.482913   3.069001   0.000000
    14  H    2.521843   2.480747   1.761981   0.000000
    15  H    3.821827   2.656972   4.051276   4.184253   0.000000
    16  H    4.329600   3.818480   4.210895   5.001000   1.754888
    17  H    4.329962   3.829253   2.477287   2.522433   3.794128
    18  H    3.825397   2.664679   3.066565   2.479184   2.630314
    19  H    5.003977   4.176691   3.846328   4.311139   2.427682
    20  H    6.054459   6.245186   4.364266   5.850572   5.020044
    21  H    5.519381   5.480935   4.501089   5.817712   3.796312
    22  H    6.309080   5.989610   4.784325   5.876710   4.199925
                   16         17         18         19         20
    16  H    0.000000
    17  H    4.307182   0.000000
    18  H    3.802919   1.766307   0.000000
    19  H    2.522333   2.497124   2.422509   0.000000
    20  H    3.796038   4.333157   5.293371   3.530943   0.000000
    21  H    2.261441   4.560104   4.909671   2.974866   1.779766
    22  H    3.209660   3.935946   4.574326   2.320914   1.785260
                   21         22
    21  H    0.000000
    22  H    1.786778   0.000000
 Stoichiometry    C7H14O
 Framework group  C1[X(C7H14O)]
 Deg. of freedom    60
 Full point group                 C1      NOp   1
 Largest Abelian subgroup         C1      NOp   1
 Largest concise Abelian subgroup C1      NOp   1
                         Standard orientation:                         
 ---------------------------------------------------------------------
 Center     Atomic      Atomic             Coordinates (Angstroms)
 Number     Number       Type             X           Y           Z
 ---------------------------------------------------------------------
      1          6           0        0.623761   -0.309490    0.679212
      2          6           0        0.029246    1.103916    0.824878
      3          6           0       -0.990284    1.420351   -0.281585
      4          6           0       -2.097701    0.356159   -0.344457
      5          6           0       -1.508171   -1.053790   -0.509649
      6          6           0       -0.483634   -1.366174    0.593736
      7          8           0        1.419839   -0.443329   -0.506872
      8          6           0        2.693300    0.170251   -0.443158
      9          1           0       -1.424045    2.413931   -0.113831
     10          1           0       -0.471220    1.459804   -1.247890
     11          1           0       -2.788751    0.577419   -1.167290
     12          1           0       -2.691103    0.396329    0.581645
     13          1           0       -1.015922   -1.131321   -1.486887
     14          1           0       -2.307327   -1.805154   -0.495524
     15          1           0       -0.461074    1.160726    1.807275
     16          1           0        0.828565    1.854373    0.840158
     17          1           0       -0.024388   -2.347542    0.430043
     18          1           0       -0.992071   -1.404242    1.567416
     19          1           0        1.265660   -0.526232    1.549969
     20          1           0        3.224070   -0.105348   -1.357787
     21          1           0        2.632125    1.266764   -0.391103
     22          1           0        3.267658   -0.190211    0.424922
 ---------------------------------------------------------------------
 Rotational constants (GHZ):      3.2609536      1.5736680      1.3219836
 Standard basis: CC-pVTZ (5D, 7F)
 There are   436 symmetry adapted basis functions of A   symmetry.
 Integral buffers will be    131072 words long.
 Raffenetti 1 integral format.
 Two-electron integral symmetry is turned on.
   436 basis functions,   654 primitive gaussians,   490 cartesian basis functions
    32 alpha electrons       32 beta electrons
       nuclear repulsion energy       414.7858176967 Hartrees.
 NAtoms=   22 NActive=   22 NUniq=   22 SFac= 7.50D-01 NAtFMM=   80 NAOKFM=F Big=F
 One-electron integrals computed using PRISM.
 NBasis=   436 RedAO= T  NBF=   436
 NBsUse=   436 1.00D-06 NBFU=   436
 Harris functional with IExCor=  205 diagonalized for initial guess.
 ExpMin= 1.03D-01 ExpMax= 1.53D+04 ExpMxC= 5.22D+02 IAcc=1 IRadAn=         1 AccDes= 0.00D+00
 HarFok:  IExCor=  205 AccDes= 0.00D+00 IRadAn=         1 IDoV= 1
 ScaDFX=  1.000000  1.000000  1.000000  1.000000
 FoFCou: FMM=F IPFlag=           0 FMFlag=      100000 FMFlg1=           0
         NFxFlg=           0 DoJE=T BraDBF=F KetDBF=T FulRan=T
         Omega=  0.000000  0.000000  1.000000  0.000000  0.000000 ICntrl=     500 IOpCl=  0
         NMat0=    1 NMatS0=    1 NMatT0=    0 NMatD0=    1 NMtDS0=    0 NMtDT0=    0
         I1Cent=           4 NGrid=           0.
 Petite list used in FoFCou.
 Initial guess orbital symmetries:
       Occupied  (A) (A) (A) (A) (A) (A) (A) (A) (A) (A) (A) (A)
                 (A) (A) (A) (A) (A) (A) (A) (A) (A) (A) (A) (A)
                 (A) (A) (A) (A) (A) (A) (A) (A)
       Virtual   (A) (A) (A) (A) (A) (A) (A) (A) (A) (A) (A) (A)
                 (A) (A) (A) (A) (A) (A) (A) (A) (A) (A) (A) (A)
                 (A) (A) (A) (A) (A) (A) (A) (A) (A) (A) (A) (A)
                 (A) (A) (A) (A) (A) (A) (A) (A) (A) (A) (A) (A)
                 (A) (A) (A) (A) (A) (A) (A) (A) (A) (A) (A) (A)
                 (A) (A) (A) (A) (A) (A) (A) (A) (A) (A) (A) (A)
                 (A) (A) (A) (A) (A) (A) (A) (A) (A) (A) (A) (A)
                 (A) (A) (A) (A) (A) (A) (A) (A) (A) (A) (A) (A)
                 (A) (A) (A) (A) (A) (A) (A) (A) (A) (A) (A) (A)
                 (A) (A) (A) (A) (A) (A) (A) (A) (A) (A) (A) (A)
                 (A) (A) (A) (A) (A) (A) (A) (A) (A) (A) (A) (A)
                 (A) (A) (A) (A) (A) (A) (A) (A) (A) (A) (A) (A)
                 (A) (A) (A) (A) (A) (A) (A) (A) (A) (A) (A) (A)
                 (A) (A) (A) (A) (A) (A) (A) (A) (A) (A) (A) (A)
                 (A) (A) (A) (A) (A) (A) (A) (A) (A) (A) (A) (A)
                 (A) (A) (A) (A) (A) (A) (A) (A) (A) (A) (A) (A)
                 (A) (A) (A) (A) (A) (A) (A) (A) (A) (A) (A) (A)
                 (A) (A) (A) (A) (A) (A) (A) (A) (A) (A) (A) (A)
                 (A) (A) (A) (A) (A) (A) (A) (A) (A) (A) (A) (A)
                 (A) (A) (A) (A) (A) (A) (A) (A) (A) (A) (A) (A)
                 (A) (A) (A) (A) (A) (A) (A) (A) (A) (A) (A) (A)
                 (A) (A) (A) (A) (A) (A) (A) (A) (A) (A) (A) (A)
                 (A) (A) (A) (A) (A) (A) (A) (A) (A) (A) (A) (A)
                 (A) (A) (A) (A) (A) (A) (A) (A) (A) (A) (A) (A)
                 (A) (A) (A) (A) (A) (A) (A) (A) (A) (A) (A) (A)
                 (A) (A) (A) (A) (A) (A) (A) (A) (A) (A) (A) (A)
                 (A) (A) (A) (A) (A) (A) (A) (A) (A) (A) (A) (A)
                 (A) (A) (A) (A) (A) (A) (A) (A) (A) (A) (A) (A)
                 (A) (A) (A) (A) (A) (A) (A) (A) (A) (A) (A) (A)
                 (A) (A) (A) (A) (A) (A) (A) (A) (A) (A) (A) (A)
                 (A) (A) (A) (A) (A) (A) (A) (A) (A) (A) (A) (A)
                 (A) (A) (A) (A) (A) (A) (A) (A) (A) (A) (A) (A)
                 (A) (A) (A) (A) (A) (A) (A) (A) (A) (A) (A) (A)
                 (A) (A) (A) (A) (A) (A) (A) (A)
 The electronic state of the initial guess is 1-A.
 Requested convergence on RMS density matrix=1.00D-08 within 128 cycles.
 Requested convergence on MAX density matrix=1.00D-06.
 Requested convergence on             energy=1.00D-06.
 No special actions if energy rises.
 Integral accuracy reduced to 1.0D-05 until final iterations.
 Initial convergence to 1.0D-05 achieved.  Increase integral accuracy.
 SCF Done:  E(RHF) =  -348.205137912     A.U. after   12 cycles
             Convg  =    0.3562D-08             -V/T =  2.0018
 ExpMin= 1.03D-01 ExpMax= 1.53D+04 ExpMxC= 5.22D+02 IAcc=1 IRadAn=         1 AccDes= 0.00D+00
 HarFok:  IExCor=  205 AccDes= 0.00D+00 IRadAn=         1 IDoV=-2
 ScaDFX=  1.000000  1.000000  1.000000  1.000000
 Range of M.O.s used for correlation:     9   436
 NBasis=   436 NAE=    32 NBE=    32 NFC=     8 NFV=     0
 NROrb=    428 NOA=    24 NOB=    24 NVA=   404 NVB=   404

 **** Warning!!: The largest alpha MO coefficient is  0.11245439D+02

 Fully direct method using O(OVN) memory.
 JobTyp=1 Pass  1:  I=   1 to  24 NPSUse=  4 ParTrn=T ParDer=T DoDerP=F.
 Spin components of T(2) and E(2):
     alpha-alpha T2 =       0.5360971031D-01 E2=     -0.1682020091D+00
     alpha-beta  T2 =       0.3246183743D+00 E2=     -0.1113200531D+01
     beta-beta   T2 =       0.5360971031D-01 E2=     -0.1682020091D+00
 ANorm=    0.1196594248D+01
 E2 =    -0.1449604549D+01 EUMP2 =    -0.34965474246061D+03

 **********************************************************************

            Population analysis using the SCF density.

 **********************************************************************

 Orbital symmetries:
       Occupied  (A) (A) (A) (A) (A) (A) (A) (A) (A) (A) (A) (A)
                 (A) (A) (A) (A) (A) (A) (A) (A) (A) (A) (A) (A)
                 (A) (A) (A) (A) (A) (A) (A) (A)
       Virtual   (A) (A) (A) (A) (A) (A) (A) (A) (A) (A) (A) (A)
                 (A) (A) (A) (A) (A) (A) (A) (A) (A) (A) (A) (A)
                 (A) (A) (A) (A) (A) (A) (A) (A) (A) (A) (A) (A)
                 (A) (A) (A) (A) (A) (A) (A) (A) (A) (A) (A) (A)
                 (A) (A) (A) (A) (A) (A) (A) (A) (A) (A) (A) (A)
                 (A) (A) (A) (A) (A) (A) (A) (A) (A) (A) (A) (A)
                 (A) (A) (A) (A) (A) (A) (A) (A) (A) (A) (A) (A)
                 (A) (A) (A) (A) (A) (A) (A) (A) (A) (A) (A) (A)
                 (A) (A) (A) (A) (A) (A) (A) (A) (A) (A) (A) (A)
                 (A) (A) (A) (A) (A) (A) (A) (A) (A) (A) (A) (A)
                 (A) (A) (A) (A) (A) (A) (A) (A) (A) (A) (A) (A)
                 (A) (A) (A) (A) (A) (A) (A) (A) (A) (A) (A) (A)
                 (A) (A) (A) (A) (A) (A) (A) (A) (A) (A) (A) (A)
                 (A) (A) (A) (A) (A) (A) (A) (A) (A) (A) (A) (A)
                 (A) (A) (A) (A) (A) (A) (A) (A) (A) (A) (A) (A)
                 (A) (A) (A) (A) (A) (A) (A) (A) (A) (A) (A) (A)
                 (A) (A) (A) (A) (A) (A) (A) (A) (A) (A) (A) (A)
                 (A) (A) (A) (A) (A) (A) (A) (A) (A) (A) (A) (A)
                 (A) (A) (A) (A) (A) (A) (A) (A) (A) (A) (A) (A)
                 (A) (A) (A) (A) (A) (A) (A) (A) (A) (A) (A) (A)
                 (A) (A) (A) (A) (A) (A) (A) (A) (A) (A) (A) (A)
                 (A) (A) (A) (A) (A) (A) (A) (A) (A) (A) (A) (A)
                 (A) (A) (A) (A) (A) (A) (A) (A) (A) (A) (A) (A)
                 (A) (A) (A) (A) (A) (A) (A) (A) (A) (A) (A) (A)
                 (A) (A) (A) (A) (A) (A) (A) (A) (A) (A) (A) (A)
                 (A) (A) (A) (A) (A) (A) (A) (A) (A) (A) (A) (A)
                 (A) (A) (A) (A) (A) (A) (A) (A) (A) (A) (A) (A)
                 (A) (A) (A) (A) (A) (A) (A) (A) (A) (A) (A) (A)
                 (A) (A) (A) (A) (A) (A) (A) (A) (A) (A) (A) (A)
                 (A) (A) (A) (A) (A) (A) (A) (A) (A) (A) (A) (A)
                 (A) (A) (A) (A) (A) (A) (A) (A) (A) (A) (A) (A)
                 (A) (A) (A) (A) (A) (A) (A) (A) (A) (A) (A) (A)
                 (A) (A) (A) (A) (A) (A) (A) (A) (A) (A) (A) (A)
                 (A) (A) (A) (A) (A) (A) (A) (A)
 The electronic state is 1-A.
 Alpha  occ. eigenvalues --  -20.54571 -11.27344 -11.26688 -11.21679 -11.21355
 Alpha  occ. eigenvalues --  -11.21353 -11.21290 -11.21055  -1.36102  -1.10181
 Alpha  occ. eigenvalues --   -1.00089  -0.99585  -0.91227  -0.82981  -0.81746
 Alpha  occ. eigenvalues --   -0.73750  -0.66827  -0.64086  -0.63152  -0.61619
 Alpha  occ. eigenvalues --   -0.58708  -0.57281  -0.53665  -0.53059  -0.51973
 Alpha  occ. eigenvalues --   -0.50485  -0.48412  -0.47536  -0.45132  -0.44211
 Alpha  occ. eigenvalues --   -0.42323  -0.40200
 Alpha virt. eigenvalues --    0.13669   0.15448   0.16259   0.17262   0.19529
 Alpha virt. eigenvalues --    0.19918   0.20859   0.21573   0.22071   0.23051
 Alpha virt. eigenvalues --    0.23543   0.25074   0.25918   0.27752   0.28388
 Alpha virt. eigenvalues --    0.31688   0.33681   0.34691   0.35465   0.38393
 Alpha virt. eigenvalues --    0.38930   0.39557   0.40065   0.41659   0.42261
 Alpha virt. eigenvalues --    0.44890   0.45749   0.46443   0.48525   0.51496
 Alpha virt. eigenvalues --    0.53878   0.55729   0.56392   0.57198   0.59049
 Alpha virt. eigenvalues --    0.59321   0.60075   0.60242   0.60894   0.61540
 Alpha virt. eigenvalues --    0.62654   0.62887   0.63519   0.64773   0.65176
 Alpha virt. eigenvalues --    0.66266   0.66278   0.66723   0.68341   0.68670
 Alpha virt. eigenvalues --    0.69059   0.70513   0.71098   0.71414   0.72506
 Alpha virt. eigenvalues --    0.74409   0.77153   0.79956   0.83036   0.85039
 Alpha virt. eigenvalues --    0.86049   0.88120   0.89980   0.91792   0.94550
 Alpha virt. eigenvalues --    0.96150   0.97836   0.99193   0.99572   1.01863
 Alpha virt. eigenvalues --    1.04391   1.06023   1.07961   1.08593   1.10837
 Alpha virt. eigenvalues --    1.12482   1.13854   1.14881   1.15251   1.17100
 Alpha virt. eigenvalues --    1.20003   1.20739   1.21553   1.22089   1.23042
 Alpha virt. eigenvalues --    1.23861   1.25940   1.27286   1.27706   1.28601
 Alpha virt. eigenvalues --    1.30542   1.31285   1.32288   1.32590   1.34772
 Alpha virt. eigenvalues --    1.35855   1.36833   1.38128   1.38889   1.39757
 Alpha virt. eigenvalues --    1.40581   1.41228   1.41387   1.43219   1.44938
 Alpha virt. eigenvalues --    1.46380   1.47397   1.47992   1.49232   1.49347
 Alpha virt. eigenvalues --    1.50499   1.53340   1.54760   1.55489   1.56786
 Alpha virt. eigenvalues --    1.57494   1.58182   1.58927   1.61095   1.62628
 Alpha virt. eigenvalues --    1.63232   1.64569   1.64855   1.67181   1.69140
 Alpha virt. eigenvalues --    1.69699   1.70351   1.72149   1.73900   1.74735
 Alpha virt. eigenvalues --    1.77018   1.77469   1.78397   1.80366   1.83463
 Alpha virt. eigenvalues --    1.87396   1.88772   1.90882   1.91051   1.94257
 Alpha virt. eigenvalues --    2.01175   2.03229   2.07263   2.14387   2.15288
 Alpha virt. eigenvalues --    2.27452   2.32342   2.37374   2.39482   2.50966
 Alpha virt. eigenvalues --    2.53625   2.62093   2.62740   2.63032   2.64222
 Alpha virt. eigenvalues --    2.67998   2.69085   2.73538   2.74661   2.79042
 Alpha virt. eigenvalues --    2.79127   2.82552   2.83301   2.84109   2.86935
 Alpha virt. eigenvalues --    2.87486   2.87899   2.88937   2.89180   2.90969
 Alpha virt. eigenvalues --    2.92777   2.94209   2.96044   2.97326   2.98685
 Alpha virt. eigenvalues --    2.99300   3.00056   3.01989   3.02608   3.03643
 Alpha virt. eigenvalues --    3.03847   3.05256   3.06268   3.07299   3.09695
 Alpha virt. eigenvalues --    3.11847   3.12941   3.15637   3.17057   3.19678
 Alpha virt. eigenvalues --    3.20961   3.21969   3.24186   3.25677   3.26317
 Alpha virt. eigenvalues --    3.28171   3.29928   3.30720   3.31668   3.33434
 Alpha virt. eigenvalues --    3.35507   3.36726   3.37372   3.39774   3.40133
 Alpha virt. eigenvalues --    3.42707   3.43697   3.45234   3.46162   3.46364
 Alpha virt. eigenvalues --    3.47255   3.47922   3.48598   3.49000   3.50674
 Alpha virt. eigenvalues --    3.51211   3.52505   3.53467   3.53974   3.54586
 Alpha virt. eigenvalues --    3.56106   3.56973   3.58702   3.59843   3.61322
 Alpha virt. eigenvalues --    3.62798   3.63869   3.65212   3.66405   3.67339
 Alpha virt. eigenvalues --    3.69463   3.70512   3.71266   3.72973   3.73765
 Alpha virt. eigenvalues --    3.74450   3.76821   3.78127   3.80041   3.81910
 Alpha virt. eigenvalues --    3.82112   3.83700   3.84648   3.86062   3.87647
 Alpha virt. eigenvalues --    3.87966   3.89816   3.93654   3.95591   3.96188
 Alpha virt. eigenvalues --    3.97438   3.98872   4.00492   4.01205   4.01646
 Alpha virt. eigenvalues --    4.03615   4.05080   4.05765   4.06289   4.07729
 Alpha virt. eigenvalues --    4.08991   4.09807   4.10417   4.10912   4.13597
 Alpha virt. eigenvalues --    4.14741   4.15065   4.15673   4.18223   4.19113
 Alpha virt. eigenvalues --    4.21928   4.22532   4.25128   4.26627   4.28245
 Alpha virt. eigenvalues --    4.28805   4.30702   4.31768   4.32330   4.34239
 Alpha virt. eigenvalues --    4.34470   4.35814   4.36804   4.38144   4.39317
 Alpha virt. eigenvalues --    4.39955   4.40309   4.41401   4.42471   4.44258
 Alpha virt. eigenvalues --    4.45784   4.46917   4.47778   4.48919   4.50350
 Alpha virt. eigenvalues --    4.51681   4.52636   4.55545   4.57072   4.57397
 Alpha virt. eigenvalues --    4.57943   4.59399   4.61130   4.62769   4.63458
 Alpha virt. eigenvalues --    4.65050   4.65878   4.66369   4.68156   4.69563
 Alpha virt. eigenvalues --    4.70807   4.72670   4.73948   4.78259   4.82136
 Alpha virt. eigenvalues --    4.83483   4.84431   4.87036   4.87851   4.90385
 Alpha virt. eigenvalues --    4.92493   4.98794   4.99601   5.03680   5.03739
 Alpha virt. eigenvalues --    5.04802   5.08853   5.09615   5.10796   5.13922
 Alpha virt. eigenvalues --    5.15842   5.16409   5.19069   5.19880   5.20870
 Alpha virt. eigenvalues --    5.26046   5.28037   5.29688   5.30832   5.33746
 Alpha virt. eigenvalues --    5.34145   5.35120   5.35838   5.38141   5.39917
 Alpha virt. eigenvalues --    5.40596   5.42079   5.42842   5.43621   5.45383
 Alpha virt. eigenvalues --    5.47828   5.48195   5.53922   5.56089   5.59228
 Alpha virt. eigenvalues --    5.60851   5.62692   5.63756   5.64386   5.66676
 Alpha virt. eigenvalues --    5.69784   5.72063   5.76100   5.77475   5.81040
 Alpha virt. eigenvalues --    5.81895   5.83199   5.84565   5.86719   5.87957
 Alpha virt. eigenvalues --    5.90162   5.92540   5.95045   5.97700   5.99228
 Alpha virt. eigenvalues --    6.07137   6.11264   6.12653   6.21256   6.23649
 Alpha virt. eigenvalues --    6.24412   6.36037   6.38671   6.41757   6.44297
 Alpha virt. eigenvalues --    6.47885   6.51213   6.53908   6.74677   6.81639
 Alpha virt. eigenvalues --    6.89697   7.32599   7.38953   7.57083   7.88913
 Alpha virt. eigenvalues --    7.98323  11.46974  12.44755  12.91575  13.27339
 Alpha virt. eigenvalues --   13.47716  13.57849  13.61841  13.91206
          Condensed to atoms (all electrons):
              1          2          3          4          5          6
     1  C    4.700020   0.343448  -0.037657   0.002531  -0.030316   0.361710
     2  C    0.343448   4.959178   0.323978  -0.039308  -0.009358  -0.039185
     3  C   -0.037657   0.323978   4.876013   0.342832  -0.035955  -0.006790
     4  C    0.002531  -0.039308   0.342832   4.865870   0.345194  -0.041988
     5  C   -0.030316  -0.009358  -0.035955   0.345194   4.868247   0.343674
     6  C    0.361710  -0.039185  -0.006790  -0.041988   0.343674   4.857219
     7  O    0.278258  -0.048857   0.003206  -0.002180  -0.004409  -0.044041
     8  C   -0.052144  -0.004750  -0.000283   0.000066  -0.000085   0.004750
     9  H    0.005592  -0.038919   0.439090  -0.037217   0.006321  -0.001081
    10  H   -0.004334  -0.033400   0.418710  -0.033193  -0.002490   0.000998
    11  H   -0.000915   0.006201  -0.036870   0.435237  -0.036416   0.006256
    12  H   -0.001084  -0.000389  -0.042836   0.424637  -0.042364   0.000111
    13  H   -0.005766   0.001115  -0.001990  -0.033881   0.417957  -0.033387
    14  H    0.006216  -0.001154   0.006718  -0.038062   0.437628  -0.038125
    15  H   -0.031983   0.422693  -0.036622  -0.001071   0.000311  -0.002255
    16  H   -0.027556   0.429266  -0.038858   0.005882  -0.000892   0.006082
    17  H   -0.033400   0.008077  -0.001385   0.006069  -0.034106   0.426637
    18  H   -0.044897   0.003119   0.000204  -0.002101  -0.038379   0.425808
    19  H    0.460413  -0.061051   0.008298  -0.001647   0.006914  -0.041823
    20  H    0.005338   0.000053  -0.000049   0.000000   0.000114  -0.000190
    21  H   -0.004514   0.006879   0.000051   0.000089  -0.000221  -0.000599
    22  H   -0.008734  -0.005058   0.000368  -0.000043   0.000031   0.000490
              7          8          9         10         11         12
     1  C    0.278258  -0.052144   0.005592  -0.004334  -0.000915  -0.001084
     2  C   -0.048857  -0.004750  -0.038919  -0.033400   0.006201  -0.000389
     3  C    0.003206  -0.000283   0.439090   0.418710  -0.036870  -0.042836
     4  C   -0.002180   0.000066  -0.037217  -0.033193   0.435237   0.424637
     5  C   -0.004409  -0.000085   0.006321  -0.002490  -0.036416  -0.042364
     6  C   -0.044041   0.004750  -0.001081   0.000998   0.006256   0.000111
     7  O    8.021657   0.326856   0.000028   0.006342  -0.000027  -0.000086
     8  C    0.326856   4.567862  -0.000052  -0.000343   0.000007  -0.000008
     9  H    0.000028  -0.000052   0.572429  -0.032712  -0.004728  -0.005208
    10  H    0.006342  -0.000343  -0.032712   0.582354  -0.004681   0.006633
    11  H   -0.000027   0.000007  -0.004728  -0.004681   0.571800  -0.032711
    12  H   -0.000086  -0.000008  -0.005208   0.006633  -0.032711   0.607639
    13  H    0.007787  -0.000339   0.000019   0.000697  -0.004600   0.006510
    14  H   -0.000077   0.000019  -0.000284  -0.000037  -0.004638  -0.005509
    15  H    0.004134   0.000063  -0.005222   0.006641  -0.000061   0.001801
    16  H   -0.001226  -0.002603  -0.004672  -0.004143  -0.000264  -0.000104
    17  H    0.003619   0.000132   0.000096  -0.000173  -0.000277  -0.000021
    18  H    0.003448  -0.000317  -0.000038  -0.000082  -0.000135   0.001751
    19  H   -0.035050  -0.007427  -0.000186   0.000078   0.000096  -0.000282
    20  H   -0.031887   0.420540  -0.000003  -0.000038   0.000000   0.000000
    21  H   -0.048478   0.405489   0.000012  -0.001224  -0.000002   0.000009
    22  H   -0.044607   0.418008   0.000007   0.000241   0.000000  -0.000005
             13         14         15         16         17         18
     1  C   -0.005766   0.006216  -0.031983  -0.027556  -0.033400  -0.044897
     2  C    0.001115  -0.001154   0.422693   0.429266   0.008077   0.003119
     3  C   -0.001990   0.006718  -0.036622  -0.038858  -0.001385   0.000204
     4  C   -0.033881  -0.038062  -0.001071   0.005882   0.006069  -0.002101
     5  C    0.417957   0.437628   0.000311  -0.000892  -0.034106  -0.038379
     6  C   -0.033387  -0.038125  -0.002255   0.006082   0.426637   0.425808
     7  O    0.007787  -0.000077   0.004134  -0.001226   0.003619   0.003448
     8  C   -0.000339   0.000019   0.000063  -0.002603   0.000132  -0.000317
     9  H    0.000019  -0.000284  -0.005222  -0.004672   0.000096  -0.000038
    10  H    0.000697  -0.000037   0.006641  -0.004143  -0.000173  -0.000082
    11  H   -0.004600  -0.004638  -0.000061  -0.000264  -0.000277  -0.000135
    12  H    0.006510  -0.005509   0.001801  -0.000104  -0.000021   0.001751
    13  H    0.576554  -0.032895  -0.000152  -0.000151  -0.003493   0.006859
    14  H   -0.032895   0.575273  -0.000080   0.000100  -0.004597  -0.006200
    15  H   -0.000152  -0.000080   0.576630  -0.030425  -0.000287  -0.000824
    16  H   -0.000151   0.000100  -0.030425   0.571584  -0.000307  -0.000166
    17  H   -0.003493  -0.004597  -0.000287  -0.000307   0.562496  -0.027658
    18  H    0.006859  -0.006200  -0.000824  -0.000166  -0.027658   0.596463
    19  H    0.000229  -0.000219  -0.003365  -0.005225  -0.006478  -0.003978
    20  H   -0.000121  -0.000001   0.000033   0.000206  -0.000078   0.000013
    21  H    0.000142  -0.000007  -0.000604  -0.004600   0.000221   0.000076
    22  H    0.000059   0.000004   0.000102   0.000529  -0.000343  -0.000075
             19         20         21         22
     1  C    0.460413   0.005338  -0.004514  -0.008734
     2  C   -0.061051   0.000053   0.006879  -0.005058
     3  C    0.008298  -0.000049   0.000051   0.000368
     4  C   -0.001647   0.000000   0.000089  -0.000043
     5  C    0.006914   0.000114  -0.000221   0.000031
     6  C   -0.041823  -0.000190  -0.000599   0.000490
     7  O   -0.035050  -0.031887  -0.048478  -0.044607
     8  C   -0.007427   0.420540   0.405489   0.418008
     9  H   -0.000186  -0.000003   0.000012   0.000007
    10  H    0.000078  -0.000038  -0.001224   0.000241
    11  H    0.000096   0.000000  -0.000002   0.000000
    12  H   -0.000282   0.000000   0.000009  -0.000005
    13  H    0.000229  -0.000121   0.000142   0.000059
    14  H   -0.000219  -0.000001  -0.000007   0.000004
    15  H   -0.003365   0.000033  -0.000604   0.000102
    16  H   -0.005225   0.000206  -0.004600   0.000529
    17  H   -0.006478  -0.000078   0.000221  -0.000343
    18  H   -0.003978   0.000013   0.000076  -0.000075
    19  H    0.585440  -0.000124  -0.001840   0.010039
    20  H   -0.000124   0.564713  -0.037869  -0.030930
    21  H   -0.001840  -0.037869   0.689034  -0.065149
    22  H    0.010039  -0.030930  -0.065149   0.663766
 Mulliken atomic charges:
              1
     1  C    0.119772
     2  C   -0.222577
     3  C   -0.180174
     4  C   -0.197717
     5  C   -0.191401
     6  C   -0.184273
     7  O   -0.394411
     8  C   -0.075443
     9  H    0.106727
    10  H    0.094157
    11  H    0.106729
    12  H    0.081516
    13  H    0.098847
    14  H    0.105928
    15  H    0.100542
    16  H    0.107543
    17  H    0.105258
    18  H    0.087108
    19  H    0.097189
    20  H    0.110277
    21  H    0.063104
    22  H    0.061299
 Sum of Mulliken atomic charges =   0.00000
 Mulliken charges with hydrogens summed into heavy atoms:
              1
     1  C    0.216961
     2  C   -0.014492
     3  C    0.020710
     4  C   -0.009473
     5  C    0.013374
     6  C    0.008093
     7  O   -0.394411
     8  C    0.159237
 Sum of Mulliken charges with hydrogens summed into heavy atoms =   0.00000
 Electronic spatial extent (au):  <R**2>=           1056.3745
 Charge=              0.0000 electrons
 Dipole moment (field-independent basis, Debye):
    X=              0.3845    Y=              0.6536    Z=              0.9509  Tot=              1.2162
 Quadrupole moment (field-independent basis, Debye-Ang):
   XX=            -49.2038   YY=            -52.4774   ZZ=            -51.8579
   XY=              1.3431   XZ=              0.2648   YZ=             -0.8021
 Traceless Quadrupole moment (field-independent basis, Debye-Ang):
   XX=              1.9759   YY=             -1.2977   ZZ=             -0.6782
   XY=              1.3431   XZ=              0.2648   YZ=             -0.8021
 Octapole moment (field-independent basis, Debye-Ang**2):
  XXX=             20.3759  YYY=             -1.6904  ZZZ=             -2.5339  XYY=              2.1420
  XXY=              0.8265  XXZ=             -2.2115  XZZ=              2.8122  YZZ=             -0.6642
  YYZ=             -0.3400  XYZ=             -1.0978
 Hexadecapole moment (field-independent basis, Debye-Ang**3):
 XXXX=           -825.5073 YYYY=           -385.7300 ZZZZ=           -203.5555 XXXY=              0.7441
 XXXZ=            -11.9611 YYYX=             -1.0315 YYYZ=              1.8269 ZZZX=             -7.0085
 ZZZY=              0.0805 XXYY=           -207.1531 XXZZ=           -169.5651 YYZZ=           -102.7757
 XXYZ=             -1.5397 YYXZ=             -1.0209 ZZXY=             -2.8327
 N-N= 4.147858176967D+02 E-N=-1.642770079913D+03  KE= 3.475814499941D+02
 1\1\GINC-ROCK\SP\RMP2-FC\CC-pVTZ\C7H14O1\STYLIANAKIS\02-Mar-2016\0\\# 
 mp2/cc-pVTZ\\methoxycyclohexane-ax_single_point\\0,1\C\C,1,1.540255\C,
 2,1.537476,1,112.133\C,3,1.53715,2,111.388,1,54.694,0\C,4,1.537137,3,1
 11.292,2,-54.954,0\C,5,1.537764,4,111.392,3,54.714,0\O,1,1.434729,2,11
 2.207,3,65.899,0\C,7,1.415006,1,114.941,2,75.219,0\H,3,1.097038,4,110.
 391,5,-177.195,0\H,3,1.097602,4,109.243,5,65.651,0\H,4,1.097069,3,110.
 173,2,-177.554,0\H,4,1.100638,3,109.192,2,65.806,0\H,5,1.096957,4,109.
 431,3,-65.905,0\H,5,1.096995,4,110.333,3,176.796,0\H,2,1.099429,3,109.
 675,4,-64.912,0\H,2,1.096508,3,110.644,4,178.383,0\H,6,1.095803,5,110.
 73,4,-176.441,0\H,6,1.099095,5,109.541,4,65.574,0\H,1,1.103281,2,109.2
 81,3,-174.164,0\H,8,1.092802,7,106.862,1,173.757,0\H,8,1.099451,7,112.
 614,1,-67.138,0\H,8,1.101537,7,111.275,1,54.999,0\\Version=EM64L-G09Re
 vA.01\State=1-A\HF=-348.2051379\MP2=-349.6547425\RMSD=3.562e-09\PG=C01
  [X(C7H14O1)]\\@


 EVERY WORD THAT YOU WRITE IS A BLOW THAT SMITES THE DEVIL.
     -- ST. BERNARD OF CLAIRVAUX
 Job cpu time:  0 days  1 hours 24 minutes 39.1 seconds.
 File lengths (MBytes):  RWF=    105 Int=      0 D2E=      0 Chk=      9 Scr=      1
 Normal termination of Gaussian 09 at Wed Mar  2 08:12:30 2016.
