 Entering Gaussian System, Link 0=g09
 Input=phenylcyclohexane-eq.gjf
 Output=phenylcyclohexane-eq.out
 Initial command:
 /usr/local/g09/l1.exe /home/scratch/stylianakis/Gau-21825.inp -scrdir=/home/scratch/stylianakis/
 Entering Link 1 = /usr/local/g09/l1.exe PID=     21826.
  
 Copyright (c) 1988,1990,1992,1993,1995,1998,2003,2009, Gaussian, Inc.
                  All Rights Reserved.
  
 This is part of the Gaussian(R) 09 program.  It is based on
 the Gaussian(R) 03 system (copyright 2003, Gaussian, Inc.),
 the Gaussian(R) 98 system (copyright 1998, Gaussian, Inc.),
 the Gaussian(R) 94 system (copyright 1995, Gaussian, Inc.),
 the Gaussian 92(TM) system (copyright 1992, Gaussian, Inc.),
 the Gaussian 90(TM) system (copyright 1990, Gaussian, Inc.),
 the Gaussian 88(TM) system (copyright 1988, Gaussian, Inc.),
 the Gaussian 86(TM) system (copyright 1986, Carnegie Mellon
 University), and the Gaussian 82(TM) system (copyright 1983,
 Carnegie Mellon University). Gaussian is a federally registered
 trademark of Gaussian, Inc.
  
 This software contains proprietary and confidential information,
 including trade secrets, belonging to Gaussian, Inc.
  
 This software is provided under written license and may be
 used, copied, transmitted, or stored only in accord with that
 written license.
  
 The following legend is applicable only to US Government
 contracts under FAR:
  
                    RESTRICTED RIGHTS LEGEND
  
 Use, reproduction and disclosure by the US Government is
 subject to restrictions as set forth in subparagraphs (a)
 and (c) of the Commercial Computer Software - Restricted
 Rights clause in FAR 52.227-19.
  
 Gaussian, Inc.
 340 Quinnipiac St., Bldg. 40, Wallingford CT 06492
  
  
 ---------------------------------------------------------------
 Warning -- This program may not be used in any manner that
 competes with the business of Gaussian, Inc. or will provide
 assistance to any competitor of Gaussian, Inc.  The licensee
 of this program is prohibited from giving any competitor of
 Gaussian, Inc. access to this program.  By using this program,
 the user acknowledges that Gaussian, Inc. is engaged in the
 business of creating and licensing software in the field of
 computational chemistry and represents and warrants to the
 licensee that it is not a competitor of Gaussian, Inc. and that
 it will not use this program in any manner prohibited above.
 ---------------------------------------------------------------
  

 Cite this work as:
 Gaussian 09, Revision A.01,
 M. J. Frisch, G. W. Trucks, H. B. Schlegel, G. E. Scuseria, 
 M. A. Robb, J. R. Cheeseman, G. Scalmani, V. Barone, B. Mennucci, 
 G. A. Petersson, H. Nakatsuji, M. Caricato, X. Li, H. P. Hratchian, 
 A. F. Izmaylov, J. Bloino, G. Zheng, J. L. Sonnenberg, M. Hada, 
 M. Ehara, K. Toyota, R. Fukuda, J. Hasegawa, M. Ishida, T. Nakajima, 
 Y. Honda, O. Kitao, H. Nakai, T. Vreven, J. A. Montgomery, Jr., 
 J. E. Peralta, F. Ogliaro, M. Bearpark, J. J. Heyd, E. Brothers, 
 K. N. Kudin, V. N. Staroverov, R. Kobayashi, J. Normand, 
 K. Raghavachari, A. Rendell, J. C. Burant, S. S. Iyengar, J. Tomasi, 
 M. Cossi, N. Rega, J. M. Millam, M. Klene, J. E. Knox, J. B. Cross, 
 V. Bakken, C. Adamo, J. Jaramillo, R. Gomperts, R. E. Stratmann, 
 O. Yazyev, A. J. Austin, R. Cammi, C. Pomelli, J. W. Ochterski, 
 R. L. Martin, K. Morokuma, V. G. Zakrzewski, G. A. Voth, 
 P. Salvador, J. J. Dannenberg, S. Dapprich, A. D. Daniels, 
 O. Farkas, J. B. Foresman, J. V. Ortiz, J. Cioslowski, 
 and D. J. Fox, Gaussian, Inc., Wallingford CT, 2009.
 
 ******************************************
 Gaussian 09:  EM64L-G09RevA.01  8-May-2009
                15-Mar-2016 
 ******************************************
 %mem=16000Mb
 %nproc=8
 Will use up to    8 processors via shared memory.
 -------------
 # mp2/cc-pVTZ
 -------------
 1/38=1/1;
 2/12=2,17=6,18=5,40=1/2;
 3/5=16,6=1,11=9,16=1,25=1,30=1/1,2,3;
 4//1;
 5/5=2,38=5/2;
 8/10=1/1;
 9/16=-3/6;
 6/7=2,8=2,9=2,10=2/1;
 99/5=1,9=1/99;
 ---------------------------------
 phenylcyclohexane-eq_single_point
 ---------------------------------
 Symbolic Z-matrix:
 Charge =  0 Multiplicity = 1
 c
 c                    1    cc2
 c                    2    cc3      1    ccc3
 c                    3    cc4      2    ccc4     1    dih4     0
 c                    4    cc5      3    ccc5     2    dih5     0
 c                    5    cc6      4    ccc6     3    dih6     0
 c                    4    cc7      5    ccc7     6    dih7     0
 c                    7    cc8      4    ccc8     5    dih8     0
 c                    8    cc9      7    ccc9     4    dih9     0
 c                    9    cc10     8    ccc10    7    dih10    0
 c                    10   cc11     9    ccc11    8    dih11    0
 c                    11   cc12     10   ccc12    9    dih12    0
 h                    8    hc13     9    hcc13    10   dih13    0
 h                    8    hc14     9    hcc14    10   dih14    0
 h                    9    hc15     8    hcc15    7    dih15    0
 h                    10   hc16     9    hcc16    8    dih16    0
 h                    7    hc17     8    hcc17    9    dih17    0
 h                    11   hc18     10   hcc18    9    dih18    0
 h                    12   hc19     7    hcc19    8    dih19    0
 h                    12   hc20     7    hcc20    8    dih20    0
 h                    10   hc21     9    hcc21    8    dih21    0
 h                    9    hc22     8    hcc22    7    dih22    0
 h                    11   hc23     10   hcc23    9    dih23    0
 h                    5    hc24     4    hcc24    7    dih24    0
 h                    3    hc25     4    hcc25    7    dih25    0
 h                    2    hc26     3    hcc26    4    dih26    0
 h                    6    hc27     5    hcc27    4    dih27    0
 h                    1    hc28     2    hcc28    3    dih28    0
       Variables:
  cc2                   1.39819                  
  cc3                   1.39648                  
  ccc3                120.272                    
  cc4                   1.40493                  
  ccc4                121.115                    
  dih4                 -0.001                    
  cc5                   1.40271                  
  ccc5                117.869                    
  dih5                  0.001                    
  cc6                   1.39811                  
  ccc6                121.306                    
  dih6                  0.                       
  cc7                   1.52011                  
  ccc7                120.537                    
  dih7               -179.998                    
  cc8                   1.5468                   
  ccc8                112.588                    
  dih8                117.321                    
  cc9                   1.53719                  
  ccc9                111.852                    
  dih9               -178.502                    
  cc10                  1.53642                  
  ccc10               111.702                    
  dih10               -55.208                    
  cc11                  1.53641                  
  ccc11               111.297                    
  dih11                54.411                    
  cc12                  1.53719                  
  ccc12               111.702                    
  dih12               -54.413                    
  hc13                  1.0968                   
  hcc13               110.383                    
  dih13              -177.522                    
  hc14                  1.09911                  
  hcc14               109.23                     
  dih14                65.781                    
  hc15                  1.09713                  
  hcc15               109.887                    
  dih15              -178.005                    
  hc16                  1.10003                  
  hcc16               109.18                     
  dih16               -66.182                    
  hc17                  1.10034                  
  hcc17               107.034                    
  dih17               -61.187                    
  hc18                  1.09713                  
  hcc18               110.333                    
  dih18              -176.956                    
  hc19                  1.09911                  
  hcc19               109.185                    
  dih19                66.14                     
  hc20                  1.0968                   
  hcc20               109.6                      
  dih20              -177.635                    
  hc21                  1.09709                  
  hcc21               110.28                     
  dih21               177.139                    
  hc22                  1.09993                  
  hcc22               109.164                    
  dih22                65.634                    
  hc23                  1.09993                  
  hcc23               109.181                    
  dih23                66.418                    
  hc24                  1.08769                  
  hcc24               119.209                    
  dih24                 0.                       
  hc25                  1.08679                  
  hcc25               119.812                    
  dih25                 0.                       
  hc26                  1.08665                  
  hcc26               119.691                    
  dih26               179.999                    
  hc27                  1.08664                  
  hcc27               119.754                    
  dih27               179.999                    
  hc28                  1.08622                  
  hcc28               120.312                    
  dih28              -180.                       
 
                          Input orientation:                          
 ---------------------------------------------------------------------
 Center     Atomic      Atomic             Coordinates (Angstroms)
 Number     Number       Type             X           Y           Z
 ---------------------------------------------------------------------
      1          6           0        0.000000    0.000000    0.000000
      2          6           0        0.000000    0.000000    1.398189
      3          6           0        1.206059    0.000000    2.102162
      4          6           0        2.439409   -0.000021    1.429355
      5          6           0        2.421195   -0.000020    0.026765
      6          6           0        1.217311    0.000000   -0.684132
      7          6           0        3.758599    0.000002    2.184648
      8          6           0        3.948489    1.268841    3.048700
      9          6           0        5.302924    1.268607    3.775644
     10          6           0        5.493513    0.000230    4.621506
     11          6           0        5.302863   -1.268297    3.775897
     12          6           0        3.948407   -1.268630    3.048992
     13          1           0        3.853631    2.161092    2.417933
     14          1           0        3.139474    1.325034    3.790577
     15          1           0        5.388795    2.163085    4.405121
     16          1           0        4.761871    0.000327    5.442952
     17          1           0        4.560780   -0.000110    1.431490
     18          1           0        5.388734   -2.162660    4.405537
     19          1           0        3.139396   -1.324582    3.790890
     20          1           0        3.853490   -2.161029    2.418443
     21          1           0        6.486216    0.000256    5.088577
     22          1           0        6.111490    1.332381    3.032682
     23          1           0        6.111394   -1.332230    3.032903
     24          1           0        3.363605   -0.000003   -0.516305
     25          1           0        1.183318    0.000033    3.188713
     26          1           0       -0.940720    0.000000    1.942124
     27          1           0        1.232635    0.000017   -1.770664
     28          1           0       -0.937723    0.000000   -0.548224
 ---------------------------------------------------------------------
                    Distance matrix (angstroms):
                    1          2          3          4          5
     1  C    0.000000
     2  C    1.398189   0.000000
     3  C    2.423564   1.396480   0.000000
     4  C    2.827326   2.439608   1.404928   0.000000
     5  C    2.421343   2.782623   2.404959   1.402708   0.000000
     6  C    1.396382   2.412034   2.786318   2.441383   1.398110
     7  C    4.347385   3.839998   2.553873   1.520109   2.538722
     8  C    5.147339   4.463710   3.166515   2.551394   3.615899
     9  C    6.632184   5.948333   4.603717   3.913338   4.895700
    10  C    7.178928   6.369337   4.972862   4.417848   5.527276
    11  C    6.632220   5.948313   4.603669   3.913330   4.895766
    12  C    5.147396   4.463686   3.166446   2.551405   3.616020
    13  H    5.036585   4.534387   3.432152   2.765451   3.527033
    14  H    5.097105   4.163596   2.888694   2.796646   4.054377
    15  H    7.288562   6.539089   5.241931   4.715197   5.714514
    16  H    7.231953   6.247842   4.879004   4.637110   5.900326
    17  H    4.780155   4.560902   3.421104   2.121372   2.559507
    18  H    7.288642   6.539090   5.241889   4.715208   5.714625
    19  H    5.097173   4.163574   2.888618   2.796658   4.054493
    20  H    5.036695   4.534352   3.432050   2.765479   3.527258
    21  H    8.244066   7.462571   6.066196   5.455873   6.492021
    22  H    6.951454   6.465069   5.167626   4.222574   4.942581
    23  H    6.951437   6.465003   5.167536   4.222514   4.942592
    24  H    3.403000   3.870287   3.392842   2.154003   1.087686
    25  H    3.401196   2.146210   1.086789   2.161737   3.395623
    26  H    2.157962   1.086655   2.152736   3.418801   3.869247
    27  H    2.157462   3.400150   3.872918   3.420004   2.154862
    28  H    1.086220   2.160521   3.408863   3.913546   3.407777
                    6          7          8          9         10
     6  C    0.000000
     7  C    3.832499   0.000000
     8  C    4.796178   1.546802   0.000000
     9  C    6.179903   2.554519   1.537187   0.000000
    10  C    6.814375   2.991354   2.543657   1.536420   0.000000
    11  C    6.179982   2.554487   2.966516   2.536904   1.536412
    12  C    4.796303   1.546785   2.537471   2.966532   2.543651
    13  H    4.609046   2.175721   1.096803   2.177237   3.494892
    14  H    5.047123   2.172103   1.099111   2.164238   2.826137
    15  H    6.926811   3.502423   2.171182   1.097135   2.176174
    16  H    7.078493   3.409266   2.828986   2.163605   1.100033
    17  H    3.956595   1.100337   2.144879   2.766854   3.323582
    18  H    6.926948   3.502398   3.961125   3.489659   2.176169
    19  H    5.047253   2.172084   2.816260   3.377235   2.826113
    20  H    4.609280   2.175711   3.488590   3.962986   3.494882
    21  H    7.815723   3.984055   3.494348   2.175474   1.097094
    22  H    6.288317   2.833812   2.163993   1.099927   2.163536
    23  H    6.288341   2.833729   3.382896   2.823056   2.163536
    24  H    2.152845   2.729683   3.829010   4.877619   5.561799
    25  H    3.872995   2.764095   3.045595   4.350279   4.542100
    26  H    3.399165   4.705573   5.170960   6.629800   6.969823
    27  H    1.086640   4.693080   5.675566   6.995579   7.682117
    28  H    2.159315   5.433602   6.198620   7.697459   8.251479
                   11         12         13         14         15
    11  C    0.000000
    12  C    1.537187   0.000000
    13  H    3.962960   3.488583   0.000000
    14  H    3.377252   2.816276   1.758740   0.000000
    15  H    3.489654   3.961120   2.511105   2.477789   0.000000
    16  H    2.163596   2.828961   3.826820   2.667839   2.479446
    17  H    2.766809   2.144868   2.478693   3.056372   3.769284
    18  H    1.097135   2.171186   5.000194   4.195397   4.325745
    19  H    2.164251   1.099110   3.813800   2.649616   4.195342
    20  H    2.177231   1.096803   4.322121   3.813817   5.000201
    21  H    2.175472   3.494346   4.328055   3.826294   2.519777
    22  H    2.823078   3.382965   2.482459   3.067139   1.759530
    23  H    1.099932   2.163982   4.204638   4.058009   3.823920
    24  H    4.877734   3.829197   3.676984   4.511673   5.744630
    25  H    4.350184   3.045447   3.520632   2.438116   4.883081
    26  H    6.629753   5.170893   5.280390   4.671239   7.127976
    27  H    6.995693   5.675735   5.392978   6.026534   7.751958
    28  H    7.697501   6.198681   6.035352   6.099544   8.321021
                   16         17         18         19         20
    16  H    0.000000
    17  H    4.016499   0.000000
    18  H    2.479455   3.769229   0.000000
    19  H    2.667792   3.056359   2.477839   0.000000
    20  H    3.826783   2.478691   2.511079   1.758745   0.000000
    21  H    1.760383   4.132988   2.519765   3.826276   4.328050
    22  H    3.066797   2.596931   3.823927   4.058038   4.204732
    23  H    3.066799   2.596820   1.759538   3.067145   2.482458
    24  H    6.121102   2.286292   5.744803   4.511841   3.677331
    25  H    4.229378   3.807241   4.882973   2.437922   3.520415
    26  H    6.691438   5.525147   7.127937   4.671167   5.280281
    27  H    8.030677   4.618478   7.752148   6.026707   5.393294
    28  H    8.269194   5.844040   8.321112   6.099618   6.035468
                   21         22         23         24         25
    21  H    0.000000
    22  H    2.478242   0.000000
    23  H    2.478267   2.664612   0.000000
    24  H    6.416027   4.682032   4.682099   0.000000
    25  H    5.632958   5.107483   5.107361   4.298931   0.000000
    26  H    8.065950   7.259354   7.259266   4.956923   2.462828
    27  H    8.639983   6.974995   6.975058   2.472741   4.959623
    28  H    9.321395   8.018075   8.018064   4.301446   4.296920
                   26         27         28
    26  H    0.000000
    27  H    4.302124   0.000000
    28  H    2.490350   2.490946   0.000000
 Stoichiometry    C12H16
 Framework group  C1[X(C12H16)]
 Deg. of freedom    78
 Full point group                 C1      NOp   1
 Largest Abelian subgroup         C1      NOp   1
 Largest concise Abelian subgroup C1      NOp   1
                         Standard orientation:                         
 ---------------------------------------------------------------------
 Center     Atomic      Atomic             Coordinates (Angstroms)
 Number     Number       Type             X           Y           Z
 ---------------------------------------------------------------------
      1          6           0       -3.715070    0.238276   -0.000567
      2          6           0       -2.833237    1.323309   -0.002954
      3          6           0       -1.453306    1.108957   -0.002439
      4          6           0       -0.920527   -0.191028    0.000487
      5          6           0       -1.819270   -1.267989    0.002855
      6          6           0       -3.201880   -1.060382    0.002334
      7          6           0        0.579565   -0.436906    0.001053
      8          6           0        1.271915    0.111039   -1.268989
      9          6           0        2.781478   -0.179067   -1.268067
     10          6           0        3.462827    0.359962   -0.000866
     11          6           0        2.781519   -0.173192    1.268830
     12          6           0        1.271964    0.116958    1.268476
     13          1           0        0.800505   -0.320611   -2.160295
     14          1           0        1.111996    1.196873   -1.327599
     15          1           0        3.245150    0.253278   -2.163495
     16          1           0        3.413134    1.458869   -0.003407
     17          1           0        0.727066   -1.527309    0.003592
     18          1           0        3.245244    0.263256    2.162238
     19          1           0        1.112059    1.203055    1.322009
     20          1           0        0.800595   -0.310517    2.161814
     21          1           0        4.527774    0.096329   -0.000276
     22          1           0        2.940367   -1.265726   -1.329421
     23          1           0        2.940357   -1.259571    1.335183
     24          1           0       -1.430444   -2.283799    0.005107
     25          1           0       -0.785670    1.966493   -0.004360
     26          1           0       -3.220205    2.338725   -0.005223
     27          1           0       -3.875260   -1.913226    0.004194
     28          1           0       -4.788533    0.404255   -0.000966
 ---------------------------------------------------------------------
 Rotational constants (GHZ):      2.4383692      0.4759269      0.4755467
 Standard basis: CC-pVTZ (5D, 7F)
 There are   584 symmetry adapted basis functions of A   symmetry.
 Integral buffers will be    131072 words long.
 Raffenetti 1 integral format.
 Two-electron integral symmetry is turned on.
   584 basis functions,   896 primitive gaussians,   660 cartesian basis functions
    44 alpha electrons       44 beta electrons
       nuclear repulsion energy       675.5349692040 Hartrees.
 NAtoms=   28 NActive=   28 NUniq=   28 SFac= 7.50D-01 NAtFMM=   80 NAOKFM=F Big=F
 One-electron integrals computed using PRISM.
 NBasis=   584 RedAO= T  NBF=   584
 NBsUse=   584 1.00D-06 NBFU=   584
 Harris functional with IExCor=  205 diagonalized for initial guess.
 ExpMin= 1.03D-01 ExpMax= 8.24D+03 ExpMxC= 2.81D+02 IAcc=1 IRadAn=         1 AccDes= 0.00D+00
 HarFok:  IExCor=  205 AccDes= 0.00D+00 IRadAn=         1 IDoV= 1
 ScaDFX=  1.000000  1.000000  1.000000  1.000000
 FoFCou: FMM=F IPFlag=           0 FMFlag=      100000 FMFlg1=           0
         NFxFlg=           0 DoJE=T BraDBF=F KetDBF=T FulRan=T
         Omega=  0.000000  0.000000  1.000000  0.000000  0.000000 ICntrl=     500 IOpCl=  0
         NMat0=    1 NMatS0=    1 NMatT0=    0 NMatD0=    1 NMtDS0=    0 NMtDT0=    0
         I1Cent=           4 NGrid=           0.
 Petite list used in FoFCou.
 Initial guess orbital symmetries:
       Occupied  (A) (A) (A) (A) (A) (A) (A) (A) (A) (A) (A) (A)
                 (A) (A) (A) (A) (A) (A) (A) (A) (A) (A) (A) (A)
                 (A) (A) (A) (A) (A) (A) (A) (A) (A) (A) (A) (A)
                 (A) (A) (A) (A) (A) (A) (A) (A)
       Virtual   (A) (A) (A) (A) (A) (A) (A) (A) (A) (A) (A) (A)
                 (A) (A) (A) (A) (A) (A) (A) (A) (A) (A) (A) (A)
                 (A) (A) (A) (A) (A) (A) (A) (A) (A) (A) (A) (A)
                 (A) (A) (A) (A) (A) (A) (A) (A) (A) (A) (A) (A)
                 (A) (A) (A) (A) (A) (A) (A) (A) (A) (A) (A) (A)
                 (A) (A) (A) (A) (A) (A) (A) (A) (A) (A) (A) (A)
                 (A) (A) (A) (A) (A) (A) (A) (A) (A) (A) (A) (A)
                 (A) (A) (A) (A) (A) (A) (A) (A) (A) (A) (A) (A)
                 (A) (A) (A) (A) (A) (A) (A) (A) (A) (A) (A) (A)
                 (A) (A) (A) (A) (A) (A) (A) (A) (A) (A) (A) (A)
                 (A) (A) (A) (A) (A) (A) (A) (A) (A) (A) (A) (A)
                 (A) (A) (A) (A) (A) (A) (A) (A) (A) (A) (A) (A)
                 (A) (A) (A) (A) (A) (A) (A) (A) (A) (A) (A) (A)
                 (A) (A) (A) (A) (A) (A) (A) (A) (A) (A) (A) (A)
                 (A) (A) (A) (A) (A) (A) (A) (A) (A) (A) (A) (A)
                 (A) (A) (A) (A) (A) (A) (A) (A) (A) (A) (A) (A)
                 (A) (A) (A) (A) (A) (A) (A) (A) (A) (A) (A) (A)
                 (A) (A) (A) (A) (A) (A) (A) (A) (A) (A) (A) (A)
                 (A) (A) (A) (A) (A) (A) (A) (A) (A) (A) (A) (A)
                 (A) (A) (A) (A) (A) (A) (A) (A) (A) (A) (A) (A)
                 (A) (A) (A) (A) (A) (A) (A) (A) (A) (A) (A) (A)
                 (A) (A) (A) (A) (A) (A) (A) (A) (A) (A) (A) (A)
                 (A) (A) (A) (A) (A) (A) (A) (A) (A) (A) (A) (A)
                 (A) (A) (A) (A) (A) (A) (A) (A) (A) (A) (A) (A)
                 (A) (A) (A) (A) (A) (A) (A) (A) (A) (A) (A) (A)
                 (A) (A) (A) (A) (A) (A) (A) (A) (A) (A) (A) (A)
                 (A) (A) (A) (A) (A) (A) (A) (A) (A) (A) (A) (A)
                 (A) (A) (A) (A) (A) (A) (A) (A) (A) (A) (A) (A)
                 (A) (A) (A) (A) (A) (A) (A) (A) (A) (A) (A) (A)
                 (A) (A) (A) (A) (A) (A) (A) (A) (A) (A) (A) (A)
                 (A) (A) (A) (A) (A) (A) (A) (A) (A) (A) (A) (A)
                 (A) (A) (A) (A) (A) (A) (A) (A) (A) (A) (A) (A)
                 (A) (A) (A) (A) (A) (A) (A) (A) (A) (A) (A) (A)
                 (A) (A) (A) (A) (A) (A) (A) (A) (A) (A) (A) (A)
                 (A) (A) (A) (A) (A) (A) (A) (A) (A) (A) (A) (A)
                 (A) (A) (A) (A) (A) (A) (A) (A) (A) (A) (A) (A)
                 (A) (A) (A) (A) (A) (A) (A) (A) (A) (A) (A) (A)
                 (A) (A) (A) (A) (A) (A) (A) (A) (A) (A) (A) (A)
                 (A) (A) (A) (A) (A) (A) (A) (A) (A) (A) (A) (A)
                 (A) (A) (A) (A) (A) (A) (A) (A) (A) (A) (A) (A)
                 (A) (A) (A) (A) (A) (A) (A) (A) (A) (A) (A) (A)
                 (A) (A) (A) (A) (A) (A) (A) (A) (A) (A) (A) (A)
                 (A) (A) (A) (A) (A) (A) (A) (A) (A) (A) (A) (A)
                 (A) (A) (A) (A) (A) (A) (A) (A) (A) (A) (A) (A)
                 (A) (A) (A) (A) (A) (A) (A) (A) (A) (A) (A) (A)
 The electronic state of the initial guess is 1-A.
 Requested convergence on RMS density matrix=1.00D-08 within 128 cycles.
 Requested convergence on MAX density matrix=1.00D-06.
 Requested convergence on             energy=1.00D-06.
 No special actions if energy rises.
 Integral accuracy reduced to 1.0D-05 until final iterations.
 Initial convergence to 1.0D-05 achieved.  Increase integral accuracy.
 SCF Done:  E(RHF) =  -463.899415144     A.U. after   13 cycles
             Convg  =    0.9333D-08             -V/T =  2.0018
 ExpMin= 1.03D-01 ExpMax= 8.24D+03 ExpMxC= 2.81D+02 IAcc=1 IRadAn=         1 AccDes= 0.00D+00
 HarFok:  IExCor=  205 AccDes= 0.00D+00 IRadAn=         1 IDoV=-2
 ScaDFX=  1.000000  1.000000  1.000000  1.000000
 Range of M.O.s used for correlation:    13   584
 NBasis=   584 NAE=    44 NBE=    44 NFC=    12 NFV=     0
 NROrb=    572 NOA=    32 NOB=    32 NVA=   540 NVB=   540

 **** Warning!!: The largest alpha MO coefficient is  0.31504558D+02

 Fully direct method using O(OVN) memory.
 JobTyp=1 Pass  1:  I=   1 to  32 NPSUse=  8 ParTrn=T ParDer=T DoDerP=F.
 Spin components of T(2) and E(2):
     alpha-alpha T2 =       0.8712096865D-01 E2=     -0.2406149623D+00
     alpha-beta  T2 =       0.4832962711D+00 E2=     -0.1501159841D+01
     beta-beta   T2 =       0.8712096865D-01 E2=     -0.2406149623D+00
 ANorm=    0.1287454158D+01
 E2 =    -0.1982389766D+01 EUMP2 =    -0.46588180490995D+03

 **********************************************************************

            Population analysis using the SCF density.

 **********************************************************************

 Orbital symmetries:
       Occupied  (A) (A) (A) (A) (A) (A) (A) (A) (A) (A) (A) (A)
                 (A) (A) (A) (A) (A) (A) (A) (A) (A) (A) (A) (A)
                 (A) (A) (A) (A) (A) (A) (A) (A) (A) (A) (A) (A)
                 (A) (A) (A) (A) (A) (A) (A) (A)
       Virtual   (A) (A) (A) (A) (A) (A) (A) (A) (A) (A) (A) (A)
                 (A) (A) (A) (A) (A) (A) (A) (A) (A) (A) (A) (A)
                 (A) (A) (A) (A) (A) (A) (A) (A) (A) (A) (A) (A)
                 (A) (A) (A) (A) (A) (A) (A) (A) (A) (A) (A) (A)
                 (A) (A) (A) (A) (A) (A) (A) (A) (A) (A) (A) (A)
                 (A) (A) (A) (A) (A) (A) (A) (A) (A) (A) (A) (A)
                 (A) (A) (A) (A) (A) (A) (A) (A) (A) (A) (A) (A)
                 (A) (A) (A) (A) (A) (A) (A) (A) (A) (A) (A) (A)
                 (A) (A) (A) (A) (A) (A) (A) (A) (A) (A) (A) (A)
                 (A) (A) (A) (A) (A) (A) (A) (A) (A) (A) (A) (A)
                 (A) (A) (A) (A) (A) (A) (A) (A) (A) (A) (A) (A)
                 (A) (A) (A) (A) (A) (A) (A) (A) (A) (A) (A) (A)
                 (A) (A) (A) (A) (A) (A) (A) (A) (A) (A) (A) (A)
                 (A) (A) (A) (A) (A) (A) (A) (A) (A) (A) (A) (A)
                 (A) (A) (A) (A) (A) (A) (A) (A) (A) (A) (A) (A)
                 (A) (A) (A) (A) (A) (A) (A) (A) (A) (A) (A) (A)
                 (A) (A) (A) (A) (A) (A) (A) (A) (A) (A) (A) (A)
                 (A) (A) (A) (A) (A) (A) (A) (A) (A) (A) (A) (A)
                 (A) (A) (A) (A) (A) (A) (A) (A) (A) (A) (A) (A)
                 (A) (A) (A) (A) (A) (A) (A) (A) (A) (A) (A) (A)
                 (A) (A) (A) (A) (A) (A) (A) (A) (A) (A) (A) (A)
                 (A) (A) (A) (A) (A) (A) (A) (A) (A) (A) (A) (A)
                 (A) (A) (A) (A) (A) (A) (A) (A) (A) (A) (A) (A)
                 (A) (A) (A) (A) (A) (A) (A) (A) (A) (A) (A) (A)
                 (A) (A) (A) (A) (A) (A) (A) (A) (A) (A) (A) (A)
                 (A) (A) (A) (A) (A) (A) (A) (A) (A) (A) (A) (A)
                 (A) (A) (A) (A) (A) (A) (A) (A) (A) (A) (A) (A)
                 (A) (A) (A) (A) (A) (A) (A) (A) (A) (A) (A) (A)
                 (A) (A) (A) (A) (A) (A) (A) (A) (A) (A) (A) (A)
                 (A) (A) (A) (A) (A) (A) (A) (A) (A) (A) (A) (A)
                 (A) (A) (A) (A) (A) (A) (A) (A) (A) (A) (A) (A)
                 (A) (A) (A) (A) (A) (A) (A) (A) (A) (A) (A) (A)
                 (A) (A) (A) (A) (A) (A) (A) (A) (A) (A) (A) (A)
                 (A) (A) (A) (A) (A) (A) (A) (A) (A) (A) (A) (A)
                 (A) (A) (A) (A) (A) (A) (A) (A) (A) (A) (A) (A)
                 (A) (A) (A) (A) (A) (A) (A) (A) (A) (A) (A) (A)
                 (A) (A) (A) (A) (A) (A) (A) (A) (A) (A) (A) (A)
                 (A) (A) (A) (A) (A) (A) (A) (A) (A) (A) (A) (A)
                 (A) (A) (A) (A) (A) (A) (A) (A) (A) (A) (A) (A)
                 (A) (A) (A) (A) (A) (A) (A) (A) (A) (A) (A) (A)
                 (A) (A) (A) (A) (A) (A) (A) (A) (A) (A) (A) (A)
                 (A) (A) (A) (A) (A) (A) (A) (A) (A) (A) (A) (A)
                 (A) (A) (A) (A) (A) (A) (A) (A) (A) (A) (A) (A)
                 (A) (A) (A) (A) (A) (A) (A) (A) (A) (A) (A) (A)
                 (A) (A) (A) (A) (A) (A) (A) (A) (A) (A) (A) (A)
 The electronic state is 1-A.
 Alpha  occ. eigenvalues --  -11.23626 -11.23183 -11.23142 -11.23036 -11.22811
 Alpha  occ. eigenvalues --  -11.22744 -11.22728 -11.21821 -11.21820 -11.21766
 Alpha  occ. eigenvalues --  -11.21741 -11.21686  -1.15059  -1.11092  -1.03795
 Alpha  occ. eigenvalues --   -1.00640  -1.00002  -0.97025  -0.84860  -0.82987
 Alpha  occ. eigenvalues --   -0.82074  -0.78627  -0.74844  -0.69102  -0.64506
 Alpha  occ. eigenvalues --   -0.63263  -0.61690  -0.59939  -0.59697  -0.58393
 Alpha  occ. eigenvalues --   -0.57350  -0.54125  -0.53250  -0.52317  -0.49467
 Alpha  occ. eigenvalues --   -0.49259  -0.48437  -0.48247  -0.47171  -0.45023
 Alpha  occ. eigenvalues --   -0.42916  -0.42757  -0.33081  -0.32017
 Alpha virt. eigenvalues --    0.12824   0.13432   0.13934   0.14728   0.15132
 Alpha virt. eigenvalues --    0.16706   0.17464   0.17941   0.19451   0.20675
 Alpha virt. eigenvalues --    0.21010   0.21722   0.22074   0.22751   0.23748
 Alpha virt. eigenvalues --    0.24941   0.26167   0.29168   0.29641   0.32086
 Alpha virt. eigenvalues --    0.32270   0.35792   0.37052   0.37197   0.37505
 Alpha virt. eigenvalues --    0.37757   0.38972   0.39927   0.40847   0.41032
 Alpha virt. eigenvalues --    0.41879   0.43626   0.43798   0.44373   0.45653
 Alpha virt. eigenvalues --    0.46425   0.47374   0.48251   0.49244   0.49801
 Alpha virt. eigenvalues --    0.51198   0.52678   0.53977   0.55062   0.55572
 Alpha virt. eigenvalues --    0.55590   0.56831   0.57678   0.58532   0.58952
 Alpha virt. eigenvalues --    0.59127   0.59997   0.60184   0.60871   0.61559
 Alpha virt. eigenvalues --    0.62096   0.62428   0.62734   0.63082   0.63650
 Alpha virt. eigenvalues --    0.64077   0.64875   0.65809   0.66133   0.67779
 Alpha virt. eigenvalues --    0.67914   0.68224   0.69400   0.69564   0.70309
 Alpha virt. eigenvalues --    0.70416   0.71976   0.72461   0.72515   0.73354
 Alpha virt. eigenvalues --    0.74674   0.76926   0.77767   0.78618   0.80945
 Alpha virt. eigenvalues --    0.81649   0.82509   0.82597   0.86371   0.88630
 Alpha virt. eigenvalues --    0.89526   0.90014   0.91362   0.92129   0.93061
 Alpha virt. eigenvalues --    0.93118   0.95061   0.96367   0.96467   0.97916
 Alpha virt. eigenvalues --    0.98959   0.99061   1.02011   1.02499   1.02923
 Alpha virt. eigenvalues --    1.03881   1.04196   1.05158   1.06585   1.08206
 Alpha virt. eigenvalues --    1.09483   1.10018   1.12153   1.13070   1.13928
 Alpha virt. eigenvalues --    1.13959   1.14834   1.16883   1.17136   1.19382
 Alpha virt. eigenvalues --    1.20378   1.22383   1.23422   1.23987   1.24989
 Alpha virt. eigenvalues --    1.25214   1.27256   1.27395   1.28337   1.28548
 Alpha virt. eigenvalues --    1.29410   1.31232   1.32026   1.32695   1.33267
 Alpha virt. eigenvalues --    1.34328   1.35378   1.35688   1.37209   1.37521
 Alpha virt. eigenvalues --    1.38886   1.39547   1.40432   1.40958   1.41862
 Alpha virt. eigenvalues --    1.43420   1.44350   1.44647   1.45798   1.46127
 Alpha virt. eigenvalues --    1.48793   1.49092   1.49803   1.50928   1.51255
 Alpha virt. eigenvalues --    1.51436   1.52833   1.53723   1.54057   1.55031
 Alpha virt. eigenvalues --    1.55529   1.55984   1.56561   1.57329   1.58868
 Alpha virt. eigenvalues --    1.59537   1.61238   1.61722   1.62310   1.62884
 Alpha virt. eigenvalues --    1.63609   1.65173   1.65258   1.67165   1.67185
 Alpha virt. eigenvalues --    1.68163   1.68580   1.69578   1.72233   1.72463
 Alpha virt. eigenvalues --    1.72554   1.74190   1.75540   1.76100   1.76675
 Alpha virt. eigenvalues --    1.76753   1.80619   1.81269   1.83206   1.86424
 Alpha virt. eigenvalues --    1.86921   1.88776   1.89296   1.90559   1.93369
 Alpha virt. eigenvalues --    1.93641   1.98193   1.99701   2.01965   2.07784
 Alpha virt. eigenvalues --    2.08753   2.10881   2.12294   2.14653   2.20997
 Alpha virt. eigenvalues --    2.25093   2.30207   2.33767   2.36242   2.41871
 Alpha virt. eigenvalues --    2.45989   2.46010   2.47096   2.49331   2.54120
 Alpha virt. eigenvalues --    2.56979   2.59723   2.59780   2.63485   2.63640
 Alpha virt. eigenvalues --    2.66641   2.69786   2.69953   2.71111   2.71420
 Alpha virt. eigenvalues --    2.73116   2.76941   2.77560   2.78954   2.80073
 Alpha virt. eigenvalues --    2.80077   2.80604   2.83475   2.83573   2.84606
 Alpha virt. eigenvalues --    2.85223   2.85891   2.86127   2.87026   2.89204
 Alpha virt. eigenvalues --    2.90047   2.90798   2.92472   2.93133   2.93430
 Alpha virt. eigenvalues --    2.93520   2.96614   2.96950   2.97207   2.98045
 Alpha virt. eigenvalues --    3.00083   3.00512   3.01056   3.02121   3.02419
 Alpha virt. eigenvalues --    3.02525   3.03440   3.03627   3.05127   3.06056
 Alpha virt. eigenvalues --    3.06141   3.07900   3.09124   3.09673   3.11095
 Alpha virt. eigenvalues --    3.12751   3.13837   3.14887   3.16239   3.19189
 Alpha virt. eigenvalues --    3.20480   3.21341   3.21777   3.23145   3.24489
 Alpha virt. eigenvalues --    3.25520   3.25713   3.26512   3.27375   3.28461
 Alpha virt. eigenvalues --    3.28976   3.29090   3.31387   3.32262   3.33300
 Alpha virt. eigenvalues --    3.34088   3.35397   3.35646   3.36218   3.37652
 Alpha virt. eigenvalues --    3.37781   3.39566   3.40165   3.40186   3.41453
 Alpha virt. eigenvalues --    3.41951   3.42152   3.43254   3.44443   3.44479
 Alpha virt. eigenvalues --    3.44878   3.46276   3.46964   3.47974   3.48595
 Alpha virt. eigenvalues --    3.48714   3.49141   3.49745   3.50545   3.51809
 Alpha virt. eigenvalues --    3.52882   3.52957   3.53678   3.54227   3.54864
 Alpha virt. eigenvalues --    3.56156   3.58558   3.58945   3.59371   3.60679
 Alpha virt. eigenvalues --    3.60985   3.61600   3.61892   3.62924   3.64534
 Alpha virt. eigenvalues --    3.65017   3.66552   3.66952   3.67344   3.68878
 Alpha virt. eigenvalues --    3.69659   3.70153   3.70967   3.72739   3.73063
 Alpha virt. eigenvalues --    3.73148   3.75273   3.77118   3.78314   3.79122
 Alpha virt. eigenvalues --    3.80104   3.81697   3.81960   3.82987   3.84509
 Alpha virt. eigenvalues --    3.84757   3.85199   3.87349   3.91774   3.91932
 Alpha virt. eigenvalues --    3.92299   3.93637   3.95585   3.95787   3.97544
 Alpha virt. eigenvalues --    3.97682   3.98725   4.00453   4.02309   4.02690
 Alpha virt. eigenvalues --    4.03271   4.03524   4.04152   4.04809   4.06650
 Alpha virt. eigenvalues --    4.07928   4.08946   4.09253   4.10069   4.10645
 Alpha virt. eigenvalues --    4.11168   4.11421   4.12476   4.13241   4.13848
 Alpha virt. eigenvalues --    4.14582   4.15457   4.15775   4.17425   4.18655
 Alpha virt. eigenvalues --    4.19394   4.20598   4.22426   4.22873   4.22882
 Alpha virt. eigenvalues --    4.24013   4.26651   4.27209   4.29333   4.29545
 Alpha virt. eigenvalues --    4.30900   4.32026   4.32910   4.33829   4.33967
 Alpha virt. eigenvalues --    4.34779   4.35930   4.36237   4.36613   4.37136
 Alpha virt. eigenvalues --    4.37883   4.38452   4.39359   4.41830   4.42753
 Alpha virt. eigenvalues --    4.43010   4.44294   4.46360   4.46482   4.47809
 Alpha virt. eigenvalues --    4.49530   4.50224   4.51339   4.52142   4.52204
 Alpha virt. eigenvalues --    4.53099   4.54125   4.55386   4.55632   4.56410
 Alpha virt. eigenvalues --    4.57113   4.58354   4.59473   4.59850   4.61459
 Alpha virt. eigenvalues --    4.62086   4.62572   4.63999   4.64833   4.66170
 Alpha virt. eigenvalues --    4.66369   4.67560   4.68019   4.68508   4.68798
 Alpha virt. eigenvalues --    4.69404   4.71202   4.72132   4.72372   4.74414
 Alpha virt. eigenvalues --    4.75147   4.75506   4.80941   4.81612   4.83077
 Alpha virt. eigenvalues --    4.85867   4.87251   4.90008   4.92065   4.93641
 Alpha virt. eigenvalues --    4.94341   4.96084   4.96710   5.00860   5.01400
 Alpha virt. eigenvalues --    5.01897   5.02672   5.03956   5.05372   5.07566
 Alpha virt. eigenvalues --    5.10496   5.10700   5.11708   5.12965   5.13369
 Alpha virt. eigenvalues --    5.14456   5.16922   5.18475   5.19141   5.20492
 Alpha virt. eigenvalues --    5.21960   5.25602   5.25959   5.26025   5.28151
 Alpha virt. eigenvalues --    5.32690   5.33234   5.33653   5.34442   5.35810
 Alpha virt. eigenvalues --    5.36321   5.37326   5.37634   5.39108   5.40832
 Alpha virt. eigenvalues --    5.41458   5.43139   5.43317   5.44831   5.45165
 Alpha virt. eigenvalues --    5.45785   5.49423   5.53697   5.54804   5.55425
 Alpha virt. eigenvalues --    5.62221   5.64072   5.64144   5.66138   5.72144
 Alpha virt. eigenvalues --    5.74062   5.75173   5.75613   5.77450   5.78061
 Alpha virt. eigenvalues --    5.81974   5.83229   5.83802   5.84294   5.88230
 Alpha virt. eigenvalues --    5.89818   5.90058   5.94001   5.94863   5.97490
 Alpha virt. eigenvalues --    6.00276   6.05409   6.08228   6.12415   6.12582
 Alpha virt. eigenvalues --    6.14923   6.30531   6.33429   6.38365   6.38493
 Alpha virt. eigenvalues --    6.40057   6.43711   6.47080   6.48452   6.49155
 Alpha virt. eigenvalues --    6.49363   6.79142   7.19766   9.44761  12.55675
 Alpha virt. eigenvalues --   12.86273  13.07101  13.24149  13.28460  13.41347
 Alpha virt. eigenvalues --   13.60649  13.61154  13.83486  14.01004  16.09825
          Condensed to atoms (all electrons):
              1          2          3          4          5          6
     1  C    4.930097   0.513970  -0.066228  -0.021229  -0.060504   0.518405
     2  C    0.513970   4.900833   0.537345  -0.073386  -0.021859  -0.074386
     3  C   -0.066228   0.537345   4.941993   0.505025  -0.046468  -0.018359
     4  C   -0.021229  -0.073386   0.505025   4.943484   0.490475  -0.074457
     5  C   -0.060504  -0.021859  -0.046468   0.490475   4.939355   0.525124
     6  C    0.518405  -0.074386  -0.018359  -0.074457   0.525124   4.901856
     7  C   -0.001123   0.002520  -0.041465   0.389196  -0.060777   0.005758
     8  C    0.000032   0.000135  -0.008684  -0.050017   0.003669  -0.000298
     9  C   -0.000001   0.000013   0.001069   0.001843  -0.000283   0.000003
    10  C    0.000000   0.000004  -0.000102  -0.000471   0.000015   0.000000
    11  C   -0.000001   0.000013   0.001069   0.001843  -0.000283   0.000003
    12  C    0.000032   0.000135  -0.008685  -0.050017   0.003673  -0.000298
    13  H   -0.000056  -0.000174   0.000786  -0.000792   0.002151  -0.000038
    14  H   -0.000025   0.000273  -0.000799   0.001210   0.000128  -0.000073
    15  H    0.000000   0.000000  -0.000023  -0.000222   0.000016   0.000000
    16  H    0.000000  -0.000003  -0.000104   0.000364   0.000006   0.000000
    17  H   -0.000055  -0.000101   0.006142  -0.030458  -0.006983  -0.000117
    18  H    0.000000  -0.000001  -0.000023  -0.000222   0.000016   0.000000
    19  H   -0.000025   0.000273  -0.000800   0.001208   0.000127  -0.000073
    20  H   -0.000056  -0.000173   0.000787  -0.000793   0.002151  -0.000038
    21  H    0.000000   0.000000   0.000003   0.000021  -0.000003   0.000000
    22  H    0.000000  -0.000002  -0.000093   0.000654  -0.000001  -0.000001
    23  H    0.000000  -0.000002  -0.000093   0.000654  -0.000001  -0.000001
    24  H    0.005541  -0.000930   0.005277  -0.047403   0.432966  -0.045476
    25  H    0.005486  -0.042737   0.430166  -0.043025   0.005418  -0.001023
    26  H   -0.042376   0.435364  -0.044488   0.005945  -0.000511   0.004460
    27  H   -0.042533   0.004935  -0.000851   0.005757  -0.044261   0.434831
    28  H    0.434446  -0.041743   0.004415   0.000070   0.004052  -0.041097
              7          8          9         10         11         12
     1  C   -0.001123   0.000032  -0.000001   0.000000  -0.000001   0.000032
     2  C    0.002520   0.000135   0.000013   0.000004   0.000013   0.000135
     3  C   -0.041465  -0.008684   0.001069  -0.000102   0.001069  -0.008685
     4  C    0.389196  -0.050017   0.001843  -0.000471   0.001843  -0.050017
     5  C   -0.060777   0.003669  -0.000283   0.000015  -0.000283   0.003673
     6  C    0.005758  -0.000298   0.000003   0.000000   0.000003  -0.000298
     7  C    4.912232   0.350010  -0.032706  -0.004595  -0.032708   0.350009
     8  C    0.350010   4.888286   0.342453  -0.041045   0.000716  -0.049406
     9  C   -0.032706   0.342453   4.882285   0.345079  -0.040680   0.000714
    10  C   -0.004595  -0.041045   0.345079   4.870846   0.345078  -0.041045
    11  C   -0.032708   0.000716  -0.040680   0.345078   4.882283   0.342455
    12  C    0.350009  -0.049406   0.000714  -0.041045   0.342455   4.888279
    13  H   -0.037249   0.430314  -0.035594   0.006034  -0.001147   0.006510
    14  H   -0.042094   0.421047  -0.038976  -0.002961  -0.000288  -0.000695
    15  H    0.006646  -0.036485   0.434302  -0.035613   0.006412  -0.001151
    16  H   -0.001492  -0.000120  -0.040502   0.421252  -0.040503  -0.000120
    17  H    0.422271  -0.034728  -0.004519   0.000319  -0.004521  -0.034727
    18  H    0.006646  -0.001151   0.006412  -0.035613   0.434302  -0.036485
    19  H   -0.042095  -0.000696  -0.000287  -0.002961  -0.038975   0.421053
    20  H   -0.037252   0.006510  -0.001147   0.006034  -0.035594   0.430316
    21  H   -0.000715   0.006096  -0.036891   0.437854  -0.036891   0.006096
    22  H   -0.004561  -0.038459   0.422692  -0.040037  -0.001880   0.000721
    23  H   -0.004563   0.000721  -0.001880  -0.040038   0.422692  -0.038460
    24  H   -0.002388   0.000222  -0.000049   0.000004  -0.000049   0.000222
    25  H   -0.001857  -0.000673  -0.000047   0.000025  -0.000047  -0.000674
    26  H   -0.000110   0.000024   0.000000   0.000000   0.000000   0.000024
    27  H   -0.000160   0.000015   0.000000   0.000000   0.000000   0.000015
    28  H    0.000059   0.000000   0.000000   0.000000   0.000000   0.000000
             13         14         15         16         17         18
     1  C   -0.000056  -0.000025   0.000000   0.000000  -0.000055   0.000000
     2  C   -0.000174   0.000273   0.000000  -0.000003  -0.000101  -0.000001
     3  C    0.000786  -0.000799  -0.000023  -0.000104   0.006142  -0.000023
     4  C   -0.000792   0.001210  -0.000222   0.000364  -0.030458  -0.000222
     5  C    0.002151   0.000128   0.000016   0.000006  -0.006983   0.000016
     6  C   -0.000038  -0.000073   0.000000   0.000000  -0.000117   0.000000
     7  C   -0.037249  -0.042094   0.006646  -0.001492   0.422271   0.006646
     8  C    0.430314   0.421047  -0.036485  -0.000120  -0.034728  -0.001151
     9  C   -0.035594  -0.038976   0.434302  -0.040502  -0.004519   0.006412
    10  C    0.006034  -0.002961  -0.035613   0.421252   0.000319  -0.035613
    11  C   -0.001147  -0.000288   0.006412  -0.040503  -0.004521   0.434302
    12  C    0.006510  -0.000695  -0.001151  -0.000120  -0.034727  -0.036485
    13  H    0.558459  -0.027799  -0.005160  -0.000070  -0.003489   0.000104
    14  H   -0.027799   0.586978  -0.005002   0.001582   0.006234  -0.000085
    15  H   -0.005160  -0.005002   0.568251  -0.005019  -0.000067  -0.000299
    16  H   -0.000070   0.001582  -0.005019   0.600987   0.000047  -0.005018
    17  H   -0.003489   0.006234  -0.000067   0.000047   0.573538  -0.000067
    18  H    0.000104  -0.000085  -0.000299  -0.005018  -0.000067   0.568249
    19  H   -0.000114   0.001570  -0.000085   0.001582   0.006234  -0.005000
    20  H   -0.000330  -0.000114   0.000104  -0.000070  -0.003489  -0.005161
    21  H   -0.000269  -0.000102  -0.004694  -0.031795  -0.000156  -0.004695
    22  H   -0.004307   0.006776  -0.031129   0.007006   0.001931  -0.000135
    23  H   -0.000088   0.000053  -0.000135   0.007006   0.001931  -0.031129
    24  H    0.000187   0.000001   0.000002   0.000001   0.003440   0.000002
    25  H    0.000306   0.000057   0.000020   0.000062   0.000078   0.000020
    26  H    0.000002   0.000018   0.000000   0.000000   0.000017   0.000000
    27  H    0.000004   0.000000   0.000000   0.000000  -0.000052   0.000000
    28  H   -0.000001   0.000001   0.000000   0.000000   0.000000   0.000000
             19         20         21         22         23         24
     1  C   -0.000025  -0.000056   0.000000   0.000000   0.000000   0.005541
     2  C    0.000273  -0.000173   0.000000  -0.000002  -0.000002  -0.000930
     3  C   -0.000800   0.000787   0.000003  -0.000093  -0.000093   0.005277
     4  C    0.001208  -0.000793   0.000021   0.000654   0.000654  -0.047403
     5  C    0.000127   0.002151  -0.000003  -0.000001  -0.000001   0.432966
     6  C   -0.000073  -0.000038   0.000000  -0.000001  -0.000001  -0.045476
     7  C   -0.042095  -0.037252  -0.000715  -0.004561  -0.004563  -0.002388
     8  C   -0.000696   0.006510   0.006096  -0.038459   0.000721   0.000222
     9  C   -0.000287  -0.001147  -0.036891   0.422692  -0.001880  -0.000049
    10  C   -0.002961   0.006034   0.437854  -0.040037  -0.040038   0.000004
    11  C   -0.038975  -0.035594  -0.036891  -0.001880   0.422692  -0.000049
    12  C    0.421053   0.430316   0.006096   0.000721  -0.038460   0.000222
    13  H   -0.000114  -0.000330  -0.000269  -0.004307  -0.000088   0.000187
    14  H    0.001570  -0.000114  -0.000102   0.006776   0.000053   0.000001
    15  H   -0.000085   0.000104  -0.004694  -0.031129  -0.000135   0.000002
    16  H    0.001582  -0.000070  -0.031795   0.007006   0.007006   0.000001
    17  H    0.006234  -0.003489  -0.000156   0.001931   0.001931   0.003440
    18  H   -0.005000  -0.005161  -0.004695  -0.000135  -0.031129   0.000002
    19  H    0.586977  -0.027800  -0.000102   0.000053   0.006776   0.000001
    20  H   -0.027800   0.558459  -0.000269  -0.000088  -0.004307   0.000187
    21  H   -0.000102  -0.000269   0.567050  -0.005086  -0.005085  -0.000001
    22  H    0.000053  -0.000088  -0.005086   0.596214   0.001600   0.000011
    23  H    0.006776  -0.004307  -0.005085   0.001600   0.596219   0.000011
    24  H    0.000001   0.000187  -0.000001   0.000011   0.000011   0.510815
    25  H    0.000056   0.000306  -0.000006  -0.000004  -0.000004  -0.000211
    26  H    0.000018   0.000002   0.000000   0.000000   0.000000   0.000058
    27  H    0.000000   0.000004   0.000000   0.000000   0.000000  -0.005364
    28  H    0.000001  -0.000001   0.000000   0.000000   0.000000  -0.000246
             25         26         27         28
     1  C    0.005486  -0.042376  -0.042533   0.434446
     2  C   -0.042737   0.435364   0.004935  -0.041743
     3  C    0.430166  -0.044488  -0.000851   0.004415
     4  C   -0.043025   0.005945   0.005757   0.000070
     5  C    0.005418  -0.000511  -0.044261   0.004052
     6  C   -0.001023   0.004460   0.434831  -0.041097
     7  C   -0.001857  -0.000110  -0.000160   0.000059
     8  C   -0.000673   0.000024   0.000015   0.000000
     9  C   -0.000047   0.000000   0.000000   0.000000
    10  C    0.000025   0.000000   0.000000   0.000000
    11  C   -0.000047   0.000000   0.000000   0.000000
    12  C   -0.000674   0.000024   0.000015   0.000000
    13  H    0.000306   0.000002   0.000004  -0.000001
    14  H    0.000057   0.000018   0.000000   0.000001
    15  H    0.000020   0.000000   0.000000   0.000000
    16  H    0.000062   0.000000   0.000000   0.000000
    17  H    0.000078   0.000017  -0.000052   0.000000
    18  H    0.000020   0.000000   0.000000   0.000000
    19  H    0.000056   0.000018   0.000000   0.000001
    20  H    0.000306   0.000002   0.000004  -0.000001
    21  H   -0.000006   0.000000   0.000000   0.000000
    22  H   -0.000004   0.000000   0.000000   0.000000
    23  H   -0.000004   0.000000   0.000000   0.000000
    24  H   -0.000211   0.000058  -0.005364  -0.000246
    25  H    0.507401  -0.005151   0.000058  -0.000243
    26  H   -0.005151   0.503484  -0.000233  -0.004867
    27  H    0.000058  -0.000233   0.503163  -0.004883
    28  H   -0.000243  -0.004867  -0.004883   0.500555
 Mulliken atomic charges:
              1
     1  C   -0.173799
     2  C   -0.140320
     3  C   -0.196815
     4  C    0.044742
     5  C   -0.167409
     6  C   -0.134706
     7  C   -0.097440
     8  C   -0.188488
     9  C   -0.203305
    10  C   -0.188064
    11  C   -0.203300
    12  C   -0.188492
    13  H    0.111818
    14  H    0.093086
    15  H    0.109331
    16  H    0.084921
    17  H    0.101347
    18  H    0.109332
    19  H    0.093085
    20  H    0.111819
    21  H    0.109640
    22  H    0.088124
    23  H    0.088119
    24  H    0.143169
    25  H    0.146243
    26  H    0.148320
    27  H    0.149558
    28  H    0.149482
 Sum of Mulliken atomic charges =   0.00000
 Mulliken charges with hydrogens summed into heavy atoms:
              1
     1  C   -0.024317
     2  C    0.008001
     3  C   -0.050572
     4  C    0.044742
     5  C   -0.024239
     6  C    0.014852
     7  C    0.003907
     8  C    0.016416
     9  C   -0.005850
    10  C    0.006498
    11  C   -0.005849
    12  C    0.016412
 Sum of Mulliken charges with hydrogens summed into heavy atoms =   0.00000
 Electronic spatial extent (au):  <R**2>=           2567.9454
 Charge=              0.0000 electrons
 Dipole moment (field-independent basis, Debye):
    X=              0.4768    Y=             -0.0261    Z=              0.0000  Tot=              0.4775
 Quadrupole moment (field-independent basis, Debye-Ang):
   XX=            -71.9601   YY=            -70.4103   ZZ=            -79.0231
   XY=             -0.0013   XZ=              0.0003   YZ=             -0.0192
 Traceless Quadrupole moment (field-independent basis, Debye-Ang):
   XX=              1.8377   YY=              3.3875   ZZ=             -5.2253
   XY=             -0.0013   XZ=              0.0003   YZ=             -0.0192
 Octapole moment (field-independent basis, Debye-Ang**2):
  XXX=            -20.8581  YYY=              0.3277  ZZZ=              0.0010  XYY=             -6.6988
  XXY=             -0.3302  XXZ=             -0.0006  XZZ=             12.6377  YZZ=             -0.1642
  YYZ=             -0.0018  XYZ=              0.0427
 Hexadecapole moment (field-independent basis, Debye-Ang**3):
 XXXX=          -2681.7440 YYYY=           -373.8092 ZZZZ=           -408.1762 XXXY=             -3.9762
 XXXZ=              0.0155 YYYX=             -1.9805 YYYZ=             -0.1353 ZZZX=             -0.0264
 ZZZY=              0.0344 XXYY=           -507.9144 XXZZ=           -573.7463 YYZZ=           -143.0077
 XXYZ=             -0.1495 YYXZ=              0.0231 ZZXY=              3.8508
 N-N= 6.755349692040D+02 E-N=-2.430066708947D+03  KE= 4.630603389561D+02
 1\1\GINC-ROCK\SP\RMP2-FC\CC-pVTZ\C12H16\STYLIANAKIS\15-Mar-2016\0\\# m
 p2/cc-pVTZ\\phenylcyclohexane-eq_single_point\\0,1\C\C,1,1.398189\C,2,
 1.39648,1,120.272\C,3,1.404928,2,121.115,1,-0.001,0\C,4,1.402708,3,117
 .869,2,0.001,0\C,5,1.39811,4,121.306,3,0.,0\C,4,1.520109,5,120.537,6,-
 179.998,0\C,7,1.546802,4,112.588,5,117.321,0\C,8,1.537187,7,111.852,4,
 -178.502,0\C,9,1.53642,8,111.702,7,-55.208,0\C,10,1.536412,9,111.297,8
 ,54.411,0\C,11,1.537187,10,111.702,9,-54.413,0\H,8,1.096803,9,110.383,
 10,-177.522,0\H,8,1.099111,9,109.23,10,65.781,0\H,9,1.097135,8,109.887
 ,7,-178.005,0\H,10,1.100033,9,109.18,8,-66.182,0\H,7,1.100337,8,107.03
 4,9,-61.187,0\H,11,1.097135,10,110.333,9,-176.956,0\H,12,1.09911,7,109
 .185,8,66.14,0\H,12,1.096803,7,109.6,8,-177.635,0\H,10,1.097094,9,110.
 28,8,177.139,0\H,9,1.099927,8,109.164,7,65.634,0\H,11,1.099932,10,109.
 181,9,66.418,0\H,5,1.087686,4,119.209,7,0.,0\H,3,1.086789,4,119.812,7,
 0.,0\H,2,1.086655,3,119.691,4,179.999,0\H,6,1.08664,5,119.754,4,179.99
 9,0\H,1,1.08622,2,120.312,3,-180.,0\\Version=EM64L-G09RevA.01\State=1-
 A\HF=-463.8994151\MP2=-465.8818049\RMSD=9.333e-09\PG=C01 [X(C12H16)]\\
 @


 DEFINE YOUR TERMS, YOU WILL PERMIT ME AGAIN TO SAY, 
 OR WE SHALL NEVER UNDERSTAND ONE ANOTHER.

                                    -- VOLTAIRE
 Job cpu time:  0 days  7 hours 50 minutes 47.2 seconds.
 File lengths (MBytes):  RWF=    184 Int=      0 D2E=      0 Chk=     15 Scr=      1
 Normal termination of Gaussian 09 at Tue Mar 15 02:03:07 2016.
