 Entering Gaussian System, Link 0=g09
 Input=trans1-2dichlorocycloh-eq-eq.gjf
 Output=trans1-2dichlorocycloh-eq-eq.out
 Initial command:
 /usr/local/g09/l1.exe /home/scratch/stylianakis/Gau-21857.inp -scrdir=/home/scratch/stylianakis/
 Entering Link 1 = /usr/local/g09/l1.exe PID=     21858.
  
 Copyright (c) 1988,1990,1992,1993,1995,1998,2003,2009, Gaussian, Inc.
                  All Rights Reserved.
  
 This is part of the Gaussian(R) 09 program.  It is based on
 the Gaussian(R) 03 system (copyright 2003, Gaussian, Inc.),
 the Gaussian(R) 98 system (copyright 1998, Gaussian, Inc.),
 the Gaussian(R) 94 system (copyright 1995, Gaussian, Inc.),
 the Gaussian 92(TM) system (copyright 1992, Gaussian, Inc.),
 the Gaussian 90(TM) system (copyright 1990, Gaussian, Inc.),
 the Gaussian 88(TM) system (copyright 1988, Gaussian, Inc.),
 the Gaussian 86(TM) system (copyright 1986, Carnegie Mellon
 University), and the Gaussian 82(TM) system (copyright 1983,
 Carnegie Mellon University). Gaussian is a federally registered
 trademark of Gaussian, Inc.
  
 This software contains proprietary and confidential information,
 including trade secrets, belonging to Gaussian, Inc.
  
 This software is provided under written license and may be
 used, copied, transmitted, or stored only in accord with that
 written license.
  
 The following legend is applicable only to US Government
 contracts under FAR:
  
                    RESTRICTED RIGHTS LEGEND
  
 Use, reproduction and disclosure by the US Government is
 subject to restrictions as set forth in subparagraphs (a)
 and (c) of the Commercial Computer Software - Restricted
 Rights clause in FAR 52.227-19.
  
 Gaussian, Inc.
 340 Quinnipiac St., Bldg. 40, Wallingford CT 06492
  
  
 ---------------------------------------------------------------
 Warning -- This program may not be used in any manner that
 competes with the business of Gaussian, Inc. or will provide
 assistance to any competitor of Gaussian, Inc.  The licensee
 of this program is prohibited from giving any competitor of
 Gaussian, Inc. access to this program.  By using this program,
 the user acknowledges that Gaussian, Inc. is engaged in the
 business of creating and licensing software in the field of
 computational chemistry and represents and warrants to the
 licensee that it is not a competitor of Gaussian, Inc. and that
 it will not use this program in any manner prohibited above.
 ---------------------------------------------------------------
  

 Cite this work as:
 Gaussian 09, Revision A.01,
 M. J. Frisch, G. W. Trucks, H. B. Schlegel, G. E. Scuseria, 
 M. A. Robb, J. R. Cheeseman, G. Scalmani, V. Barone, B. Mennucci, 
 G. A. Petersson, H. Nakatsuji, M. Caricato, X. Li, H. P. Hratchian, 
 A. F. Izmaylov, J. Bloino, G. Zheng, J. L. Sonnenberg, M. Hada, 
 M. Ehara, K. Toyota, R. Fukuda, J. Hasegawa, M. Ishida, T. Nakajima, 
 Y. Honda, O. Kitao, H. Nakai, T. Vreven, J. A. Montgomery, Jr., 
 J. E. Peralta, F. Ogliaro, M. Bearpark, J. J. Heyd, E. Brothers, 
 K. N. Kudin, V. N. Staroverov, R. Kobayashi, J. Normand, 
 K. Raghavachari, A. Rendell, J. C. Burant, S. S. Iyengar, J. Tomasi, 
 M. Cossi, N. Rega, J. M. Millam, M. Klene, J. E. Knox, J. B. Cross, 
 V. Bakken, C. Adamo, J. Jaramillo, R. Gomperts, R. E. Stratmann, 
 O. Yazyev, A. J. Austin, R. Cammi, C. Pomelli, J. W. Ochterski, 
 R. L. Martin, K. Morokuma, V. G. Zakrzewski, G. A. Voth, 
 P. Salvador, J. J. Dannenberg, S. Dapprich, A. D. Daniels, 
 O. Farkas, J. B. Foresman, J. V. Ortiz, J. Cioslowski, 
 and D. J. Fox, Gaussian, Inc., Wallingford CT, 2009.
 
 ******************************************
 Gaussian 09:  EM64L-G09RevA.01  8-May-2009
                14-Feb-2016 
 ******************************************
 %mem=8000Mb
 %nproc=4
 Will use up to    4 processors via shared memory.
 -------------
 # mp2/cc-pVTZ
 -------------
 1/38=1/1;
 2/12=2,17=6,18=5,40=1/2;
 3/5=16,6=1,11=9,16=1,25=1,30=1/1,2,3;
 4//1;
 5/5=2,38=5/2;
 8/10=1/1;
 9/16=-3/6;
 6/7=2,8=2,9=2,10=2/1;
 99/5=1,9=1/99;
 -----------------------------------------
 trans1-2dichlorocycloh-eq-eq_single_point
 -----------------------------------------
 Symbolic Z-matrix:
 Charge =  0 Multiplicity = 1
 c
 c                    1    cc2
 c                    2    cc3      1    ccc3
 c                    3    cc4      2    ccc4     1    dih4     0
 c                    4    cc5      3    ccc5     2    dih5     0
 c                    5    cc6      4    ccc6     3    dih6     0
 cl                   4    clc7     3    clcc7    2    dih7     0
 cl                   5    clc8     4    clcc8    3    dih8     0
 h                    3    hc9      4    hcc9     5    dih9     0
 h                    3    hc10     4    hcc10    5    dih10    0
 h                    4    hc11     3    hcc11    2    dih11    0
 h                    5    hc12     4    hcc12    3    dih12    0
 h                    2    hc13     3    hcc13    4    dih13    0
 h                    2    hc14     3    hcc14    4    dih14    0
 h                    6    hc15     5    hcc15    4    dih15    0
 h                    6    hc16     5    hcc16    4    dih16    0
 h                    1    hc17     2    hcc17    3    dih17    0
 h                    1    hc18     2    hcc18    3    dih18    0
       Variables:
  cc2                   1.53377                  
  cc3                   1.53671                  
  ccc3                110.812                    
  cc4                   1.53492                  
  ccc4                111.641                    
  dih4                 55.831                    
  cc5                   1.53001                  
  ccc5                111.188                    
  dih5                -55.321                    
  cc6                   1.53491                  
  ccc6                111.189                    
  dih6                 54.707                    
  clc7                  1.82676                  
  clcc7               108.867                    
  dih7               -178.367                    
  clc8                  1.82678                  
  clcc8               111.361                    
  dih8                176.308                    
  hc9                   1.09732                  
  hcc9                108.689                    
  dih9                 65.905                    
  hc10                  1.09445                  
  hcc10               108.683                    
  dih10              -178.187                    
  hc11                  1.09329                  
  hcc11               110.785                    
  dih11                66.67                     
  hc12                  1.09329                  
  hcc12               109.486                    
  dih12               -68.038                    
  hc13                  1.09603                  
  hcc13               109.307                    
  dih13               178.155                    
  hc14                  1.09895                  
  hcc14               109.762                    
  dih14               -65.278                    
  hc15                  1.09732                  
  hcc15               108.69                     
  dih15                65.903                    
  hc16                  1.09445                  
  hcc16               108.683                    
  dih16              -178.188                    
  hc17                  1.09603                  
  hcc17               110.747                    
  dih17              -177.2                      
  hc18                  1.09895                  
  hcc18               109.534                    
  dih18                65.523                    
 
                          Input orientation:                          
 ---------------------------------------------------------------------
 Center     Atomic      Atomic             Coordinates (Angstroms)
 Number     Number       Type             X           Y           Z
 ---------------------------------------------------------------------
      1          6           0        0.000000    0.000000    0.000000
      2          6           0        0.000000    0.000000    1.533766
      3          6           0        1.436437    0.000000    2.079762
      4          6           0        2.250268    1.180450    1.531869
      5          6           0        2.242828    1.194524    0.001939
      6          6           0        0.809061    1.186955   -0.545976
      7         17           0        3.952116    1.079850    2.188109
      8         17           0        3.118256    2.657434   -0.654288
      9          1           0        1.939860   -0.934065    1.800117
     10          1           0        1.441998    0.047790    3.173153
     11          1           0        1.858140    2.129470    1.907210
     12          1           0        2.806153    0.336004   -0.373414
     13          1           0       -0.535252   -0.874099    1.922018
     14          1           0       -0.537184    0.885494    1.901234
     15          1           0        0.320776    2.129019   -0.266317
     16          1           0        0.851699    1.164650   -1.639366
     17          1           0       -1.023730    0.050069   -0.388259
     18          1           0        0.429120   -0.942620   -0.367453
 ---------------------------------------------------------------------
                    Distance matrix (angstroms):
                    1          2          3          4          5
     1  C    0.000000
     2  C    1.533766   0.000000
     3  C    2.527599   1.536705   0.000000
     4  C    2.967118   2.541097   1.534917   0.000000
     5  C    2.541096   2.967096   2.528735   1.530013   0.000000
     6  C    1.536728   2.527601   2.949061   2.528746   1.534912
     7  Cl   4.644687   4.148911   2.739791   1.826762   2.777438
     8  Cl   4.148924   4.644681   4.167193   2.777439   1.826777
     9  H    2.806413   2.169441   1.097321   2.153947   2.802878
    10  H    3.485763   2.183857   1.094450   2.151752   3.465968
    11  H    3.409513   2.850752   2.177670   1.093290   2.156888
    12  H    2.850760   3.409506   2.829680   2.156896   1.093289
    13  H    2.178233   1.096031   2.162519   3.483175   3.960257
    14  H    2.165031   1.098954   2.170519   2.827246   3.381019
    15  H    2.169457   2.806407   3.358796   2.802890   2.153956
    16  H    2.183878   3.485767   3.940843   3.465974   2.151747
    17  H    1.096027   2.178235   3.485119   3.960267   3.483164
    18  H    1.098953   2.165019   2.809284   3.381040   2.827255
                    6          7          8          9         10
     6  C    0.000000
     7  Cl   4.167192   0.000000
     8  Cl   2.739785   3.356087   0.000000
     9  H    3.358807   2.873250   4.506838   0.000000
    10  H    3.940841   2.887240   4.926398   1.759868   0.000000
    11  H    2.829668   2.359098   2.903086   3.066495   2.471675
    12  H    2.177676   2.903091   2.359096   2.662288   3.810791
    13  H    3.485128   4.901550   5.697122   2.478837   2.514903
    14  H    2.809286   4.502654   4.799240   3.075186   2.497337
    15  H    1.097322   4.506839   2.873262   4.034113   4.173561
    16  H    1.094449   4.926393   2.887224   4.173577   4.975558
    17  H    2.162524   5.697119   4.901548   3.813184   4.331683
    18  H    2.170557   4.799248   4.502679   2.642114   3.813493
                   11         12         13         14         15
    11  H    0.000000
    12  H    3.052293   0.000000
    13  H    3.840569   4.230644   0.000000
    14  H    2.699091   4.080915   1.759718   0.000000
    15  H    2.662275   3.066508   3.813177   2.642107   0.000000
    16  H    3.810775   2.471676   4.331696   3.813499   1.759872
    17  H    4.230634   3.840571   2.535760   2.485244   2.478831
    18  H    4.080922   2.699112   2.485233   3.069639   3.075213
                   16         17         18
    16  H    0.000000
    17  H    2.514915   0.000000
    18  H    2.497384   1.759726   0.000000
 Stoichiometry    C6H10Cl2
 Framework group  C1[X(C6H10Cl2)]
 Deg. of freedom    48
 Full point group                 C1      NOp   1
 Largest Abelian subgroup         C1      NOp   1
 Largest concise Abelian subgroup C1      NOp   1
                         Standard orientation:                         
 ---------------------------------------------------------------------
 Center     Atomic      Atomic             Coordinates (Angstroms)
 Number     Number       Type             X           Y           Z
 ---------------------------------------------------------------------
      1          6           0        2.377865    0.681535    0.351605
      2          6           0        2.377857   -0.681530   -0.351596
      3          6           0        1.107913   -1.474516   -0.005361
      4          6           0       -0.163227   -0.683481   -0.343646
      5          6           0       -0.163217    0.683474    0.343649
      6          6           0        1.107903    1.474525    0.005349
      7         17           0       -1.620806   -1.672084    0.141313
      8         17           0       -1.620812    1.672081   -0.141312
      9          1           0        1.099347   -1.712467    1.065816
     10          1           0        1.080658   -2.428039   -0.541898
     11          1           0       -0.260044   -0.548359   -1.424225
     12          1           0       -0.260046    0.548366    1.424228
     13          1           0        3.259546   -1.266201   -0.065122
     14          1           0        2.438969   -0.534082   -1.438898
     15          1           0        1.099348    1.712463   -1.065831
     16          1           0        1.080636    2.428050    0.541880
     17          1           0        3.259540    1.266212    0.065112
     18          1           0        2.438988    0.534071    1.438903
 ---------------------------------------------------------------------
 Rotational constants (GHZ):      1.6269303      1.2509662      0.7454231
 Standard basis: CC-pVTZ (5D, 7F)
 There are   388 symmetry adapted basis functions of A   symmetry.
 Integral buffers will be    131072 words long.
 Raffenetti 1 integral format.
 Two-electron integral symmetry is turned on.
   388 basis functions,   670 primitive gaussians,   438 cartesian basis functions
    40 alpha electrons       40 beta electrons
       nuclear repulsion energy       541.5995691623 Hartrees.
 NAtoms=   18 NActive=   18 NUniq=   18 SFac= 7.50D-01 NAtFMM=   80 NAOKFM=F Big=F
 One-electron integrals computed using PRISM.
 NBasis=   388 RedAO= T  NBF=   388
 NBsUse=   388 1.00D-06 NBFU=   388
 Harris functional with IExCor=  205 diagonalized for initial guess.
 ExpMin= 1.03D-01 ExpMax= 4.56D+05 ExpMxC= 1.44D+03 IAcc=2 IRadAn=         0 AccDes= 0.00D+00
 HarFok:  IExCor=  205 AccDes= 0.00D+00 IRadAn=         0 IDoV= 1
 ScaDFX=  1.000000  1.000000  1.000000  1.000000
 FoFCou: FMM=F IPFlag=           0 FMFlag=      100000 FMFlg1=           0
         NFxFlg=           0 DoJE=T BraDBF=F KetDBF=T FulRan=T
         Omega=  0.000000  0.000000  1.000000  0.000000  0.000000 ICntrl=     500 IOpCl=  0
         NMat0=    1 NMatS0=    1 NMatT0=    0 NMatD0=    1 NMtDS0=    0 NMtDT0=    0
         I1Cent=           4 NGrid=           0.
 Petite list used in FoFCou.
 Initial guess orbital symmetries:
       Occupied  (A) (A) (A) (A) (A) (A) (A) (A) (A) (A) (A) (A)
                 (A) (A) (A) (A) (A) (A) (A) (A) (A) (A) (A) (A)
                 (A) (A) (A) (A) (A) (A) (A) (A) (A) (A) (A) (A)
                 (A) (A) (A) (A)
       Virtual   (A) (A) (A) (A) (A) (A) (A) (A) (A) (A) (A) (A)
                 (A) (A) (A) (A) (A) (A) (A) (A) (A) (A) (A) (A)
                 (A) (A) (A) (A) (A) (A) (A) (A) (A) (A) (A) (A)
                 (A) (A) (A) (A) (A) (A) (A) (A) (A) (A) (A) (A)
                 (A) (A) (A) (A) (A) (A) (A) (A) (A) (A) (A) (A)
                 (A) (A) (A) (A) (A) (A) (A) (A) (A) (A) (A) (A)
                 (A) (A) (A) (A) (A) (A) (A) (A) (A) (A) (A) (A)
                 (A) (A) (A) (A) (A) (A) (A) (A) (A) (A) (A) (A)
                 (A) (A) (A) (A) (A) (A) (A) (A) (A) (A) (A) (A)
                 (A) (A) (A) (A) (A) (A) (A) (A) (A) (A) (A) (A)
                 (A) (A) (A) (A) (A) (A) (A) (A) (A) (A) (A) (A)
                 (A) (A) (A) (A) (A) (A) (A) (A) (A) (A) (A) (A)
                 (A) (A) (A) (A) (A) (A) (A) (A) (A) (A) (A) (A)
                 (A) (A) (A) (A) (A) (A) (A) (A) (A) (A) (A) (A)
                 (A) (A) (A) (A) (A) (A) (A) (A) (A) (A) (A) (A)
                 (A) (A) (A) (A) (A) (A) (A) (A) (A) (A) (A) (A)
                 (A) (A) (A) (A) (A) (A) (A) (A) (A) (A) (A) (A)
                 (A) (A) (A) (A) (A) (A) (A) (A) (A) (A) (A) (A)
                 (A) (A) (A) (A) (A) (A) (A) (A) (A) (A) (A) (A)
                 (A) (A) (A) (A) (A) (A) (A) (A) (A) (A) (A) (A)
                 (A) (A) (A) (A) (A) (A) (A) (A) (A) (A) (A) (A)
                 (A) (A) (A) (A) (A) (A) (A) (A) (A) (A) (A) (A)
                 (A) (A) (A) (A) (A) (A) (A) (A) (A) (A) (A) (A)
                 (A) (A) (A) (A) (A) (A) (A) (A) (A) (A) (A) (A)
                 (A) (A) (A) (A) (A) (A) (A) (A) (A) (A) (A) (A)
                 (A) (A) (A) (A) (A) (A) (A) (A) (A) (A) (A) (A)
                 (A) (A) (A) (A) (A) (A) (A) (A) (A) (A) (A) (A)
                 (A) (A) (A) (A) (A) (A) (A) (A) (A) (A) (A) (A)
                 (A) (A) (A) (A) (A) (A) (A) (A) (A) (A) (A) (A)
 The electronic state of the initial guess is 1-A.
 Requested convergence on RMS density matrix=1.00D-08 within 128 cycles.
 Requested convergence on MAX density matrix=1.00D-06.
 Requested convergence on             energy=1.00D-06.
 No special actions if energy rises.
 Integral accuracy reduced to 1.0D-05 until final iterations.
 Initial convergence to 1.0D-05 achieved.  Increase integral accuracy.
 SCF Done:  E(RHF) =  -1152.16338773     A.U. after   12 cycles
             Convg  =    0.9155D-08             -V/T =  2.0004
 ExpMin= 1.03D-01 ExpMax= 4.56D+05 ExpMxC= 1.44D+03 IAcc=3 IRadAn=         5 AccDes= 0.00D+00
 HarFok:  IExCor=  205 AccDes= 0.00D+00 IRadAn=         5 IDoV=-2
 ScaDFX=  1.000000  1.000000  1.000000  1.000000
 Range of M.O.s used for correlation:    17   388
 NBasis=   388 NAE=    40 NBE=    40 NFC=    16 NFV=     0
 NROrb=    372 NOA=    24 NOB=    24 NVA=   348 NVB=   348

 **** Warning!!: The largest alpha MO coefficient is  0.10828713D+02

 Fully direct method using O(OVN) memory.
 JobTyp=1 Pass  1:  I=   1 to  24 NPSUse=  4 ParTrn=T ParDer=T DoDerP=F.
 Spin components of T(2) and E(2):
     alpha-alpha T2 =       0.6012928895D-01 E2=     -0.1686395693D+00
     alpha-beta  T2 =       0.3423515249D+00 E2=     -0.1068029271D+01
     beta-beta   T2 =       0.6012928895D-01 E2=     -0.1686395693D+00
 ANorm=    0.1209384183D+01
 E2 =    -0.1405308410D+01 EUMP2 =    -0.11535686961383D+04

 **********************************************************************

            Population analysis using the SCF density.

 **********************************************************************

 Orbital symmetries:
       Occupied  (A) (A) (A) (A) (A) (A) (A) (A) (A) (A) (A) (A)
                 (A) (A) (A) (A) (A) (A) (A) (A) (A) (A) (A) (A)
                 (A) (A) (A) (A) (A) (A) (A) (A) (A) (A) (A) (A)
                 (A) (A) (A) (A)
       Virtual   (A) (A) (A) (A) (A) (A) (A) (A) (A) (A) (A) (A)
                 (A) (A) (A) (A) (A) (A) (A) (A) (A) (A) (A) (A)
                 (A) (A) (A) (A) (A) (A) (A) (A) (A) (A) (A) (A)
                 (A) (A) (A) (A) (A) (A) (A) (A) (A) (A) (A) (A)
                 (A) (A) (A) (A) (A) (A) (A) (A) (A) (A) (A) (A)
                 (A) (A) (A) (A) (A) (A) (A) (A) (A) (A) (A) (A)
                 (A) (A) (A) (A) (A) (A) (A) (A) (A) (A) (A) (A)
                 (A) (A) (A) (A) (A) (A) (A) (A) (A) (A) (A) (A)
                 (A) (A) (A) (A) (A) (A) (A) (A) (A) (A) (A) (A)
                 (A) (A) (A) (A) (A) (A) (A) (A) (A) (A) (A) (A)
                 (A) (A) (A) (A) (A) (A) (A) (A) (A) (A) (A) (A)
                 (A) (A) (A) (A) (A) (A) (A) (A) (A) (A) (A) (A)
                 (A) (A) (A) (A) (A) (A) (A) (A) (A) (A) (A) (A)
                 (A) (A) (A) (A) (A) (A) (A) (A) (A) (A) (A) (A)
                 (A) (A) (A) (A) (A) (A) (A) (A) (A) (A) (A) (A)
                 (A) (A) (A) (A) (A) (A) (A) (A) (A) (A) (A) (A)
                 (A) (A) (A) (A) (A) (A) (A) (A) (A) (A) (A) (A)
                 (A) (A) (A) (A) (A) (A) (A) (A) (A) (A) (A) (A)
                 (A) (A) (A) (A) (A) (A) (A) (A) (A) (A) (A) (A)
                 (A) (A) (A) (A) (A) (A) (A) (A) (A) (A) (A) (A)
                 (A) (A) (A) (A) (A) (A) (A) (A) (A) (A) (A) (A)
                 (A) (A) (A) (A) (A) (A) (A) (A) (A) (A) (A) (A)
                 (A) (A) (A) (A) (A) (A) (A) (A) (A) (A) (A) (A)
                 (A) (A) (A) (A) (A) (A) (A) (A) (A) (A) (A) (A)
                 (A) (A) (A) (A) (A) (A) (A) (A) (A) (A) (A) (A)
                 (A) (A) (A) (A) (A) (A) (A) (A) (A) (A) (A) (A)
                 (A) (A) (A) (A) (A) (A) (A) (A) (A) (A) (A) (A)
                 (A) (A) (A) (A) (A) (A) (A) (A) (A) (A) (A) (A)
                 (A) (A) (A) (A) (A) (A) (A) (A) (A) (A) (A) (A)
 The electronic state is 1-A.
 Alpha  occ. eigenvalues -- -104.81891-104.81890 -11.31278 -11.31216 -11.24745
 Alpha  occ. eigenvalues --  -11.24745 -11.24258 -11.24198 -10.54386 -10.54386
 Alpha  occ. eigenvalues --   -8.01055  -8.01054  -8.00888  -8.00888  -8.00885
 Alpha  occ. eigenvalues --   -8.00885  -1.18250  -1.10576  -1.09253  -1.00994
 Alpha  occ. eigenvalues --   -0.97915  -0.85512  -0.83437  -0.78625  -0.66231
 Alpha  occ. eigenvalues --   -0.63841  -0.63241  -0.61571  -0.57816  -0.55229
 Alpha  occ. eigenvalues --   -0.54668  -0.52682  -0.51886  -0.48454  -0.47182
 Alpha  occ. eigenvalues --   -0.47118  -0.44169  -0.43769  -0.42699  -0.41971
 Alpha virt. eigenvalues --    0.11857   0.13936   0.15687   0.16510   0.19349
 Alpha virt. eigenvalues --    0.19478   0.20157   0.20860   0.21452   0.21502
 Alpha virt. eigenvalues --    0.22311   0.23639   0.29252   0.30977   0.31018
 Alpha virt. eigenvalues --    0.32899   0.35058   0.36686   0.37940   0.40901
 Alpha virt. eigenvalues --    0.41035   0.42438   0.42629   0.44152   0.45704
 Alpha virt. eigenvalues --    0.45939   0.46930   0.49473   0.49724   0.50154
 Alpha virt. eigenvalues --    0.52080   0.52319   0.54584   0.54745   0.57173
 Alpha virt. eigenvalues --    0.58183   0.58957   0.60060   0.60685   0.61168
 Alpha virt. eigenvalues --    0.61840   0.62661   0.63038   0.63748   0.64393
 Alpha virt. eigenvalues --    0.65253   0.65873   0.66174   0.68191   0.68583
 Alpha virt. eigenvalues --    0.69110   0.70495   0.72146   0.74093   0.76957
 Alpha virt. eigenvalues --    0.77717   0.79271   0.82742   0.85833   0.87553
 Alpha virt. eigenvalues --    0.88066   0.89538   0.89646   0.94291   0.94572
 Alpha virt. eigenvalues --    0.96345   0.98044   0.98529   1.00567   1.06638
 Alpha virt. eigenvalues --    1.06832   1.07861   1.09672   1.11928   1.12353
 Alpha virt. eigenvalues --    1.15092   1.15826   1.17567   1.19478   1.21406
 Alpha virt. eigenvalues --    1.21942   1.23457   1.25797   1.26055   1.27877
 Alpha virt. eigenvalues --    1.30056   1.30237   1.31416   1.32224   1.32253
 Alpha virt. eigenvalues --    1.32901   1.35104   1.35651   1.35699   1.37151
 Alpha virt. eigenvalues --    1.38813   1.41469   1.43032   1.43529   1.45336
 Alpha virt. eigenvalues --    1.47563   1.48902   1.51198   1.52129   1.53618
 Alpha virt. eigenvalues --    1.55269   1.55525   1.57770   1.59251   1.59281
 Alpha virt. eigenvalues --    1.59620   1.60041   1.64273   1.65516   1.66460
 Alpha virt. eigenvalues --    1.67244   1.69255   1.71576   1.73483   1.78449
 Alpha virt. eigenvalues --    1.79602   1.81610   1.84428   1.86421   1.86852
 Alpha virt. eigenvalues --    1.94295   1.96000   2.03267   2.03406   2.04351
 Alpha virt. eigenvalues --    2.26692   2.27691   2.28938   2.29600   2.31934
 Alpha virt. eigenvalues --    2.32786   2.33364   2.36413   2.40212   2.40362
 Alpha virt. eigenvalues --    2.42339   2.43010   2.43676   2.44027   2.45218
 Alpha virt. eigenvalues --    2.46153   2.48333   2.48776   2.52413   2.55135
 Alpha virt. eigenvalues --    2.57988   2.59185   2.59835   2.60582   2.62302
 Alpha virt. eigenvalues --    2.62381   2.64130   2.64821   2.68038   2.69120
 Alpha virt. eigenvalues --    2.69131   2.70146   2.73058   2.76319   2.77706
 Alpha virt. eigenvalues --    2.77796   2.79838   2.83068   2.84598   2.86471
 Alpha virt. eigenvalues --    2.87284   2.87705   2.91090   2.92257   2.93811
 Alpha virt. eigenvalues --    2.94410   2.94751   2.96953   2.96981   3.01919
 Alpha virt. eigenvalues --    3.03316   3.05078   3.05245   3.07579   3.07600
 Alpha virt. eigenvalues --    3.09720   3.12541   3.14033   3.16338   3.18844
 Alpha virt. eigenvalues --    3.19242   3.22099   3.22909   3.24348   3.26783
 Alpha virt. eigenvalues --    3.29599   3.30010   3.31570   3.34373   3.38075
 Alpha virt. eigenvalues --    3.38577   3.39427   3.39516   3.41534   3.43616
 Alpha virt. eigenvalues --    3.44204   3.46197   3.47647   3.47877   3.48487
 Alpha virt. eigenvalues --    3.48724   3.49530   3.51057   3.54781   3.56031
 Alpha virt. eigenvalues --    3.58941   3.59327   3.61853   3.63619   3.64884
 Alpha virt. eigenvalues --    3.65537   3.65746   3.68553   3.71220   3.74170
 Alpha virt. eigenvalues --    3.74303   3.76550   3.78303   3.79831   3.81039
 Alpha virt. eigenvalues --    3.84076   3.84889   3.85933   3.89622   3.91907
 Alpha virt. eigenvalues --    3.93879   3.94465   3.97627   3.98476   4.00263
 Alpha virt. eigenvalues --    4.02216   4.03767   4.04603   4.06093   4.07789
 Alpha virt. eigenvalues --    4.08210   4.10972   4.13330   4.15115   4.16866
 Alpha virt. eigenvalues --    4.16902   4.18468   4.20317   4.22630   4.23085
 Alpha virt. eigenvalues --    4.23353   4.24854   4.29074   4.31693   4.32861
 Alpha virt. eigenvalues --    4.33212   4.34267   4.35679   4.35934   4.39326
 Alpha virt. eigenvalues --    4.40399   4.40775   4.42467   4.43456   4.44603
 Alpha virt. eigenvalues --    4.47508   4.50679   4.50884   4.51406   4.51873
 Alpha virt. eigenvalues --    4.52380   4.53515   4.56159   4.56998   4.60572
 Alpha virt. eigenvalues --    4.60918   4.62139   4.65239   4.67316   4.68421
 Alpha virt. eigenvalues --    4.70765   4.72704   4.75978   4.76000   4.82192
 Alpha virt. eigenvalues --    4.82771   4.86465   4.88272   4.92294   4.98889
 Alpha virt. eigenvalues --    4.99139   5.00265   5.00812   5.08083   5.10230
 Alpha virt. eigenvalues --    5.10288   5.13210   5.13572   5.18468   5.19518
 Alpha virt. eigenvalues --    5.20791   5.27395   5.30813   5.31361   5.33663
 Alpha virt. eigenvalues --    5.36115   5.36961   5.39105   5.40030   5.41273
 Alpha virt. eigenvalues --    5.41569   5.45648   5.47938   5.55838   5.57253
 Alpha virt. eigenvalues --    5.61312   5.63343   5.68247   5.74470   5.76700
 Alpha virt. eigenvalues --    5.78618   5.80937   5.81447   5.85486   5.85759
 Alpha virt. eigenvalues --    5.86010   5.90984   5.95708   5.97250   6.04267
 Alpha virt. eigenvalues --    6.11934   6.15280   6.16806   6.35163   6.37007
 Alpha virt. eigenvalues --    6.45006   6.45116  11.24049  12.37649  12.84101
 Alpha virt. eigenvalues --   13.36509  13.56150  13.56986
          Condensed to atoms (all electrons):
              1          2          3          4          5          6
     1  C    4.913143   0.322572  -0.043823   0.004742  -0.043456   0.330559
     2  C    0.322572   4.913143   0.330557  -0.043456   0.004742  -0.043824
     3  C   -0.043823   0.330557   4.902779   0.332816  -0.030885   0.003746
     4  C    0.004742  -0.043456   0.332816   4.857156   0.315335  -0.030884
     5  C   -0.043456   0.004742  -0.030885   0.315335   4.857160   0.332815
     6  C    0.330559  -0.043824   0.003746  -0.030884   0.332815   4.902777
     7  Cl   0.000568   0.003363  -0.062315   0.286832  -0.055098   0.001298
     8  Cl   0.003364   0.000568   0.001298  -0.055098   0.286829  -0.062316
     9  H   -0.001699  -0.035486   0.417746  -0.035489  -0.001195   0.000160
    10  H    0.005534  -0.032968   0.434564  -0.033989   0.005130  -0.000759
    11  H   -0.000019   0.001116  -0.025923   0.417904  -0.029332   0.000587
    12  H    0.001115  -0.000019   0.000587  -0.029331   0.417905  -0.025923
    13  H   -0.034522   0.435013  -0.034744   0.005487  -0.000725   0.006019
    14  H   -0.037233   0.419864  -0.036949  -0.000291  -0.000194  -0.001446
    15  H   -0.035485  -0.001699   0.000160  -0.001195  -0.035487   0.417747
    16  H   -0.032966   0.005533  -0.000759   0.005129  -0.033989   0.434563
    17  H    0.435013  -0.034522   0.006018  -0.000725   0.005487  -0.034744
    18  H    0.419864  -0.037234  -0.001445  -0.000194  -0.000291  -0.036946
              7          8          9         10         11         12
     1  C    0.000568   0.003364  -0.001699   0.005534  -0.000019   0.001115
     2  C    0.003363   0.000568  -0.035486  -0.032968   0.001116  -0.000019
     3  C   -0.062315   0.001298   0.417746   0.434564  -0.025923   0.000587
     4  C    0.286832  -0.055098  -0.035489  -0.033989   0.417904  -0.029331
     5  C   -0.055098   0.286829  -0.001195   0.005130  -0.029332   0.417905
     6  C    0.001298  -0.062316   0.000160  -0.000759   0.000587  -0.025923
     7  Cl  17.083269  -0.010012   0.001641   0.000406  -0.031847   0.002319
     8  Cl  -0.010012  17.083286  -0.000021  -0.000285   0.002318  -0.031846
     9  H    0.001641  -0.000021   0.559611  -0.025041   0.005285   0.001677
    10  H    0.000406  -0.000285  -0.025041   0.527616  -0.004643  -0.000160
    11  H   -0.031847   0.002318   0.005285  -0.004643   0.505518   0.005519
    12  H    0.002319  -0.031846   0.001677  -0.000160   0.005519   0.505513
    13  H   -0.000302   0.000042  -0.004517  -0.004639  -0.000028  -0.000089
    14  H    0.000013  -0.000133   0.005887  -0.003923   0.000721  -0.000031
    15  H   -0.000021   0.001641   0.000045  -0.000100   0.001677   0.005285
    16  H   -0.000285   0.000406  -0.000100   0.000099  -0.000160  -0.004643
    17  H    0.000042  -0.000302  -0.000091  -0.000225  -0.000089  -0.000028
    18  H   -0.000133   0.000013   0.001377  -0.000075  -0.000031   0.000720
             13         14         15         16         17         18
     1  C   -0.034522  -0.037233  -0.035485  -0.032966   0.435013   0.419864
     2  C    0.435013   0.419864  -0.001699   0.005533  -0.034522  -0.037234
     3  C   -0.034744  -0.036949   0.000160  -0.000759   0.006018  -0.001445
     4  C    0.005487  -0.000291  -0.001195   0.005129  -0.000725  -0.000194
     5  C   -0.000725  -0.000194  -0.035487  -0.033989   0.005487  -0.000291
     6  C    0.006019  -0.001446   0.417747   0.434563  -0.034744  -0.036946
     7  Cl  -0.000302   0.000013  -0.000021  -0.000285   0.000042  -0.000133
     8  Cl   0.000042  -0.000133   0.001641   0.000406  -0.000302   0.000013
     9  H   -0.004517   0.005887   0.000045  -0.000100  -0.000091   0.001377
    10  H   -0.004639  -0.003923  -0.000100   0.000099  -0.000225  -0.000075
    11  H   -0.000028   0.000721   0.001677  -0.000160  -0.000089  -0.000031
    12  H   -0.000089  -0.000031   0.005285  -0.004643  -0.000028   0.000720
    13  H    0.549228  -0.028581  -0.000091  -0.000225  -0.004173  -0.004220
    14  H   -0.028581   0.579905   0.001376  -0.000075  -0.004220   0.006287
    15  H   -0.000091   0.001376   0.559606  -0.025041  -0.004517   0.005887
    16  H   -0.000225  -0.000075  -0.025041   0.527612  -0.004638  -0.003922
    17  H   -0.004173  -0.004220  -0.004517  -0.004638   0.549223  -0.028580
    18  H   -0.004220   0.006287   0.005887  -0.003922  -0.028580   0.579898
 Mulliken atomic charges:
              1
     1  C   -0.207270
     2  C   -0.207264
     3  C   -0.193428
     4  C    0.005250
     5  C    0.005249
     6  C   -0.193429
     7  Cl  -0.219739
     8  Cl  -0.219750
     9  H    0.110208
    10  H    0.133457
    11  H    0.151427
    12  H    0.151431
    13  H    0.121069
    14  H    0.099022
    15  H    0.110211
    16  H    0.133459
    17  H    0.121071
    18  H    0.099026
 Sum of Mulliken atomic charges =   0.00000
 Mulliken charges with hydrogens summed into heavy atoms:
              1
     1  C    0.012827
     2  C    0.012827
     3  C    0.050238
     4  C    0.156677
     5  C    0.156680
     6  C    0.050241
     7  Cl  -0.219739
     8  Cl  -0.219750
 Sum of Mulliken charges with hydrogens summed into heavy atoms =   0.00000
 Electronic spatial extent (au):  <R**2>=           1500.0668
 Charge=              0.0000 electrons
 Dipole moment (field-independent basis, Debye):
    X=              4.1132    Y=              0.0000    Z=              0.0000  Tot=              4.1132
 Quadrupole moment (field-independent basis, Debye-Ang):
   XX=            -66.6214   YY=            -67.3587   ZZ=            -61.9878
   XY=              0.0002   XZ=              0.0000   YZ=              1.0404
 Traceless Quadrupole moment (field-independent basis, Debye-Ang):
   XX=             -1.2987   YY=             -2.0361   ZZ=              3.3348
   XY=              0.0002   XZ=              0.0000   YZ=              1.0404
 Octapole moment (field-independent basis, Debye-Ang**2):
  XXX=             -1.6490  YYY=             -0.0001  ZZZ=              0.0001  XYY=              6.1120
  XXY=             -0.0003  XXZ=              0.0000  XZZ=             -2.4606  YZZ=              0.0000
  YYZ=             -0.0001  XYZ=              0.0867
 Hexadecapole moment (field-independent basis, Debye-Ang**3):
 XXXX=          -1057.1433 YYYY=           -800.9959 ZZZZ=           -128.9517 XXXY=              0.0008
 XXXZ=              0.0000 YYYX=              0.0010 YYYZ=              2.0979 ZZZX=              0.0000
 ZZZY=              0.0337 XXYY=           -305.8987 XXZZ=           -203.2959 YYZZ=           -154.6368
 XXYZ=             -6.8871 YYXZ=             -0.0003 ZZXY=              0.0001
 N-N= 5.415995691623D+02 E-N=-3.813895929520D+03  KE= 1.151684672947D+03
 1\1\GINC-ROCK\SP\RMP2-FC\CC-pVTZ\C6H10Cl2\STYLIANAKIS\14-Feb-2016\0\\#
  mp2/cc-pVTZ\\trans1-2dichlorocycloh-eq-eq_single_point\\0,1\C\C,1,1.5
 33766\C,2,1.536705,1,110.812\C,3,1.534917,2,111.641,1,55.831,0\C,4,1.5
 30013,3,111.188,2,-55.321,0\C,5,1.534912,4,111.189,3,54.707,0\Cl,4,1.8
 26762,3,108.867,2,-178.367,0\Cl,5,1.826777,4,111.361,3,176.308,0\H,3,1
 .097321,4,108.689,5,65.905,0\H,3,1.09445,4,108.683,5,-178.187,0\H,4,1.
 09329,3,110.785,2,66.67,0\H,5,1.093289,4,109.486,3,-68.038,0\H,2,1.096
 031,3,109.307,4,178.155,0\H,2,1.098954,3,109.762,4,-65.278,0\H,6,1.097
 322,5,108.69,4,65.903,0\H,6,1.094449,5,108.683,4,-178.188,0\H,1,1.0960
 27,2,110.747,3,-177.2,0\H,1,1.098953,2,109.534,3,65.523,0\\Version=EM6
 4L-G09RevA.01\State=1-A\HF=-1152.1633877\MP2=-1153.5686961\RMSD=9.155e
 -09\PG=C01 [X(C6H10Cl2)]\\@


 THE ONLY EXISTING THINGS ARE ATOMS AND EMPTY SPACE;
 ALL ELSE IS MERE OPINION. -- DEMOCRITUS OF ABDERA D. 370 B.C.
 EXPERIMENTS ARE THE ONLY MEANS OF KNOWLEDGE AT OUR DISPOSAL
 THE REST IS POETRY, IMAGINATION. -- MAX PLANCK
 Job cpu time:  0 days  1 hours 55 minutes  3.9 seconds.
 File lengths (MBytes):  RWF=     84 Int=      0 D2E=      0 Chk=      7 Scr=      1
 Normal termination of Gaussian 09 at Sun Feb 14 23:30:24 2016.
