 Entering Gaussian System, Link 0=g09
 Input=trans1-2dimethylcycloh-eq-eq.gjf
 Output=trans1-2dimethylcycloh-eq-eq.out
 Initial command:
 /usr/local/g09/l1.exe /home/scratch/stylianakis/Gau-23466.inp -scrdir=/home/scratch/stylianakis/
 Entering Link 1 = /usr/local/g09/l1.exe PID=     23467.
  
 Copyright (c) 1988,1990,1992,1993,1995,1998,2003,2009, Gaussian, Inc.
                  All Rights Reserved.
  
 This is part of the Gaussian(R) 09 program.  It is based on
 the Gaussian(R) 03 system (copyright 2003, Gaussian, Inc.),
 the Gaussian(R) 98 system (copyright 1998, Gaussian, Inc.),
 the Gaussian(R) 94 system (copyright 1995, Gaussian, Inc.),
 the Gaussian 92(TM) system (copyright 1992, Gaussian, Inc.),
 the Gaussian 90(TM) system (copyright 1990, Gaussian, Inc.),
 the Gaussian 88(TM) system (copyright 1988, Gaussian, Inc.),
 the Gaussian 86(TM) system (copyright 1986, Carnegie Mellon
 University), and the Gaussian 82(TM) system (copyright 1983,
 Carnegie Mellon University). Gaussian is a federally registered
 trademark of Gaussian, Inc.
  
 This software contains proprietary and confidential information,
 including trade secrets, belonging to Gaussian, Inc.
  
 This software is provided under written license and may be
 used, copied, transmitted, or stored only in accord with that
 written license.
  
 The following legend is applicable only to US Government
 contracts under FAR:
  
                    RESTRICTED RIGHTS LEGEND
  
 Use, reproduction and disclosure by the US Government is
 subject to restrictions as set forth in subparagraphs (a)
 and (c) of the Commercial Computer Software - Restricted
 Rights clause in FAR 52.227-19.
  
 Gaussian, Inc.
 340 Quinnipiac St., Bldg. 40, Wallingford CT 06492
  
  
 ---------------------------------------------------------------
 Warning -- This program may not be used in any manner that
 competes with the business of Gaussian, Inc. or will provide
 assistance to any competitor of Gaussian, Inc.  The licensee
 of this program is prohibited from giving any competitor of
 Gaussian, Inc. access to this program.  By using this program,
 the user acknowledges that Gaussian, Inc. is engaged in the
 business of creating and licensing software in the field of
 computational chemistry and represents and warrants to the
 licensee that it is not a competitor of Gaussian, Inc. and that
 it will not use this program in any manner prohibited above.
 ---------------------------------------------------------------
  

 Cite this work as:
 Gaussian 09, Revision A.01,
 M. J. Frisch, G. W. Trucks, H. B. Schlegel, G. E. Scuseria, 
 M. A. Robb, J. R. Cheeseman, G. Scalmani, V. Barone, B. Mennucci, 
 G. A. Petersson, H. Nakatsuji, M. Caricato, X. Li, H. P. Hratchian, 
 A. F. Izmaylov, J. Bloino, G. Zheng, J. L. Sonnenberg, M. Hada, 
 M. Ehara, K. Toyota, R. Fukuda, J. Hasegawa, M. Ishida, T. Nakajima, 
 Y. Honda, O. Kitao, H. Nakai, T. Vreven, J. A. Montgomery, Jr., 
 J. E. Peralta, F. Ogliaro, M. Bearpark, J. J. Heyd, E. Brothers, 
 K. N. Kudin, V. N. Staroverov, R. Kobayashi, J. Normand, 
 K. Raghavachari, A. Rendell, J. C. Burant, S. S. Iyengar, J. Tomasi, 
 M. Cossi, N. Rega, J. M. Millam, M. Klene, J. E. Knox, J. B. Cross, 
 V. Bakken, C. Adamo, J. Jaramillo, R. Gomperts, R. E. Stratmann, 
 O. Yazyev, A. J. Austin, R. Cammi, C. Pomelli, J. W. Ochterski, 
 R. L. Martin, K. Morokuma, V. G. Zakrzewski, G. A. Voth, 
 P. Salvador, J. J. Dannenberg, S. Dapprich, A. D. Daniels, 
 O. Farkas, J. B. Foresman, J. V. Ortiz, J. Cioslowski, 
 and D. J. Fox, Gaussian, Inc., Wallingford CT, 2009.
 
 ******************************************
 Gaussian 09:  EM64L-G09RevA.01  8-May-2009
                15-Feb-2016 
 ******************************************
 %mem=8000Mb
 %nproc=4
 Will use up to    4 processors via shared memory.
 -------------
 # mp2/cc-pVTZ
 -------------
 1/38=1/1;
 2/12=2,17=6,18=5,40=1/2;
 3/5=16,6=1,11=9,16=1,25=1,30=1/1,2,3;
 4//1;
 5/5=2,38=5/2;
 8/10=1/1;
 9/16=-3/6;
 6/7=2,8=2,9=2,10=2/1;
 99/5=1,9=1/99;
 -----------------------------------------
 trans1-2dimethylcycloh-eq-eq_single_point
 -----------------------------------------
 Symbolic Z-matrix:
 Charge =  0 Multiplicity = 1
 c
 c                    1    cc2
 c                    2    cc3      1    ccc3
 c                    3    cc4      2    ccc4     1    dih4     0
 c                    4    cc5      3    ccc5     2    dih5     0
 c                    5    cc6      4    ccc6     3    dih6     0
 c                    4    cc7      3    ccc7     2    dih7     0
 c                    5    cc8      4    ccc8     3    dih8     0
 h                    3    hc9      4    hcc9     5    dih9     0
 h                    3    hc10     4    hcc10    5    dih10    0
 h                    4    hc11     3    hcc11    2    dih11    0
 h                    5    hc12     4    hcc12    3    dih12    0
 h                    2    hc13     3    hcc13    4    dih13    0
 h                    2    hc14     3    hcc14    4    dih14    0
 h                    6    hc15     5    hcc15    4    dih15    0
 h                    6    hc16     5    hcc16    4    dih16    0
 h                    1    hc17     2    hcc17    3    dih17    0
 h                    1    hc18     2    hcc18    3    dih18    0
 h                    7    hc19     4    hcc19    3    dih19    0
 h                    7    hc20     4    hcc20    3    dih20    0
 h                    7    hc21     4    hcc21    3    dih21    0
 h                    8    hc22     5    hcc22    4    dih22    0
 h                    8    hc23     5    hcc23    4    dih23    0
 h                    8    hc24     5    hcc24    4    dih24    0
       Variables:
  cc2                   1.5347                   
  cc3                   1.53443                  
  ccc3                111.041                    
  cc4                   1.54261                  
  ccc4                113.002                    
  dih4                 55.052                    
  cc5                   1.55113                  
  ccc5                110.738                    
  dih5                -54.516                    
  cc6                   1.54262                  
  ccc6                110.738                    
  dih6                 53.073                    
  cc7                   1.53628                  
  ccc7                110.232                    
  dih7                179.554                    
  cc8                   1.53628                  
  ccc8                113.108                    
  dih8                177.378                    
  hc9                   1.10109                  
  hcc9                108.69                     
  dih9                 66.899                    
  hc10                  1.09793                  
  hcc10               109.322                    
  dih10              -177.524                    
  hc11                  1.10305                  
  hcc11               107.558                    
  dih11                62.136                    
  hc12                  1.10305                  
  hcc12               107.046                    
  dih12               -63.894                    
  hc13                  1.09727                  
  hcc13               110.19                     
  dih13               177.833                    
  hc14                  1.09993                  
  hcc14               109.265                    
  dih14               -65.468                    
  hc15                  1.10109                  
  hcc15               108.69                     
  dih15                66.9                      
  hc16                  1.09793                  
  hcc16               109.322                    
  dih16              -177.524                    
  hc17                  1.09727                  
  hcc17               110.509                    
  dih17              -176.734                    
  hc18                  1.09993                  
  hcc18               109.207                    
  dih18                66.417                    
  hc19                  1.09619                  
  hcc19               110.638                    
  dih19               -52.444                    
  hc20                  1.09777                  
  hcc20               110.882                    
  dih20                66.738                    
  hc21                  1.09397                  
  hcc21               112.4                      
  dih21              -172.506                    
  hc22                  1.09619                  
  hcc22               110.638                    
  dih22              -177.023                    
  hc23                  1.09777                  
  hcc23               110.882                    
  dih23               -57.841                    
  hc24                  1.09397                  
  hcc24               112.4                      
  dih24                62.915                    
 
                          Input orientation:                          
 ---------------------------------------------------------------------
 Center     Atomic      Atomic             Coordinates (Angstroms)
 Number     Number       Type             X           Y           Z
 ---------------------------------------------------------------------
      1          6           0        0.000000    0.000000    0.000000
      2          6           0        0.000000    0.000000    1.534697
      3          6           0        1.432120    0.000000    2.085612
      4          6           0        2.286765    1.163904    1.542872
      5          6           0        2.282933    1.171381   -0.008238
      6          6           0        0.838982    1.160592   -0.550963
      7          6           0        3.700332    1.109490    2.142062
      8          6           0        3.066936    2.348855   -0.607444
      9          1           0        1.921970   -0.950250    1.822038
     10          1           0        1.414695    0.042834    3.182571
     11          1           0        1.814740    2.104979    1.871929
     12          1           0        2.769077    0.237520   -0.337291
     13          1           0       -0.553649   -0.865839    1.919139
     14          1           0       -0.528034    0.894477    1.896549
     15          1           0        0.355844    2.114276   -0.287404
     16          1           0        0.863477    1.121370   -1.647923
     17          1           0       -1.026055    0.058551   -0.384434
     18          1           0        0.415562   -0.951953   -0.361857
     19          1           0        3.654427    1.052706    3.235820
     20          1           0        4.241576    0.222509    1.787903
     21          1           0        4.296326    1.990062    1.884852
     22          1           0        2.993987    2.344926   -1.701201
     23          1           0        2.665194    3.307120   -0.253266
     24          1           0        4.129740    2.315990   -0.350269
 ---------------------------------------------------------------------
                    Distance matrix (angstroms):
                    1          2          3          4          5
     1  C    0.000000
     2  C    1.534697   0.000000
     3  C    2.529970   1.534430   0.000000
     4  C    2.994064   2.565937   1.542614   0.000000
     5  C    2.565928   2.994088   2.545629   1.551132   0.000000
     6  C    1.534414   2.529989   2.941142   2.545629   1.542615
     7  C    4.417223   3.910539   2.525657   1.536282   2.576167
     8  C    3.910525   4.417237   3.929669   2.576166   1.536279
     9  H    2.813675   2.163217   1.101090   2.163482   2.825158
    10  H    3.483096   2.172253   1.097933   2.169313   3.494097
    11  H    3.350871   2.799633   2.150116   1.103045   2.150776
    12  H    2.799637   3.350902   2.777469   2.150773   1.103045
    13  H    2.176994   1.097270   2.172711   3.511323   3.988891
    14  H    2.162361   1.099930   2.162877   2.849696   3.406820
    15  H    2.163190   2.813688   3.355554   2.825168   2.163483
    16  H    2.172260   3.483121   3.939557   3.494099   2.169314
    17  H    1.097272   2.176989   3.485281   3.988870   3.511312
    18  H    1.099930   2.162365   2.815975   3.406794   2.849679
    19  H    4.993351   4.166154   2.714740   2.179206   3.524058
    20  H    4.608370   4.254949   2.833935   2.183473   2.821837
    21  H    5.096218   4.747776   3.493470   2.199506   2.882322
    22  H    4.166140   4.993363   4.719964   3.524058   2.179204
    23  H    4.254932   4.608374   4.234131   2.821824   2.183470
    24  H    4.747763   5.096240   4.309813   2.882333   2.199503
                    6          7          8          9         10
     6  C    0.000000
     7  C    3.929671   0.000000
     8  C    2.525655   3.081720   0.000000
     9  H    3.355540   2.739984   4.254106   0.000000
    10  H    3.939557   2.728471   4.734115   1.759146   0.000000
    11  H    2.777477   2.149285   2.788325   3.057517   2.475936
    12  H    2.150113   2.788325   2.149287   2.605972   3.776464
    13  H    3.485291   4.695528   5.461366   2.478961   2.509248
    14  H    2.816002   4.240942   4.616167   3.067750   2.480593
    15  H    1.101090   4.254116   2.739977   4.036560   4.177651
    16  H    1.097934   4.734118   2.728470   4.177636   4.980036
    17  H    2.172692   5.461354   4.695508   3.817990   4.322156
    18  H    2.162844   4.616154   4.240923   2.653049   3.814556
    19  H    4.719967   1.096193   4.098271   3.002002   2.457453
    20  H    4.234140   1.097775   3.411571   2.599442   3.157316
    21  H    4.309808   1.093971   2.802083   3.779808   3.712085
    22  H    2.714726   4.098279   1.096194   4.941722   5.625391
    23  H    2.833947   3.411551   1.097775   4.794211   4.901457
    24  H    3.493467   2.802097   1.093971   4.501277   5.001967
                   11         12         13         14         15
    11  H    0.000000
    12  H    3.046114   0.000000
    13  H    3.799640   4.165260   0.000000
    14  H    2.637141   4.036406   1.760648   0.000000
    15  H    2.605990   3.057515   3.817997   2.653074   0.000000
    16  H    3.776473   2.475936   4.322173   3.814586   1.759137
    17  H    4.165232   3.799642   2.526681   2.479855   2.478924
    18  H    4.036376   2.637136   2.479865   3.065954   3.067714
    19  H    2.520303   3.770344   4.808572   4.394503   4.941729
    20  H    3.072505   2.585523   4.918934   4.817938   4.794226
    21  H    2.484279   3.215869   5.628465   4.947210   4.501281
    22  H    3.770339   2.520316   6.000134   5.239488   3.001970
    23  H    2.585511   3.072506   5.700341   4.543044   2.599450
    24  H    3.215885   2.484273   6.099869   5.363185   3.779806
                   16         17         18         19         20
    16  H    0.000000
    17  H    2.509246   0.000000
    18  H    2.480577   1.760649   0.000000
    19  H    5.625394   6.000124   5.239483   0.000000
    20  H    4.901470   5.700339   4.543040   1.769304   0.000000
    21  H    5.001958   6.099847   5.363160   1.765159   1.771057
    22  H    2.457438   4.808547   4.394489   5.145890   4.270243
    23  H    3.157334   4.918915   4.817918   4.270209   4.020718
    24  H    3.712075   5.628448   4.947192   3.831690   2.994487
                   21         22         23         24
    21  H    0.000000
    22  H    3.831682   0.000000
    23  H    2.994458   1.769304   0.000000
    24  H    2.264894   1.765160   1.771057   0.000000
 Stoichiometry    C8H16
 Framework group  C1[X(C8H16)]
 Deg. of freedom    66
 Full point group                 C1      NOp   1
 Largest Abelian subgroup         C1      NOp   1
 Largest concise Abelian subgroup C1      NOp   1
                         Standard orientation:                         
 ---------------------------------------------------------------------
 Center     Atomic      Atomic             Coordinates (Angstroms)
 Number     Number       Type             X           Y           Z
 ---------------------------------------------------------------------
      1          6           0        1.949073   -0.710772   -0.289184
      2          6           0        1.949092    0.710766    0.289197
      3          6           0        0.673854    1.466683   -0.106825
      4          6           0       -0.616828    0.719955    0.288390
      5          6           0       -0.616838   -0.719952   -0.288394
      6          6           0        0.673844   -1.466691    0.106803
      7          6           0       -1.850784    1.535664   -0.126500
      8          6           0       -1.850792   -1.535651    0.126510
      9          1           0        0.670081    1.625443   -1.196403
     10          1           0        0.669892    2.465396    0.349260
     11          1           0       -0.624753    0.627985    1.387565
     12          1           0       -0.624770   -0.627978   -1.387569
     13          1           0        2.836110    1.262466   -0.046702
     14          1           0        2.012247    0.655205    1.385905
     15          1           0        0.670078   -1.625467    1.196379
     16          1           0        0.669868   -2.465405   -0.349283
     17          1           0        2.836084   -1.262487    0.046715
     18          1           0        2.012225   -0.655217   -1.385893
     19          1           0       -1.784053    2.559959    0.258218
     20          1           0       -1.929113    1.598102   -1.219695
     21          1           0       -2.782211    1.104135    0.251652
     22          1           0       -1.784060   -2.559955   -0.258186
     23          1           0       -1.929123   -1.598067    1.219706
     24          1           0       -2.782219   -1.104130   -0.251652
 ---------------------------------------------------------------------
 Rotational constants (GHZ):      2.5934918      1.8809773      1.1865270
 Standard basis: CC-pVTZ (5D, 7F)
 There are   464 symmetry adapted basis functions of A   symmetry.
 Integral buffers will be    131072 words long.
 Raffenetti 1 integral format.
 Two-electron integral symmetry is turned on.
   464 basis functions,   688 primitive gaussians,   520 cartesian basis functions
    32 alpha electrons       32 beta electrons
       nuclear repulsion energy       409.5325988304 Hartrees.
 NAtoms=   24 NActive=   24 NUniq=   24 SFac= 7.50D-01 NAtFMM=   80 NAOKFM=F Big=F
 One-electron integrals computed using PRISM.
 NBasis=   464 RedAO= T  NBF=   464
 NBsUse=   464 1.00D-06 NBFU=   464
 Harris functional with IExCor=  205 diagonalized for initial guess.
 ExpMin= 1.03D-01 ExpMax= 8.24D+03 ExpMxC= 2.81D+02 IAcc=1 IRadAn=         1 AccDes= 0.00D+00
 HarFok:  IExCor=  205 AccDes= 0.00D+00 IRadAn=         1 IDoV= 1
 ScaDFX=  1.000000  1.000000  1.000000  1.000000
 FoFCou: FMM=F IPFlag=           0 FMFlag=      100000 FMFlg1=           0
         NFxFlg=           0 DoJE=T BraDBF=F KetDBF=T FulRan=T
         Omega=  0.000000  0.000000  1.000000  0.000000  0.000000 ICntrl=     500 IOpCl=  0
         NMat0=    1 NMatS0=    1 NMatT0=    0 NMatD0=    1 NMtDS0=    0 NMtDT0=    0
         I1Cent=           4 NGrid=           0.
 Petite list used in FoFCou.
 Initial guess orbital symmetries:
       Occupied  (A) (A) (A) (A) (A) (A) (A) (A) (A) (A) (A) (A)
                 (A) (A) (A) (A) (A) (A) (A) (A) (A) (A) (A) (A)
                 (A) (A) (A) (A) (A) (A) (A) (A)
       Virtual   (A) (A) (A) (A) (A) (A) (A) (A) (A) (A) (A) (A)
                 (A) (A) (A) (A) (A) (A) (A) (A) (A) (A) (A) (A)
                 (A) (A) (A) (A) (A) (A) (A) (A) (A) (A) (A) (A)
                 (A) (A) (A) (A) (A) (A) (A) (A) (A) (A) (A) (A)
                 (A) (A) (A) (A) (A) (A) (A) (A) (A) (A) (A) (A)
                 (A) (A) (A) (A) (A) (A) (A) (A) (A) (A) (A) (A)
                 (A) (A) (A) (A) (A) (A) (A) (A) (A) (A) (A) (A)
                 (A) (A) (A) (A) (A) (A) (A) (A) (A) (A) (A) (A)
                 (A) (A) (A) (A) (A) (A) (A) (A) (A) (A) (A) (A)
                 (A) (A) (A) (A) (A) (A) (A) (A) (A) (A) (A) (A)
                 (A) (A) (A) (A) (A) (A) (A) (A) (A) (A) (A) (A)
                 (A) (A) (A) (A) (A) (A) (A) (A) (A) (A) (A) (A)
                 (A) (A) (A) (A) (A) (A) (A) (A) (A) (A) (A) (A)
                 (A) (A) (A) (A) (A) (A) (A) (A) (A) (A) (A) (A)
                 (A) (A) (A) (A) (A) (A) (A) (A) (A) (A) (A) (A)
                 (A) (A) (A) (A) (A) (A) (A) (A) (A) (A) (A) (A)
                 (A) (A) (A) (A) (A) (A) (A) (A) (A) (A) (A) (A)
                 (A) (A) (A) (A) (A) (A) (A) (A) (A) (A) (A) (A)
                 (A) (A) (A) (A) (A) (A) (A) (A) (A) (A) (A) (A)
                 (A) (A) (A) (A) (A) (A) (A) (A) (A) (A) (A) (A)
                 (A) (A) (A) (A) (A) (A) (A) (A) (A) (A) (A) (A)
                 (A) (A) (A) (A) (A) (A) (A) (A) (A) (A) (A) (A)
                 (A) (A) (A) (A) (A) (A) (A) (A) (A) (A) (A) (A)
                 (A) (A) (A) (A) (A) (A) (A) (A) (A) (A) (A) (A)
                 (A) (A) (A) (A) (A) (A) (A) (A) (A) (A) (A) (A)
                 (A) (A) (A) (A) (A) (A) (A) (A) (A) (A) (A) (A)
                 (A) (A) (A) (A) (A) (A) (A) (A) (A) (A) (A) (A)
                 (A) (A) (A) (A) (A) (A) (A) (A) (A) (A) (A) (A)
                 (A) (A) (A) (A) (A) (A) (A) (A) (A) (A) (A) (A)
                 (A) (A) (A) (A) (A) (A) (A) (A) (A) (A) (A) (A)
                 (A) (A) (A) (A) (A) (A) (A) (A) (A) (A) (A) (A)
                 (A) (A) (A) (A) (A) (A) (A) (A) (A) (A) (A) (A)
                 (A) (A) (A) (A) (A) (A) (A) (A) (A) (A) (A) (A)
                 (A) (A) (A) (A) (A) (A) (A) (A) (A) (A) (A) (A)
                 (A) (A) (A) (A) (A) (A) (A) (A) (A) (A) (A) (A)
                 (A) (A) (A) (A) (A) (A) (A) (A) (A) (A) (A) (A)
 The electronic state of the initial guess is 1-A.
 Requested convergence on RMS density matrix=1.00D-08 within 128 cycles.
 Requested convergence on MAX density matrix=1.00D-06.
 Requested convergence on             energy=1.00D-06.
 No special actions if energy rises.
 Integral accuracy reduced to 1.0D-05 until final iterations.
 Initial convergence to 1.0D-05 achieved.  Increase integral accuracy.
 SCF Done:  E(RHF) =  -312.379357242     A.U. after   11 cycles
             Convg  =    0.4132D-08             -V/T =  2.0018
 ExpMin= 1.03D-01 ExpMax= 8.24D+03 ExpMxC= 2.81D+02 IAcc=1 IRadAn=         1 AccDes= 0.00D+00
 HarFok:  IExCor=  205 AccDes= 0.00D+00 IRadAn=         1 IDoV=-2
 ScaDFX=  1.000000  1.000000  1.000000  1.000000
 Range of M.O.s used for correlation:     9   464
 NBasis=   464 NAE=    32 NBE=    32 NFC=     8 NFV=     0
 NROrb=    456 NOA=    24 NOB=    24 NVA=   432 NVB=   432

 **** Warning!!: The largest alpha MO coefficient is  0.12371842D+02

 Fully direct method using O(OVN) memory.
 JobTyp=1 Pass  1:  I=   1 to  24 NPSUse=  4 ParTrn=T ParDer=T DoDerP=F.
 Spin components of T(2) and E(2):
     alpha-alpha T2 =       0.5391478675D-01 E2=     -0.1583563617D+00
     alpha-beta  T2 =       0.3310399453D+00 E2=     -0.1082312842D+01
     beta-beta   T2 =       0.5391478675D-01 E2=     -0.1583563617D+00
 ANorm=    0.1199528874D+01
 E2 =    -0.1399025565D+01 EUMP2 =    -0.31377838280691D+03

 **********************************************************************

            Population analysis using the SCF density.

 **********************************************************************

 Orbital symmetries:
       Occupied  (A) (A) (A) (A) (A) (A) (A) (A) (A) (A) (A) (A)
                 (A) (A) (A) (A) (A) (A) (A) (A) (A) (A) (A) (A)
                 (A) (A) (A) (A) (A) (A) (A) (A)
       Virtual   (A) (A) (A) (A) (A) (A) (A) (A) (A) (A) (A) (A)
                 (A) (A) (A) (A) (A) (A) (A) (A) (A) (A) (A) (A)
                 (A) (A) (A) (A) (A) (A) (A) (A) (A) (A) (A) (A)
                 (A) (A) (A) (A) (A) (A) (A) (A) (A) (A) (A) (A)
                 (A) (A) (A) (A) (A) (A) (A) (A) (A) (A) (A) (A)
                 (A) (A) (A) (A) (A) (A) (A) (A) (A) (A) (A) (A)
                 (A) (A) (A) (A) (A) (A) (A) (A) (A) (A) (A) (A)
                 (A) (A) (A) (A) (A) (A) (A) (A) (A) (A) (A) (A)
                 (A) (A) (A) (A) (A) (A) (A) (A) (A) (A) (A) (A)
                 (A) (A) (A) (A) (A) (A) (A) (A) (A) (A) (A) (A)
                 (A) (A) (A) (A) (A) (A) (A) (A) (A) (A) (A) (A)
                 (A) (A) (A) (A) (A) (A) (A) (A) (A) (A) (A) (A)
                 (A) (A) (A) (A) (A) (A) (A) (A) (A) (A) (A) (A)
                 (A) (A) (A) (A) (A) (A) (A) (A) (A) (A) (A) (A)
                 (A) (A) (A) (A) (A) (A) (A) (A) (A) (A) (A) (A)
                 (A) (A) (A) (A) (A) (A) (A) (A) (A) (A) (A) (A)
                 (A) (A) (A) (A) (A) (A) (A) (A) (A) (A) (A) (A)
                 (A) (A) (A) (A) (A) (A) (A) (A) (A) (A) (A) (A)
                 (A) (A) (A) (A) (A) (A) (A) (A) (A) (A) (A) (A)
                 (A) (A) (A) (A) (A) (A) (A) (A) (A) (A) (A) (A)
                 (A) (A) (A) (A) (A) (A) (A) (A) (A) (A) (A) (A)
                 (A) (A) (A) (A) (A) (A) (A) (A) (A) (A) (A) (A)
                 (A) (A) (A) (A) (A) (A) (A) (A) (A) (A) (A) (A)
                 (A) (A) (A) (A) (A) (A) (A) (A) (A) (A) (A) (A)
                 (A) (A) (A) (A) (A) (A) (A) (A) (A) (A) (A) (A)
                 (A) (A) (A) (A) (A) (A) (A) (A) (A) (A) (A) (A)
                 (A) (A) (A) (A) (A) (A) (A) (A) (A) (A) (A) (A)
                 (A) (A) (A) (A) (A) (A) (A) (A) (A) (A) (A) (A)
                 (A) (A) (A) (A) (A) (A) (A) (A) (A) (A) (A) (A)
                 (A) (A) (A) (A) (A) (A) (A) (A) (A) (A) (A) (A)
                 (A) (A) (A) (A) (A) (A) (A) (A) (A) (A) (A) (A)
                 (A) (A) (A) (A) (A) (A) (A) (A) (A) (A) (A) (A)
                 (A) (A) (A) (A) (A) (A) (A) (A) (A) (A) (A) (A)
                 (A) (A) (A) (A) (A) (A) (A) (A) (A) (A) (A) (A)
                 (A) (A) (A) (A) (A) (A) (A) (A) (A) (A) (A) (A)
                 (A) (A) (A) (A) (A) (A) (A) (A) (A) (A) (A) (A)
 The electronic state is 1-A.
 Alpha  occ. eigenvalues --  -11.22114 -11.22057 -11.21392 -11.21338 -11.21253
 Alpha  occ. eigenvalues --  -11.21248 -11.20829 -11.20829  -1.11925  -1.03046
 Alpha  occ. eigenvalues --   -1.01807  -0.93464  -0.89219  -0.80999  -0.78925
 Alpha  occ. eigenvalues --   -0.74480  -0.62621  -0.60936  -0.60459  -0.59126
 Alpha  occ. eigenvalues --   -0.58499  -0.54424  -0.53039  -0.51453  -0.50686
 Alpha  occ. eigenvalues --   -0.50240  -0.47837  -0.46815  -0.46248  -0.44316
 Alpha  occ. eigenvalues --   -0.41665  -0.41634
 Alpha virt. eigenvalues --    0.14338   0.15216   0.15475   0.16098   0.19389
 Alpha virt. eigenvalues --    0.19844   0.20733   0.20854   0.22291   0.22984
 Alpha virt. eigenvalues --    0.23225   0.24252   0.24357   0.26729   0.26729
 Alpha virt. eigenvalues --    0.28176   0.30486   0.32273   0.32637   0.34870
 Alpha virt. eigenvalues --    0.36235   0.36606   0.37505   0.39149   0.42677
 Alpha virt. eigenvalues --    0.43359   0.43602   0.45159   0.45365   0.47548
 Alpha virt. eigenvalues --    0.48423   0.48668   0.52136   0.52777   0.54167
 Alpha virt. eigenvalues --    0.55530   0.57642   0.59368   0.60002   0.60209
 Alpha virt. eigenvalues --    0.60681   0.61309   0.62177   0.62914   0.63088
 Alpha virt. eigenvalues --    0.63730   0.64207   0.64829   0.64931   0.65164
 Alpha virt. eigenvalues --    0.66910   0.67477   0.68742   0.69165   0.69189
 Alpha virt. eigenvalues --    0.69556   0.69971   0.71340   0.72497   0.72682
 Alpha virt. eigenvalues --    0.74428   0.75779   0.81899   0.82450   0.83244
 Alpha virt. eigenvalues --    0.87959   0.88858   0.88911   0.90919   0.94463
 Alpha virt. eigenvalues --    0.95675   0.97261   0.98868   1.00022   1.00518
 Alpha virt. eigenvalues --    1.04625   1.05333   1.05939   1.05981   1.08240
 Alpha virt. eigenvalues --    1.08606   1.10846   1.11018   1.12240   1.12270
 Alpha virt. eigenvalues --    1.15364   1.17072   1.20827   1.21476   1.22679
 Alpha virt. eigenvalues --    1.24417   1.25251   1.26007   1.26318   1.26559
 Alpha virt. eigenvalues --    1.27880   1.28496   1.30819   1.30976   1.31886
 Alpha virt. eigenvalues --    1.33010   1.33709   1.34843   1.35154   1.36920
 Alpha virt. eigenvalues --    1.37553   1.37718   1.38589   1.40554   1.41162
 Alpha virt. eigenvalues --    1.44242   1.44599   1.46509   1.46511   1.47849
 Alpha virt. eigenvalues --    1.48098   1.49315   1.50748   1.51128   1.51891
 Alpha virt. eigenvalues --    1.52536   1.54217   1.56197   1.56375   1.56402
 Alpha virt. eigenvalues --    1.57689   1.58811   1.60277   1.61600   1.63604
 Alpha virt. eigenvalues --    1.64632   1.64875   1.66353   1.67376   1.67547
 Alpha virt. eigenvalues --    1.68376   1.69765   1.72135   1.73505   1.73918
 Alpha virt. eigenvalues --    1.74221   1.77471   1.80423   1.81296   1.81873
 Alpha virt. eigenvalues --    1.83301   1.87148   1.87877   1.88919   1.89997
 Alpha virt. eigenvalues --    1.91277   1.92080   1.93829   1.94228   2.01359
 Alpha virt. eigenvalues --    2.04925   2.06474   2.10253   2.12506   2.14137
 Alpha virt. eigenvalues --    2.56511   2.56805   2.57627   2.62093   2.62935
 Alpha virt. eigenvalues --    2.63921   2.67931   2.69156   2.72330   2.74365
 Alpha virt. eigenvalues --    2.76459   2.77472   2.80123   2.80576   2.82776
 Alpha virt. eigenvalues --    2.83087   2.83972   2.85276   2.87976   2.88542
 Alpha virt. eigenvalues --    2.90642   2.90652   2.92331   2.93040   2.93514
 Alpha virt. eigenvalues --    2.94666   2.95424   2.97916   2.99165   2.99704
 Alpha virt. eigenvalues --    3.01207   3.01780   3.03966   3.04199   3.06443
 Alpha virt. eigenvalues --    3.08059   3.08567   3.11384   3.12035   3.13339
 Alpha virt. eigenvalues --    3.14042   3.16035   3.17625   3.17972   3.19413
 Alpha virt. eigenvalues --    3.20894   3.22037   3.22773   3.24586   3.26176
 Alpha virt. eigenvalues --    3.26765   3.27658   3.29807   3.30402   3.32825
 Alpha virt. eigenvalues --    3.34467   3.36284   3.37408   3.37584   3.37634
 Alpha virt. eigenvalues --    3.37980   3.39788   3.41462   3.42350   3.42865
 Alpha virt. eigenvalues --    3.44239   3.45230   3.46400   3.46737   3.47717
 Alpha virt. eigenvalues --    3.48367   3.48462   3.49546   3.50230   3.51719
 Alpha virt. eigenvalues --    3.53272   3.54029   3.55124   3.55867   3.57529
 Alpha virt. eigenvalues --    3.58098   3.58938   3.59221   3.60132   3.62238
 Alpha virt. eigenvalues --    3.65548   3.65867   3.67911   3.69616   3.69676
 Alpha virt. eigenvalues --    3.72269   3.72667   3.73138   3.75085   3.76229
 Alpha virt. eigenvalues --    3.76295   3.77012   3.78329   3.79638   3.79881
 Alpha virt. eigenvalues --    3.80422   3.81455   3.81666   3.84656   3.85167
 Alpha virt. eigenvalues --    3.87930   3.91698   3.92221   3.92278   3.93155
 Alpha virt. eigenvalues --    3.93658   3.95730   3.97380   3.97399   3.98216
 Alpha virt. eigenvalues --    3.99347   4.01131   4.02092   4.02395   4.05790
 Alpha virt. eigenvalues --    4.06100   4.06980   4.09231   4.09434   4.09559
 Alpha virt. eigenvalues --    4.10943   4.12636   4.12760   4.16758   4.17354
 Alpha virt. eigenvalues --    4.19206   4.21170   4.21637   4.21914   4.23839
 Alpha virt. eigenvalues --    4.26155   4.27675   4.27979   4.28269   4.30078
 Alpha virt. eigenvalues --    4.31192   4.32082   4.33866   4.34036   4.35241
 Alpha virt. eigenvalues --    4.36354   4.38006   4.38084   4.38635   4.39087
 Alpha virt. eigenvalues --    4.39535   4.41432   4.42722   4.43379   4.44984
 Alpha virt. eigenvalues --    4.46225   4.47980   4.48826   4.49413   4.50851
 Alpha virt. eigenvalues --    4.53257   4.54512   4.54732   4.55586   4.56324
 Alpha virt. eigenvalues --    4.56806   4.56966   4.57367   4.59111   4.59418
 Alpha virt. eigenvalues --    4.61562   4.62517   4.63537   4.63802   4.66666
 Alpha virt. eigenvalues --    4.66950   4.71147   4.73090   4.75021   4.76130
 Alpha virt. eigenvalues --    4.76904   4.78987   4.81187   4.83233   4.83573
 Alpha virt. eigenvalues --    4.86920   4.87369   4.88439   4.91495   4.94542
 Alpha virt. eigenvalues --    4.97238   4.99053   5.01029   5.04622   5.06041
 Alpha virt. eigenvalues --    5.06498   5.07510   5.08003   5.09319   5.11774
 Alpha virt. eigenvalues --    5.14395   5.15396   5.17723   5.21749   5.22271
 Alpha virt. eigenvalues --    5.22844   5.23708   5.24858   5.25410   5.26926
 Alpha virt. eigenvalues --    5.27857   5.32563   5.35030   5.35794   5.36578
 Alpha virt. eigenvalues --    5.37161   5.37889   5.41087   5.41871   5.42596
 Alpha virt. eigenvalues --    5.43867   5.47213   5.47886   5.50827   5.52945
 Alpha virt. eigenvalues --    5.55185   5.56024   5.58438   5.59168   5.62429
 Alpha virt. eigenvalues --    5.62663   5.64328   5.65179   5.69830   5.72952
 Alpha virt. eigenvalues --    5.74363   5.74861   5.76256   5.77820   5.79130
 Alpha virt. eigenvalues --    5.79573   5.82050   5.84981   5.85261   5.86889
 Alpha virt. eigenvalues --    5.88193   5.89815   5.91901   5.92795   5.97348
 Alpha virt. eigenvalues --    5.98422   6.01640   6.12616   6.15823   6.26617
 Alpha virt. eigenvalues --    6.27825   6.31140   6.32606   6.35683   6.38581
 Alpha virt. eigenvalues --    6.41576   6.41789   6.49261   6.50766  11.83023
 Alpha virt. eigenvalues --   12.82601  12.91509  13.52391  13.64845  13.65465
 Alpha virt. eigenvalues --   14.14537  14.37469
          Condensed to atoms (all electrons):
              1          2          3          4          5          6
     1  C    4.861755   0.346869  -0.043335  -0.000780  -0.040066   0.354213
     2  C    0.346869   4.861755   0.354214  -0.040066  -0.000780  -0.043331
     3  C   -0.043335   0.354214   4.888598   0.353643  -0.042254  -0.000580
     4  C   -0.000780  -0.040066   0.353643   4.930171   0.355246  -0.042253
     5  C   -0.040066  -0.000780  -0.042254   0.355246   4.930172   0.353644
     6  C    0.354213  -0.043331  -0.000580  -0.042253   0.353644   4.888597
     7  C   -0.000365   0.004751  -0.055615   0.360984  -0.048979   0.004555
     8  C    0.004751  -0.000365   0.004555  -0.048979   0.360984  -0.055615
     9  H   -0.002323  -0.037856   0.415189  -0.038040  -0.002814   0.000218
    10  H    0.006328  -0.036139   0.435091  -0.037691   0.006437  -0.000983
    11  H   -0.000194  -0.002497  -0.035211   0.411773  -0.034230  -0.002103
    12  H   -0.002497  -0.000194  -0.002103  -0.034230   0.411772  -0.035212
    13  H   -0.036921   0.437965  -0.037735   0.006353  -0.000932   0.006381
    14  H   -0.039877   0.422492  -0.040044  -0.001787   0.000007  -0.001591
    15  H   -0.037859  -0.002322   0.000218  -0.002814  -0.038040   0.415188
    16  H   -0.036137   0.006328  -0.000983   0.006437  -0.037691   0.435093
    17  H    0.437965  -0.036923   0.006382  -0.000932   0.006354  -0.037737
    18  H    0.422492  -0.039877  -0.001592   0.000007  -0.001787  -0.040048
    19  H   -0.000009   0.000200  -0.007046  -0.037147   0.006712  -0.000272
    20  H   -0.000088  -0.000011  -0.003117  -0.042879  -0.002497   0.000235
    21  H    0.000014  -0.000259   0.007264  -0.034112  -0.004543  -0.000163
    22  H    0.000200  -0.000009  -0.000272   0.006712  -0.037147  -0.007046
    23  H   -0.000011  -0.000088   0.000235  -0.002497  -0.042880  -0.003117
    24  H   -0.000259   0.000014  -0.000163  -0.004543  -0.034113   0.007264
              7          8          9         10         11         12
     1  C   -0.000365   0.004751  -0.002323   0.006328  -0.000194  -0.002497
     2  C    0.004751  -0.000365  -0.037856  -0.036139  -0.002497  -0.000194
     3  C   -0.055615   0.004555   0.415189   0.435091  -0.035211  -0.002103
     4  C    0.360984  -0.048979  -0.038040  -0.037691   0.411773  -0.034230
     5  C   -0.048979   0.360984  -0.002814   0.006437  -0.034230   0.411772
     6  C    0.004555  -0.055615   0.000218  -0.000983  -0.002103  -0.035212
     7  C    4.847019  -0.005099  -0.003401  -0.006847  -0.033995  -0.003792
     8  C   -0.005099   4.847018  -0.000032  -0.000287  -0.003792  -0.033994
     9  H   -0.003401  -0.000032   0.599899  -0.030899   0.007150   0.002387
    10  H   -0.006847  -0.000287  -0.030899   0.572766  -0.004580  -0.000163
    11  H   -0.033995  -0.003792   0.007150  -0.004580   0.590972   0.007186
    12  H   -0.003792  -0.033994   0.002387  -0.000163   0.007186   0.590972
    13  H   -0.000284   0.000065  -0.004845  -0.005048  -0.000096  -0.000151
    14  H   -0.000005  -0.000056   0.006979  -0.004794   0.001547   0.000043
    15  H   -0.000032  -0.003401   0.000064  -0.000118   0.002387   0.007150
    16  H   -0.000287  -0.006847  -0.000118   0.000107  -0.000163  -0.004580
    17  H    0.000065  -0.000284  -0.000118  -0.000292  -0.000151  -0.000096
    18  H   -0.000056  -0.000005   0.001638  -0.000107   0.000043   0.001547
    19  H    0.424301   0.000033  -0.000130   0.002416  -0.004285  -0.000181
    20  H    0.414529  -0.000482   0.001657   0.000183   0.006981   0.002458
    21  H    0.425891  -0.002016  -0.000020  -0.000069  -0.004888   0.000150
    22  H    0.000033   0.424301   0.000008   0.000019  -0.000181  -0.004284
    23  H   -0.000482   0.414530  -0.000018  -0.000005   0.002458   0.006981
    24  H   -0.002016   0.425891  -0.000007  -0.000005   0.000150  -0.004888
             13         14         15         16         17         18
     1  C   -0.036921  -0.039877  -0.037859  -0.036137   0.437965   0.422492
     2  C    0.437965   0.422492  -0.002322   0.006328  -0.036923  -0.039877
     3  C   -0.037735  -0.040044   0.000218  -0.000983   0.006382  -0.001592
     4  C    0.006353  -0.001787  -0.002814   0.006437  -0.000932   0.000007
     5  C   -0.000932   0.000007  -0.038040  -0.037691   0.006354  -0.001787
     6  C    0.006381  -0.001591   0.415188   0.435093  -0.037737  -0.040048
     7  C   -0.000284  -0.000005  -0.000032  -0.000287   0.000065  -0.000056
     8  C    0.000065  -0.000056  -0.003401  -0.006847  -0.000284  -0.000005
     9  H   -0.004845   0.006979   0.000064  -0.000118  -0.000118   0.001638
    10  H   -0.005048  -0.004794  -0.000118   0.000107  -0.000292  -0.000107
    11  H   -0.000096   0.001547   0.002387  -0.000163  -0.000151   0.000043
    12  H   -0.000151   0.000043   0.007150  -0.004580  -0.000096   0.001547
    13  H    0.569777  -0.031772  -0.000118  -0.000292  -0.004582  -0.004896
    14  H   -0.031772   0.599321   0.001638  -0.000107  -0.004896   0.006925
    15  H   -0.000118   0.001638   0.599908  -0.030901  -0.004846   0.006980
    16  H   -0.000292  -0.000107  -0.030901   0.572765  -0.005049  -0.004795
    17  H   -0.004582  -0.004896  -0.004846  -0.005049   0.569784  -0.031771
    18  H   -0.004896   0.006925   0.006980  -0.004795  -0.031771   0.599327
    19  H   -0.000033   0.000018   0.000008   0.000019  -0.000002   0.000007
    20  H    0.000005  -0.000028  -0.000018  -0.000005  -0.000003  -0.000019
    21  H    0.000017   0.000010  -0.000007  -0.000005  -0.000002   0.000005
    22  H   -0.000002   0.000007  -0.000130   0.002417  -0.000033   0.000018
    23  H   -0.000003  -0.000019   0.001657   0.000183   0.000005  -0.000028
    24  H   -0.000002   0.000005  -0.000020  -0.000069   0.000017   0.000010
             19         20         21         22         23         24
     1  C   -0.000009  -0.000088   0.000014   0.000200  -0.000011  -0.000259
     2  C    0.000200  -0.000011  -0.000259  -0.000009  -0.000088   0.000014
     3  C   -0.007046  -0.003117   0.007264  -0.000272   0.000235  -0.000163
     4  C   -0.037147  -0.042879  -0.034112   0.006712  -0.002497  -0.004543
     5  C    0.006712  -0.002497  -0.004543  -0.037147  -0.042880  -0.034113
     6  C   -0.000272   0.000235  -0.000163  -0.007046  -0.003117   0.007264
     7  C    0.424301   0.414529   0.425891   0.000033  -0.000482  -0.002016
     8  C    0.000033  -0.000482  -0.002016   0.424301   0.414530   0.425891
     9  H   -0.000130   0.001657  -0.000020   0.000008  -0.000018  -0.000007
    10  H    0.002416   0.000183  -0.000069   0.000019  -0.000005  -0.000005
    11  H   -0.004285   0.006981  -0.004888  -0.000181   0.002458   0.000150
    12  H   -0.000181   0.002458   0.000150  -0.004284   0.006981  -0.004888
    13  H   -0.000033   0.000005   0.000017  -0.000002  -0.000003  -0.000002
    14  H    0.000018  -0.000028   0.000010   0.000007  -0.000019   0.000005
    15  H    0.000008  -0.000018  -0.000007  -0.000130   0.001657  -0.000020
    16  H    0.000019  -0.000005  -0.000005   0.002417   0.000183  -0.000069
    17  H   -0.000002  -0.000003  -0.000002  -0.000033   0.000005   0.000017
    18  H    0.000007  -0.000019   0.000005   0.000018  -0.000028   0.000010
    19  H    0.575513  -0.029717  -0.031352   0.000036  -0.000087   0.000137
    20  H   -0.029717   0.594889  -0.031732  -0.000087   0.000143   0.000296
    21  H   -0.031352  -0.031732   0.576200   0.000137   0.000296  -0.004339
    22  H    0.000036  -0.000087   0.000137   0.575514  -0.029717  -0.031352
    23  H   -0.000087   0.000143   0.000296  -0.029717   0.594888  -0.031732
    24  H    0.000137   0.000296  -0.004339  -0.031352  -0.031732   0.576200
 Mulliken atomic charges:
              1
     1  C   -0.193866
     2  C   -0.193870
     3  C   -0.195340
     4  C   -0.062574
     5  C   -0.062574
     6  C   -0.195336
     7  C   -0.320872
     8  C   -0.320872
     9  H    0.085434
    10  H    0.104678
    11  H    0.095718
    12  H    0.095718
    13  H    0.107150
    14  H    0.085986
    15  H    0.085431
    16  H    0.104679
    17  H    0.107146
    18  H    0.085984
    19  H    0.100860
    20  H    0.089306
    21  H    0.103524
    22  H    0.100859
    23  H    0.089306
    24  H    0.103524
 Sum of Mulliken atomic charges =   0.00000
 Mulliken charges with hydrogens summed into heavy atoms:
              1
     1  C   -0.000735
     2  C   -0.000734
     3  C   -0.005227
     4  C    0.033144
     5  C    0.033144
     6  C   -0.005227
     7  C   -0.027182
     8  C   -0.027183
 Sum of Mulliken charges with hydrogens summed into heavy atoms =   0.00000
 Electronic spatial extent (au):  <R**2>=           1115.6979
 Charge=              0.0000 electrons
 Dipole moment (field-independent basis, Debye):
    X=              0.0813    Y=              0.0000    Z=              0.0000  Tot=              0.0813
 Quadrupole moment (field-independent basis, Debye-Ang):
   XX=            -54.9539   YY=            -54.7047   ZZ=            -53.5372
   XY=              0.0001   XZ=              0.0001   YZ=              0.3266
 Traceless Quadrupole moment (field-independent basis, Debye-Ang):
   XX=             -0.5553   YY=             -0.3061   ZZ=              0.8614
   XY=              0.0001   XZ=              0.0001   YZ=              0.3266
 Octapole moment (field-independent basis, Debye-Ang**2):
  XXX=              1.2310  YYY=             -0.0002  ZZZ=              0.0000  XYY=              1.6577
  XXY=              0.0002  XXZ=              0.0002  XZZ=              0.1163  YZZ=              0.0001
  YYZ=              0.0000  XYZ=             -0.8154
 Hexadecapole moment (field-independent basis, Debye-Ang**3):
 XXXX=           -831.7602 YYYY=           -606.7824 ZZZZ=           -132.3623 XXXY=              0.0008
 XXXZ=              0.0005 YYYX=              0.0002 YYYZ=              9.3126 ZZZX=              0.0001
 ZZZY=             -1.7380 XXYY=           -246.8983 XXZZ=           -162.6015 YYZZ=           -125.2742
 XXYZ=             -1.2201 YYXZ=              0.0001 ZZXY=              0.0000
 N-N= 4.095325988304D+02 E-N=-1.544951798477D+03  KE= 3.118263553542D+02
 1\1\GINC-ROCK\SP\RMP2-FC\CC-pVTZ\C8H16\STYLIANAKIS\15-Feb-2016\0\\# mp
 2/cc-pVTZ\\trans1-2dimethylcycloh-eq-eq_single_point\\0,1\C\C,1,1.5346
 97\C,2,1.53443,1,111.041\C,3,1.542614,2,113.002,1,55.052,0\C,4,1.55113
 2,3,110.738,2,-54.516,0\C,5,1.542615,4,110.738,3,53.073,0\C,4,1.536282
 ,3,110.232,2,179.554,0\C,5,1.536279,4,113.108,3,177.378,0\H,3,1.10109,
 4,108.69,5,66.899,0\H,3,1.097933,4,109.322,5,-177.524,0\H,4,1.103045,3
 ,107.558,2,62.136,0\H,5,1.103045,4,107.046,3,-63.894,0\H,2,1.09727,3,1
 10.19,4,177.833,0\H,2,1.09993,3,109.265,4,-65.468,0\H,6,1.10109,5,108.
 69,4,66.9,0\H,6,1.097934,5,109.322,4,-177.524,0\H,1,1.097272,2,110.509
 ,3,-176.734,0\H,1,1.09993,2,109.207,3,66.417,0\H,7,1.096193,4,110.638,
 3,-52.444,0\H,7,1.097775,4,110.882,3,66.738,0\H,7,1.093971,4,112.4,3,-
 172.506,0\H,8,1.096194,5,110.638,4,-177.023,0\H,8,1.097775,5,110.882,4
 ,-57.841,0\H,8,1.093971,5,112.4,4,62.915,0\\Version=EM64L-G09RevA.01\S
 tate=1-A\HF=-312.3793572\MP2=-313.7783828\RMSD=4.132e-09\PG=C01 [X(C8H
 16)]\\@


 The most important thing in communication is to hear what isn't being said.
 -- Peter F. Drucker
 Job cpu time:  0 days  2 hours 58 minutes 36.3 seconds.
 File lengths (MBytes):  RWF=    118 Int=      0 D2E=      0 Chk=     10 Scr=      1
 Normal termination of Gaussian 09 at Mon Feb 15 01:47:53 2016.
