 Entering Gaussian System, Link 0=g09
 Input=trans1-2difluorocycloh-ax-ax.gjf
 Output=trans1-2difluorocycloh-ax-ax.out
 Initial command:
 /usr/local/g09/l1.exe /home/scratch/stylianakis/Gau-22282.inp -scrdir=/home/scratch/stylianakis/
 Entering Link 1 = /usr/local/g09/l1.exe PID=     22283.
  
 Copyright (c) 1988,1990,1992,1993,1995,1998,2003,2009, Gaussian, Inc.
                  All Rights Reserved.
  
 This is part of the Gaussian(R) 09 program.  It is based on
 the Gaussian(R) 03 system (copyright 2003, Gaussian, Inc.),
 the Gaussian(R) 98 system (copyright 1998, Gaussian, Inc.),
 the Gaussian(R) 94 system (copyright 1995, Gaussian, Inc.),
 the Gaussian 92(TM) system (copyright 1992, Gaussian, Inc.),
 the Gaussian 90(TM) system (copyright 1990, Gaussian, Inc.),
 the Gaussian 88(TM) system (copyright 1988, Gaussian, Inc.),
 the Gaussian 86(TM) system (copyright 1986, Carnegie Mellon
 University), and the Gaussian 82(TM) system (copyright 1983,
 Carnegie Mellon University). Gaussian is a federally registered
 trademark of Gaussian, Inc.
  
 This software contains proprietary and confidential information,
 including trade secrets, belonging to Gaussian, Inc.
  
 This software is provided under written license and may be
 used, copied, transmitted, or stored only in accord with that
 written license.
  
 The following legend is applicable only to US Government
 contracts under FAR:
  
                    RESTRICTED RIGHTS LEGEND
  
 Use, reproduction and disclosure by the US Government is
 subject to restrictions as set forth in subparagraphs (a)
 and (c) of the Commercial Computer Software - Restricted
 Rights clause in FAR 52.227-19.
  
 Gaussian, Inc.
 340 Quinnipiac St., Bldg. 40, Wallingford CT 06492
  
  
 ---------------------------------------------------------------
 Warning -- This program may not be used in any manner that
 competes with the business of Gaussian, Inc. or will provide
 assistance to any competitor of Gaussian, Inc.  The licensee
 of this program is prohibited from giving any competitor of
 Gaussian, Inc. access to this program.  By using this program,
 the user acknowledges that Gaussian, Inc. is engaged in the
 business of creating and licensing software in the field of
 computational chemistry and represents and warrants to the
 licensee that it is not a competitor of Gaussian, Inc. and that
 it will not use this program in any manner prohibited above.
 ---------------------------------------------------------------
  

 Cite this work as:
 Gaussian 09, Revision A.01,
 M. J. Frisch, G. W. Trucks, H. B. Schlegel, G. E. Scuseria, 
 M. A. Robb, J. R. Cheeseman, G. Scalmani, V. Barone, B. Mennucci, 
 G. A. Petersson, H. Nakatsuji, M. Caricato, X. Li, H. P. Hratchian, 
 A. F. Izmaylov, J. Bloino, G. Zheng, J. L. Sonnenberg, M. Hada, 
 M. Ehara, K. Toyota, R. Fukuda, J. Hasegawa, M. Ishida, T. Nakajima, 
 Y. Honda, O. Kitao, H. Nakai, T. Vreven, J. A. Montgomery, Jr., 
 J. E. Peralta, F. Ogliaro, M. Bearpark, J. J. Heyd, E. Brothers, 
 K. N. Kudin, V. N. Staroverov, R. Kobayashi, J. Normand, 
 K. Raghavachari, A. Rendell, J. C. Burant, S. S. Iyengar, J. Tomasi, 
 M. Cossi, N. Rega, J. M. Millam, M. Klene, J. E. Knox, J. B. Cross, 
 V. Bakken, C. Adamo, J. Jaramillo, R. Gomperts, R. E. Stratmann, 
 O. Yazyev, A. J. Austin, R. Cammi, C. Pomelli, J. W. Ochterski, 
 R. L. Martin, K. Morokuma, V. G. Zakrzewski, G. A. Voth, 
 P. Salvador, J. J. Dannenberg, S. Dapprich, A. D. Daniels, 
 O. Farkas, J. B. Foresman, J. V. Ortiz, J. Cioslowski, 
 and D. J. Fox, Gaussian, Inc., Wallingford CT, 2009.
 
 ******************************************
 Gaussian 09:  EM64L-G09RevA.01  8-May-2009
                14-Feb-2016 
 ******************************************
 %mem=8000Mb
 %nproc=4
 Will use up to    4 processors via shared memory.
 -------------
 # mp2/cc-pVTZ
 -------------
 1/38=1/1;
 2/12=2,17=6,18=5,40=1/2;
 3/5=16,6=1,11=9,16=1,25=1,30=1/1,2,3;
 4//1;
 5/5=2,38=5/2;
 8/10=1/1;
 9/16=-3/6;
 6/7=2,8=2,9=2,10=2/1;
 99/5=1,9=1/99;
 -----------------------------------------
 trans1-2difluorocycloh-ax-ax_single_point
 -----------------------------------------
 Symbolic Z-matrix:
 Charge =  0 Multiplicity = 1
 c
 c                    1    cc2
 c                    2    cc3      1    ccc3
 c                    3    cc4      2    ccc4     1    dih4     0
 c                    4    cc5      3    ccc5     2    dih5     0
 c                    5    cc6      4    ccc6     3    dih6     0
 f                    4    fc7      3    fcc7     2    dih7     0
 f                    5    fc8      4    fcc8     3    dih8     0
 h                    3    hc9      4    hcc9     5    dih9     0
 h                    3    hc10     4    hcc10    5    dih10    0
 h                    4    hc11     3    hcc11    2    dih11    0
 h                    5    hc12     4    hcc12    3    dih12    0
 h                    2    hc13     3    hcc13    4    dih13    0
 h                    2    hc14     3    hcc14    4    dih14    0
 h                    6    hc15     5    hcc15    4    dih15    0
 h                    6    hc16     5    hcc16    4    dih16    0
 h                    1    hc17     2    hcc17    3    dih17    0
 h                    1    hc18     2    hcc18    3    dih18    0
       Variables:
  cc2                   1.53727                  
  cc3                   1.5377                   
  ccc3                111.204                    
  cc4                   1.5222                   
  ccc4                112.372                    
  dih4                 54.083                    
  cc5                   1.53279                  
  ccc5                113.281                    
  dih5                -50.403                    
  cc6                   1.52219                  
  ccc6                113.28                     
  dih6                 48.66                     
  fc7                   1.41885                  
  fcc7                109.347                    
  dih7                 67.733                    
  fc8                   1.41886                  
  fcc8                106.127                    
  dih8                -71.328                    
  hc9                   1.09567                  
  hcc9                108.653                    
  dih9               -174.054                    
  hc10                  1.09774                  
  hcc10               107.237                    
  dih10                70.507                    
  hc11                  1.09467                  
  hcc11               111.591                    
  dih11              -174.838                    
  hc12                  1.09467                  
  hcc12               109.727                    
  dih12               174.102                    
  hc13                  1.09738                  
  hcc13               109.296                    
  dih13               -67.104                    
  hc14                  1.09592                  
  hcc14               109.51                     
  dih14               176.287                    
  hc15                  1.09567                  
  hcc15               108.652                    
  dih15              -174.054                    
  hc16                  1.09774                  
  hcc16               107.236                    
  dih16                70.508                    
  hc17                  1.09738                  
  hcc17               109.64                     
  dih17                65.308                    
  hc18                  1.09593                  
  hcc18               110.336                    
  dih18              -177.402                    
 
                          Input orientation:                          
 ---------------------------------------------------------------------
 Center     Atomic      Atomic             Coordinates (Angstroms)
 Number     Number       Type             X           Y           Z
 ---------------------------------------------------------------------
      1          6           0        0.000000    0.000000    0.000000
      2          6           0        0.000000    0.000000    1.537270
      3          6           0        1.433594    0.000000    2.093439
      4          6           0        2.272403    1.139990    1.533167
      5          6           0        2.222815    1.233901    0.004059
      6          6           0        0.808354    1.183991   -0.556194
      7          9           0        1.772157    2.375135    2.020311
      8          9           0        2.960757    0.124265   -0.483083
      9          1           0        1.436843    0.067160    3.187046
     10          1           0        1.938660   -0.937304    1.826229
     11          1           0        3.313299    1.075457    1.865834
     12          1           0        2.756484    2.129907   -0.328601
     13          1           0       -0.532064    0.886050    1.906137
     14          1           0       -0.540346   -0.874078    1.918139
     15          1           0        0.865654    1.148806   -1.649799
     16          1           0        0.319104    2.129646   -0.288983
     17          1           0        0.431750   -0.939038   -0.368839
     18          1           0       -1.026562    0.046580   -0.380862
 ---------------------------------------------------------------------
                    Distance matrix (angstroms):
                    1          2          3          4          5
     1  C    0.000000
     2  C    1.537270   0.000000
     3  C    2.537258   1.537698   0.000000
     4  C    2.968837   2.542324   1.522197   0.000000
     5  C    2.542329   2.968864   2.551645   1.532791   0.000000
     6  C    1.537733   2.537294   2.968723   2.551628   1.522194
     7  F    3.586567   3.002521   2.400258   1.418852   2.360250
     8  F    3.002481   3.586551   2.997689   2.360252   1.418858
     9  H    3.496612   2.188787   1.095672   2.141131   3.480007
    10  H    2.823482   2.172657   1.097740   2.124246   2.848715
    11  H    3.951695   3.498930   2.177545   1.094667   2.163439
    12  H    3.498956   3.951732   3.486090   2.163435   1.094666
    13  H    2.168302   1.097378   2.164249   2.840533   3.365748
    14  H    2.176062   1.095923   2.165913   3.480837   3.967661
    15  H    2.188824   3.496645   3.956532   3.479985   2.141115
    16  H    2.172724   2.823547   3.384289   2.848689   2.124229
    17  H    1.097380   2.168284   2.819273   3.365707   2.840533
    18  H    1.095927   2.176058   3.489514   3.967647   3.480855
                    6          7          8          9         10
     6  C    0.000000
     7  F    2.997685   0.000000
     8  F    2.400251   3.570178   0.000000
     9  H    3.956534   2.607769   3.974346   0.000000
    10  H    3.384291   3.322296   2.739440   1.764254   0.000000
    11  H    3.486079   2.021917   2.558606   2.506662   2.437706
    12  H    2.177560   2.558598   2.021929   4.284409   3.836655
    13  H    2.819319   2.745878   4.299824   2.487550   3.071723
    14  H    3.489551   3.989423   4.361224   2.530875   2.481514
    15  H    1.095671   3.974335   2.607751   4.989118   4.193563
    16  H    1.097738   2.739428   3.322282   4.193563   4.062421
    17  H    2.164298   4.299822   2.745822   3.829748   2.662537
    18  H    2.165956   4.361265   3.989386   4.335754   3.825156
                   11         12         13         14         15
    11  H    0.000000
    12  H    2.497490   0.000000
    13  H    3.850236   4.166027   0.000000
    14  H    4.319028   4.994082   1.760188   0.000000
    15  H    4.284393   2.506664   3.829796   4.335791   0.000000
    16  H    3.836633   2.437702   2.662624   3.825232   1.764252
    17  H    4.165967   3.850251   3.071709   2.485853   2.487614
    18  H    4.994059   4.319077   2.485880   2.523772   2.530927
                   16         17         18
    16  H    0.000000
    17  H    3.071788   0.000000
    18  H    2.481617   1.760188   0.000000
 Stoichiometry    C6H10F2
 Framework group  C1[X(C6H10F2)]
 Deg. of freedom    48
 Full point group                 C1      NOp   1
 Largest Abelian subgroup         C1      NOp   1
 Largest concise Abelian subgroup C1      NOp   1
                         Standard orientation:                         
 ---------------------------------------------------------------------
 Center     Atomic      Atomic             Coordinates (Angstroms)
 Number     Number       Type             X           Y           Z
 ---------------------------------------------------------------------
      1          6           0        1.625196   -0.745810    0.186932
      2          6           0        1.625440    0.745316   -0.186889
      3          6           0        0.357829    1.122201   -0.971513
      4          6           0       -0.916328    0.728830   -0.237437
      5          6           0       -0.916573   -0.728554    0.237411
      6          6           0        0.357425   -1.122306    0.971553
      7          9           0       -1.050649    1.523772    0.930110
      8          9           0       -1.051048   -1.523455   -0.930154
      9          1           0        0.323769    2.197059   -1.181316
     10          1           0        0.348845    0.604111   -1.939261
     11          1           0       -1.806585    0.919578   -0.845181
     12          1           0       -1.806934   -0.919020    0.845090
     13          1           0        1.682247    1.354047    0.724405
     14          1           0        2.511473    0.988017   -0.784458
     15          1           0        0.323011   -2.197152    1.181353
     16          1           0        0.348523   -0.604213    1.939298
     17          1           0        1.681837   -1.354536   -0.724379
     18          1           0        2.511154   -0.988794    0.784505
 ---------------------------------------------------------------------
 Rotational constants (GHZ):      2.2571061      2.1578874      1.5929665
 Standard basis: CC-pVTZ (5D, 7F)
 There are   380 symmetry adapted basis functions of A   symmetry.
 Integral buffers will be    131072 words long.
 Raffenetti 1 integral format.
 Two-electron integral symmetry is turned on.
   380 basis functions,   586 primitive gaussians,   430 cartesian basis functions
    32 alpha electrons       32 beta electrons
       nuclear repulsion energy       418.8936695965 Hartrees.
 NAtoms=   18 NActive=   18 NUniq=   18 SFac= 7.50D-01 NAtFMM=   80 NAOKFM=F Big=F
 One-electron integrals computed using PRISM.
 NBasis=   380 RedAO= T  NBF=   380
 NBsUse=   380 1.00D-06 NBFU=   380
 Harris functional with IExCor=  205 diagonalized for initial guess.
 ExpMin= 1.03D-01 ExpMax= 1.95D+04 ExpMxC= 6.65D+02 IAcc=1 IRadAn=         1 AccDes= 0.00D+00
 HarFok:  IExCor=  205 AccDes= 0.00D+00 IRadAn=         1 IDoV= 1
 ScaDFX=  1.000000  1.000000  1.000000  1.000000
 FoFCou: FMM=F IPFlag=           0 FMFlag=      100000 FMFlg1=           0
         NFxFlg=           0 DoJE=T BraDBF=F KetDBF=T FulRan=T
         Omega=  0.000000  0.000000  1.000000  0.000000  0.000000 ICntrl=     500 IOpCl=  0
         NMat0=    1 NMatS0=    1 NMatT0=    0 NMatD0=    1 NMtDS0=    0 NMtDT0=    0
         I1Cent=           4 NGrid=           0.
 Petite list used in FoFCou.
 Initial guess orbital symmetries:
       Occupied  (A) (A) (A) (A) (A) (A) (A) (A) (A) (A) (A) (A)
                 (A) (A) (A) (A) (A) (A) (A) (A) (A) (A) (A) (A)
                 (A) (A) (A) (A) (A) (A) (A) (A)
       Virtual   (A) (A) (A) (A) (A) (A) (A) (A) (A) (A) (A) (A)
                 (A) (A) (A) (A) (A) (A) (A) (A) (A) (A) (A) (A)
                 (A) (A) (A) (A) (A) (A) (A) (A) (A) (A) (A) (A)
                 (A) (A) (A) (A) (A) (A) (A) (A) (A) (A) (A) (A)
                 (A) (A) (A) (A) (A) (A) (A) (A) (A) (A) (A) (A)
                 (A) (A) (A) (A) (A) (A) (A) (A) (A) (A) (A) (A)
                 (A) (A) (A) (A) (A) (A) (A) (A) (A) (A) (A) (A)
                 (A) (A) (A) (A) (A) (A) (A) (A) (A) (A) (A) (A)
                 (A) (A) (A) (A) (A) (A) (A) (A) (A) (A) (A) (A)
                 (A) (A) (A) (A) (A) (A) (A) (A) (A) (A) (A) (A)
                 (A) (A) (A) (A) (A) (A) (A) (A) (A) (A) (A) (A)
                 (A) (A) (A) (A) (A) (A) (A) (A) (A) (A) (A) (A)
                 (A) (A) (A) (A) (A) (A) (A) (A) (A) (A) (A) (A)
                 (A) (A) (A) (A) (A) (A) (A) (A) (A) (A) (A) (A)
                 (A) (A) (A) (A) (A) (A) (A) (A) (A) (A) (A) (A)
                 (A) (A) (A) (A) (A) (A) (A) (A) (A) (A) (A) (A)
                 (A) (A) (A) (A) (A) (A) (A) (A) (A) (A) (A) (A)
                 (A) (A) (A) (A) (A) (A) (A) (A) (A) (A) (A) (A)
                 (A) (A) (A) (A) (A) (A) (A) (A) (A) (A) (A) (A)
                 (A) (A) (A) (A) (A) (A) (A) (A) (A) (A) (A) (A)
                 (A) (A) (A) (A) (A) (A) (A) (A) (A) (A) (A) (A)
                 (A) (A) (A) (A) (A) (A) (A) (A) (A) (A) (A) (A)
                 (A) (A) (A) (A) (A) (A) (A) (A) (A) (A) (A) (A)
                 (A) (A) (A) (A) (A) (A) (A) (A) (A) (A) (A) (A)
                 (A) (A) (A) (A) (A) (A) (A) (A) (A) (A) (A) (A)
                 (A) (A) (A) (A) (A) (A) (A) (A) (A) (A) (A) (A)
                 (A) (A) (A) (A) (A) (A) (A) (A) (A) (A) (A) (A)
                 (A) (A) (A) (A) (A) (A) (A) (A) (A) (A) (A) (A)
                 (A) (A) (A) (A) (A) (A) (A) (A) (A) (A) (A) (A)
 The electronic state of the initial guess is 1-A.
 Requested convergence on RMS density matrix=1.00D-08 within 128 cycles.
 Requested convergence on MAX density matrix=1.00D-06.
 Requested convergence on             energy=1.00D-06.
 No special actions if energy rises.
 Integral accuracy reduced to 1.0D-05 until final iterations.
 Initial convergence to 1.0D-05 achieved.  Increase integral accuracy.
 SCF Done:  E(RHF) =  -432.072337459     A.U. after   11 cycles
             Convg  =    0.8656D-08             -V/T =  2.0014
 ExpMin= 1.03D-01 ExpMax= 1.95D+04 ExpMxC= 6.65D+02 IAcc=1 IRadAn=         1 AccDes= 0.00D+00
 HarFok:  IExCor=  205 AccDes= 0.00D+00 IRadAn=         1 IDoV=-2
 ScaDFX=  1.000000  1.000000  1.000000  1.000000
 Range of M.O.s used for correlation:     9   380
 NBasis=   380 NAE=    32 NBE=    32 NFC=     8 NFV=     0
 NROrb=    372 NOA=    24 NOB=    24 NVA=   348 NVB=   348

 **** Warning!!: The largest alpha MO coefficient is  0.10633772D+02

 Fully direct method using O(OVN) memory.
 JobTyp=1 Pass  1:  I=   1 to  24 NPSUse=  4 ParTrn=T ParDer=T DoDerP=F.
 Spin components of T(2) and E(2):
     alpha-alpha T2 =       0.5098120334D-01 E2=     -0.1840444719D+00
     alpha-beta  T2 =       0.2991286322D+00 E2=     -0.1151049148D+01
     beta-beta   T2 =       0.5098120334D-01 E2=     -0.1840444719D+00
 ANorm=    0.1183676915D+01
 E2 =    -0.1519138092D+01 EUMP2 =    -0.43359147555108D+03

 **********************************************************************

            Population analysis using the SCF density.

 **********************************************************************

 Orbital symmetries:
       Occupied  (A) (A) (A) (A) (A) (A) (A) (A) (A) (A) (A) (A)
                 (A) (A) (A) (A) (A) (A) (A) (A) (A) (A) (A) (A)
                 (A) (A) (A) (A) (A) (A) (A) (A)
       Virtual   (A) (A) (A) (A) (A) (A) (A) (A) (A) (A) (A) (A)
                 (A) (A) (A) (A) (A) (A) (A) (A) (A) (A) (A) (A)
                 (A) (A) (A) (A) (A) (A) (A) (A) (A) (A) (A) (A)
                 (A) (A) (A) (A) (A) (A) (A) (A) (A) (A) (A) (A)
                 (A) (A) (A) (A) (A) (A) (A) (A) (A) (A) (A) (A)
                 (A) (A) (A) (A) (A) (A) (A) (A) (A) (A) (A) (A)
                 (A) (A) (A) (A) (A) (A) (A) (A) (A) (A) (A) (A)
                 (A) (A) (A) (A) (A) (A) (A) (A) (A) (A) (A) (A)
                 (A) (A) (A) (A) (A) (A) (A) (A) (A) (A) (A) (A)
                 (A) (A) (A) (A) (A) (A) (A) (A) (A) (A) (A) (A)
                 (A) (A) (A) (A) (A) (A) (A) (A) (A) (A) (A) (A)
                 (A) (A) (A) (A) (A) (A) (A) (A) (A) (A) (A) (A)
                 (A) (A) (A) (A) (A) (A) (A) (A) (A) (A) (A) (A)
                 (A) (A) (A) (A) (A) (A) (A) (A) (A) (A) (A) (A)
                 (A) (A) (A) (A) (A) (A) (A) (A) (A) (A) (A) (A)
                 (A) (A) (A) (A) (A) (A) (A) (A) (A) (A) (A) (A)
                 (A) (A) (A) (A) (A) (A) (A) (A) (A) (A) (A) (A)
                 (A) (A) (A) (A) (A) (A) (A) (A) (A) (A) (A) (A)
                 (A) (A) (A) (A) (A) (A) (A) (A) (A) (A) (A) (A)
                 (A) (A) (A) (A) (A) (A) (A) (A) (A) (A) (A) (A)
                 (A) (A) (A) (A) (A) (A) (A) (A) (A) (A) (A) (A)
                 (A) (A) (A) (A) (A) (A) (A) (A) (A) (A) (A) (A)
                 (A) (A) (A) (A) (A) (A) (A) (A) (A) (A) (A) (A)
                 (A) (A) (A) (A) (A) (A) (A) (A) (A) (A) (A) (A)
                 (A) (A) (A) (A) (A) (A) (A) (A) (A) (A) (A) (A)
                 (A) (A) (A) (A) (A) (A) (A) (A) (A) (A) (A) (A)
                 (A) (A) (A) (A) (A) (A) (A) (A) (A) (A) (A) (A)
                 (A) (A) (A) (A) (A) (A) (A) (A) (A) (A) (A) (A)
                 (A) (A) (A) (A) (A) (A) (A) (A) (A) (A) (A) (A)
 The electronic state is 1-A.
 Alpha  occ. eigenvalues --  -26.27493 -26.27493 -11.31842 -11.31780 -11.23359
 Alpha  occ. eigenvalues --  -11.23359 -11.22863 -11.22804  -1.58331  -1.57753
 Alpha  occ. eigenvalues --   -1.12250  -1.02376  -1.01408  -0.86016  -0.85530
 Alpha  occ. eigenvalues --   -0.76779  -0.72244  -0.69884  -0.69424  -0.67392
 Alpha  occ. eigenvalues --   -0.63302  -0.61679  -0.61200  -0.59991  -0.57532
 Alpha  occ. eigenvalues --   -0.53959  -0.52726  -0.51919  -0.51276  -0.47210
 Alpha  occ. eigenvalues --   -0.45058  -0.44658
 Alpha virt. eigenvalues --    0.13797   0.16086   0.16242   0.17554   0.19564
 Alpha virt. eigenvalues --    0.20051   0.21122   0.22225   0.22947   0.24558
 Alpha virt. eigenvalues --    0.25090   0.31132   0.31659   0.34154   0.34500
 Alpha virt. eigenvalues --    0.37302   0.38137   0.39420   0.40536   0.42542
 Alpha virt. eigenvalues --    0.43565   0.46140   0.48263   0.48625   0.49481
 Alpha virt. eigenvalues --    0.55463   0.57005   0.57580   0.58452   0.59426
 Alpha virt. eigenvalues --    0.59620   0.59985   0.60583   0.61218   0.61787
 Alpha virt. eigenvalues --    0.63506   0.64481   0.65146   0.66302   0.66794
 Alpha virt. eigenvalues --    0.67145   0.67721   0.68289   0.69298   0.73583
 Alpha virt. eigenvalues --    0.80832   0.82278   0.83341   0.83943   0.85519
 Alpha virt. eigenvalues --    0.86195   0.87172   0.90893   0.95743   0.96528
 Alpha virt. eigenvalues --    0.96731   1.02380   1.02533   1.05263   1.05889
 Alpha virt. eigenvalues --    1.09461   1.10127   1.11042   1.13012   1.13453
 Alpha virt. eigenvalues --    1.14753   1.18299   1.19458   1.19597   1.22040
 Alpha virt. eigenvalues --    1.24667   1.26014   1.27912   1.28725   1.29363
 Alpha virt. eigenvalues --    1.30378   1.30768   1.32020   1.33332   1.34671
 Alpha virt. eigenvalues --    1.35296   1.37520   1.38536   1.38597   1.41583
 Alpha virt. eigenvalues --    1.41778   1.45122   1.45165   1.45835   1.46332
 Alpha virt. eigenvalues --    1.48711   1.50822   1.52192   1.52487   1.58164
 Alpha virt. eigenvalues --    1.58230   1.59091   1.59897   1.60599   1.60656
 Alpha virt. eigenvalues --    1.62445   1.65861   1.67621   1.67805   1.69930
 Alpha virt. eigenvalues --    1.70986   1.73020   1.75358   1.75987   1.80744
 Alpha virt. eigenvalues --    1.85035   1.85508   1.86373   1.91728   1.93239
 Alpha virt. eigenvalues --    2.02189   2.02560   2.12904   2.24836   2.32006
 Alpha virt. eigenvalues --    2.36026   2.38305   2.39634   2.42393   2.48604
 Alpha virt. eigenvalues --    2.49343   2.56848   2.61219   2.62733   2.66674
 Alpha virt. eigenvalues --    2.66894   2.67731   2.70057   2.72218   2.74773
 Alpha virt. eigenvalues --    2.75200   2.78976   2.80522   2.81879   2.83725
 Alpha virt. eigenvalues --    2.84985   2.87612   2.88206   2.90018   2.91315
 Alpha virt. eigenvalues --    2.92331   2.94021   2.95246   2.96564   2.96785
 Alpha virt. eigenvalues --    2.98917   2.99480   3.00209   3.02024   3.02058
 Alpha virt. eigenvalues --    3.04845   3.07299   3.10463   3.11444   3.19299
 Alpha virt. eigenvalues --    3.19996   3.20329   3.23605   3.24127   3.24547
 Alpha virt. eigenvalues --    3.30136   3.33109   3.33745   3.33807   3.36767
 Alpha virt. eigenvalues --    3.39477   3.39729   3.42095   3.43188   3.44326
 Alpha virt. eigenvalues --    3.45846   3.45969   3.46789   3.47113   3.48632
 Alpha virt. eigenvalues --    3.50357   3.51498   3.52122   3.52678   3.53614
 Alpha virt. eigenvalues --    3.56484   3.57750   3.61554   3.61760   3.63658
 Alpha virt. eigenvalues --    3.64306   3.66353   3.66638   3.69200   3.69410
 Alpha virt. eigenvalues --    3.71608   3.73346   3.74540   3.79762   3.79886
 Alpha virt. eigenvalues --    3.80746   3.85297   3.85345   3.86775   3.90281
 Alpha virt. eigenvalues --    3.92500   3.92744   3.93878   3.95217   3.96401
 Alpha virt. eigenvalues --    3.97760   3.99202   3.99921   4.02397   4.04260
 Alpha virt. eigenvalues --    4.06176   4.07199   4.08275   4.10890   4.10944
 Alpha virt. eigenvalues --    4.15050   4.15877   4.17175   4.18455   4.19217
 Alpha virt. eigenvalues --    4.19454   4.23241   4.23950   4.26221   4.27207
 Alpha virt. eigenvalues --    4.28024   4.30312   4.32541   4.33183   4.34809
 Alpha virt. eigenvalues --    4.36052   4.36967   4.38871   4.40227   4.41073
 Alpha virt. eigenvalues --    4.42496   4.45370   4.45709   4.46500   4.51390
 Alpha virt. eigenvalues --    4.51955   4.52363   4.55302   4.55433   4.57570
 Alpha virt. eigenvalues --    4.59207   4.59710   4.62055   4.62411   4.63878
 Alpha virt. eigenvalues --    4.64194   4.66576   4.70415   4.73612   4.78513
 Alpha virt. eigenvalues --    4.79763   4.81397   4.84282   4.89994   4.94365
 Alpha virt. eigenvalues --    4.96509   5.05170   5.06298   5.06842   5.08533
 Alpha virt. eigenvalues --    5.10207   5.13911   5.14155   5.19123   5.20708
 Alpha virt. eigenvalues --    5.25203   5.26023   5.29091   5.29608   5.33740
 Alpha virt. eigenvalues --    5.33934   5.36144   5.38073   5.38097   5.39852
 Alpha virt. eigenvalues --    5.41124   5.43635   5.45974   5.48685   5.49460
 Alpha virt. eigenvalues --    5.56827   5.61457   5.63007   5.63874   5.64345
 Alpha virt. eigenvalues --    5.67289   5.67789   5.74421   5.78073   5.79614
 Alpha virt. eigenvalues --    5.80822   5.80967   5.83481   5.89213   5.89895
 Alpha virt. eigenvalues --    5.95745   5.96386   6.09099   6.09204   6.14972
 Alpha virt. eigenvalues --    6.36352   6.36768   6.43762   6.45216   6.56397
 Alpha virt. eigenvalues --    6.59991   7.43100   7.43517   7.43897   7.44242
 Alpha virt. eigenvalues --    7.51371   7.52847   7.56115   7.56522   7.73894
 Alpha virt. eigenvalues --    7.75938   7.76835   7.81762   7.88326   7.88473
 Alpha virt. eigenvalues --    9.02640   9.03832   9.04126   9.08794   9.46767
 Alpha virt. eigenvalues --    9.49378   9.51011   9.51259   9.60365   9.61678
 Alpha virt. eigenvalues --   11.73801  12.58651  12.69959  12.96474  12.96947
 Alpha virt. eigenvalues --   13.44116  13.61137  13.64971
          Condensed to atoms (all electrons):
              1          2          3          4          5          6
     1  C    4.876050   0.342427  -0.037112  -0.006505  -0.027581   0.327993
     2  C    0.342427   4.876056   0.327983  -0.027580  -0.006504  -0.037111
     3  C   -0.037112   0.327983   4.913033   0.343958  -0.024725  -0.017422
     4  C   -0.006505  -0.027580   0.343958   4.568726   0.356904  -0.024728
     5  C   -0.027581  -0.006504  -0.024725   0.356904   4.568731   0.343956
     6  C    0.327993  -0.037111  -0.017422  -0.024728   0.343956   4.913025
     7  F   -0.001396   0.000184  -0.036148   0.252483  -0.029258   0.001567
     8  F    0.000184  -0.001396   0.001567  -0.029259   0.252482  -0.036148
     9  H    0.005720  -0.033331   0.430418  -0.030869   0.005983  -0.001320
    10  H   -0.002474  -0.031819   0.412505  -0.029728  -0.000025   0.001225
    11  H   -0.001425   0.006230  -0.048262   0.458812  -0.041771   0.008169
    12  H    0.006229  -0.001425   0.008169  -0.041771   0.458811  -0.048259
    13  H   -0.036520   0.423072  -0.036420  -0.002339  -0.000442   0.000267
    14  H   -0.035255   0.434804  -0.035356   0.004640  -0.000705   0.005814
    15  H   -0.033328   0.005720  -0.001320   0.005983  -0.030870   0.430416
    16  H   -0.031814  -0.002473   0.001225  -0.000025  -0.029728   0.412504
    17  H    0.423071  -0.036520   0.000267  -0.000442  -0.002338  -0.036416
    18  H    0.434800  -0.035256   0.005814  -0.000705   0.004639  -0.035353
              7          8          9         10         11         12
     1  C   -0.001396   0.000184   0.005720  -0.002474  -0.001425   0.006229
     2  C    0.000184  -0.001396  -0.033331  -0.031819   0.006230  -0.001425
     3  C   -0.036148   0.001567   0.430418   0.412505  -0.048262   0.008169
     4  C    0.252483  -0.029259  -0.030869  -0.029728   0.458812  -0.041771
     5  C   -0.029258   0.252482   0.005983  -0.000025  -0.041771   0.458811
     6  C    0.001567  -0.036148  -0.001320   0.001225   0.008169  -0.048259
     7  F    9.161770   0.000703  -0.000060   0.002811  -0.022241   0.001717
     8  F    0.000703   9.161775  -0.000082   0.004046   0.001717  -0.022239
     9  H   -0.000060  -0.000082   0.550349  -0.028767  -0.006302  -0.000175
    10  H    0.002811   0.004046  -0.028767   0.567561  -0.001919  -0.000023
    11  H   -0.022241   0.001717  -0.006302  -0.001919   0.544977  -0.009253
    12  H    0.001717  -0.022239  -0.000175  -0.000023  -0.009253   0.544969
    13  H    0.004913  -0.000105  -0.003914   0.006067   0.000189  -0.000294
    14  H   -0.000035   0.000059  -0.004232  -0.005178  -0.000205   0.000098
    15  H   -0.000082  -0.000060   0.000089  -0.000084  -0.000175  -0.006302
    16  H    0.004047   0.002811  -0.000084  -0.000245  -0.000023  -0.001919
    17  H   -0.000105   0.004913   0.000045   0.000757  -0.000294   0.000189
    18  H    0.000059  -0.000035  -0.000252   0.000035   0.000098  -0.000205
             13         14         15         16         17         18
     1  C   -0.036520  -0.035255  -0.033328  -0.031814   0.423071   0.434800
     2  C    0.423072   0.434804   0.005720  -0.002473  -0.036520  -0.035256
     3  C   -0.036420  -0.035356  -0.001320   0.001225   0.000267   0.005814
     4  C   -0.002339   0.004640   0.005983  -0.000025  -0.000442  -0.000705
     5  C   -0.000442  -0.000705  -0.030870  -0.029728  -0.002338   0.004639
     6  C    0.000267   0.005814   0.430416   0.412504  -0.036416  -0.035353
     7  F    0.004913  -0.000035  -0.000082   0.004047  -0.000105   0.000059
     8  F   -0.000105   0.000059  -0.000060   0.002811   0.004913  -0.000035
     9  H   -0.003914  -0.004232   0.000089  -0.000084   0.000045  -0.000252
    10  H    0.006067  -0.005178  -0.000084  -0.000245   0.000757   0.000035
    11  H    0.000189  -0.000205  -0.000175  -0.000023  -0.000294   0.000098
    12  H   -0.000294   0.000098  -0.006302  -0.001919   0.000189  -0.000205
    13  H    0.573129  -0.031614   0.000045   0.000757   0.005878  -0.004554
    14  H   -0.031614   0.562414  -0.000252   0.000035  -0.004554  -0.004602
    15  H    0.000045  -0.000252   0.550347  -0.028767  -0.003913  -0.004232
    16  H    0.000757   0.000035  -0.028767   0.567551   0.006066  -0.005176
    17  H    0.005878  -0.004554  -0.003913   0.006066   0.573124  -0.031614
    18  H   -0.004554  -0.004602  -0.004232  -0.005176  -0.031614   0.562414
 Mulliken atomic charges:
              1
     1  C   -0.203065
     2  C   -0.203060
     3  C   -0.208175
     4  C    0.202443
     5  C    0.202442
     6  C   -0.208180
     7  F   -0.340930
     8  F   -0.340934
     9  H    0.116783
    10  H    0.105253
    11  H    0.111678
    12  H    0.111682
    13  H    0.101884
    14  H    0.114125
    15  H    0.116784
    16  H    0.105258
    17  H    0.101887
    18  H    0.114125
 Sum of Mulliken atomic charges =   0.00000
 Mulliken charges with hydrogens summed into heavy atoms:
              1
     1  C    0.012947
     2  C    0.012949
     3  C    0.013861
     4  C    0.314120
     5  C    0.314124
     6  C    0.013862
     7  F   -0.340930
     8  F   -0.340934
 Sum of Mulliken charges with hydrogens summed into heavy atoms =   0.00000
 Electronic spatial extent (au):  <R**2>=            888.6171
 Charge=              0.0000 electrons
 Dipole moment (field-independent basis, Debye):
    X=              0.9609    Y=             -0.0001    Z=              0.0000  Tot=              0.9609
 Quadrupole moment (field-independent basis, Debye-Ang):
   XX=            -47.0698   YY=            -51.7610   ZZ=            -48.8232
   XY=             -0.0005   XZ=             -0.0010   YZ=             -5.4352
 Traceless Quadrupole moment (field-independent basis, Debye-Ang):
   XX=              2.1482   YY=             -2.5430   ZZ=              0.3948
   XY=             -0.0005   XZ=             -0.0010   YZ=             -5.4352
 Octapole moment (field-independent basis, Debye-Ang**2):
  XXX=            -18.1827  YYY=              0.0001  ZZZ=             -0.0001  XYY=              0.2653
  XXY=              0.0024  XXZ=              0.0012  XZZ=             -2.5614  YZZ=              0.0006
  YYZ=             -0.0017  XYZ=              5.7199
 Hexadecapole moment (field-independent basis, Debye-Ang**3):
 XXXX=           -436.5097 YYYY=           -411.1050 ZZZZ=           -221.2496 XXXY=             -0.0016
 XXXZ=             -0.0014 YYYX=              0.0051 YYYZ=              6.1443 ZZZX=              0.0021
 ZZZY=             19.3608 XXYY=           -148.3606 XXZZ=           -110.9140 YYZZ=           -109.6517
 XXYZ=             -1.7270 YYXZ=              0.0012 ZZXY=             -0.0003
 N-N= 4.188936695965D+02 E-N=-1.856967539086D+03  KE= 4.314533408075D+02
 1\1\GINC-ROCK\SP\RMP2-FC\CC-pVTZ\C6H10F2\STYLIANAKIS\14-Feb-2016\0\\# 
 mp2/cc-pVTZ\\trans1-2difluorocycloh-ax-ax_single_point\\0,1\C\C,1,1.53
 727\C,2,1.537698,1,111.204\C,3,1.522197,2,112.372,1,54.083,0\C,4,1.532
 791,3,113.281,2,-50.403,0\C,5,1.522194,4,113.28,3,48.66,0\F,4,1.418852
 ,3,109.347,2,67.733,0\F,5,1.418858,4,106.127,3,-71.328,0\H,3,1.095672,
 4,108.653,5,-174.054,0\H,3,1.09774,4,107.237,5,70.507,0\H,4,1.094667,3
 ,111.591,2,-174.838,0\H,5,1.094666,4,109.727,3,174.102,0\H,2,1.097378,
 3,109.296,4,-67.104,0\H,2,1.095923,3,109.51,4,176.287,0\H,6,1.095671,5
 ,108.652,4,-174.054,0\H,6,1.097738,5,107.236,4,70.508,0\H,1,1.09738,2,
 109.64,3,65.308,0\H,1,1.095927,2,110.336,3,-177.402,0\\Version=EM64L-G
 09RevA.01\State=1-A\HF=-432.0723375\MP2=-433.5914756\RMSD=8.656e-09\PG
 =C01 [X(C6H10F2)]\\@


 WOE UNTO THEM THAT CALL EVIL GOOD, AND GOOD EVIL      
 Job cpu time:  0 days  1 hours 33 minutes 50.6 seconds.
 File lengths (MBytes):  RWF=     81 Int=      0 D2E=      0 Chk=      7 Scr=      1
 Normal termination of Gaussian 09 at Sun Feb 14 23:53:57 2016.
