 Entering Gaussian System, Link 0=g09
 Input=trimethylsilylcyclohexane-ax.gjf
 Output=trimethylsilylcyclohexane-ax.out
 Initial command:
 /usr/local/g09/l1.exe /home/scratch/stylianakis/Gau-24047.inp -scrdir=/home/scratch/stylianakis/
 Entering Link 1 = /usr/local/g09/l1.exe PID=     24048.
  
 Copyright (c) 1988,1990,1992,1993,1995,1998,2003,2009, Gaussian, Inc.
                  All Rights Reserved.
  
 This is part of the Gaussian(R) 09 program.  It is based on
 the Gaussian(R) 03 system (copyright 2003, Gaussian, Inc.),
 the Gaussian(R) 98 system (copyright 1998, Gaussian, Inc.),
 the Gaussian(R) 94 system (copyright 1995, Gaussian, Inc.),
 the Gaussian 92(TM) system (copyright 1992, Gaussian, Inc.),
 the Gaussian 90(TM) system (copyright 1990, Gaussian, Inc.),
 the Gaussian 88(TM) system (copyright 1988, Gaussian, Inc.),
 the Gaussian 86(TM) system (copyright 1986, Carnegie Mellon
 University), and the Gaussian 82(TM) system (copyright 1983,
 Carnegie Mellon University). Gaussian is a federally registered
 trademark of Gaussian, Inc.
  
 This software contains proprietary and confidential information,
 including trade secrets, belonging to Gaussian, Inc.
  
 This software is provided under written license and may be
 used, copied, transmitted, or stored only in accord with that
 written license.
  
 The following legend is applicable only to US Government
 contracts under FAR:
  
                    RESTRICTED RIGHTS LEGEND
  
 Use, reproduction and disclosure by the US Government is
 subject to restrictions as set forth in subparagraphs (a)
 and (c) of the Commercial Computer Software - Restricted
 Rights clause in FAR 52.227-19.
  
 Gaussian, Inc.
 340 Quinnipiac St., Bldg. 40, Wallingford CT 06492
  
  
 ---------------------------------------------------------------
 Warning -- This program may not be used in any manner that
 competes with the business of Gaussian, Inc. or will provide
 assistance to any competitor of Gaussian, Inc.  The licensee
 of this program is prohibited from giving any competitor of
 Gaussian, Inc. access to this program.  By using this program,
 the user acknowledges that Gaussian, Inc. is engaged in the
 business of creating and licensing software in the field of
 computational chemistry and represents and warrants to the
 licensee that it is not a competitor of Gaussian, Inc. and that
 it will not use this program in any manner prohibited above.
 ---------------------------------------------------------------
  

 Cite this work as:
 Gaussian 09, Revision A.01,
 M. J. Frisch, G. W. Trucks, H. B. Schlegel, G. E. Scuseria, 
 M. A. Robb, J. R. Cheeseman, G. Scalmani, V. Barone, B. Mennucci, 
 G. A. Petersson, H. Nakatsuji, M. Caricato, X. Li, H. P. Hratchian, 
 A. F. Izmaylov, J. Bloino, G. Zheng, J. L. Sonnenberg, M. Hada, 
 M. Ehara, K. Toyota, R. Fukuda, J. Hasegawa, M. Ishida, T. Nakajima, 
 Y. Honda, O. Kitao, H. Nakai, T. Vreven, J. A. Montgomery, Jr., 
 J. E. Peralta, F. Ogliaro, M. Bearpark, J. J. Heyd, E. Brothers, 
 K. N. Kudin, V. N. Staroverov, R. Kobayashi, J. Normand, 
 K. Raghavachari, A. Rendell, J. C. Burant, S. S. Iyengar, J. Tomasi, 
 M. Cossi, N. Rega, J. M. Millam, M. Klene, J. E. Knox, J. B. Cross, 
 V. Bakken, C. Adamo, J. Jaramillo, R. Gomperts, R. E. Stratmann, 
 O. Yazyev, A. J. Austin, R. Cammi, C. Pomelli, J. W. Ochterski, 
 R. L. Martin, K. Morokuma, V. G. Zakrzewski, G. A. Voth, 
 P. Salvador, J. J. Dannenberg, S. Dapprich, A. D. Daniels, 
 O. Farkas, J. B. Foresman, J. V. Ortiz, J. Cioslowski, 
 and D. J. Fox, Gaussian, Inc., Wallingford CT, 2009.
 
 ******************************************
 Gaussian 09:  EM64L-G09RevA.01  8-May-2009
                15-Feb-2016 
 ******************************************
 %mem=8000Mb
 %nproc=4
 Will use up to    4 processors via shared memory.
 -------------
 # mp2/cc-pVTZ
 -------------
 1/38=1/1;
 2/12=2,17=6,18=5,40=1/2;
 3/5=16,6=1,11=9,16=1,25=1,30=1/1,2,3;
 4//1;
 5/5=2,38=5/2;
 8/10=1/1;
 9/16=-3/6;
 6/7=2,8=2,9=2,10=2/1;
 99/5=1,9=1/99;
 -----------------------------------------
 trimethylsilylcyclohexane-ax_single_point
 -----------------------------------------
 Symbolic Z-matrix:
 Charge =  0 Multiplicity = 1
 c
 c                    1    cc2
 c                    2    cc3      1    ccc3
 c                    3    cc4      2    ccc4     1    dih4     0
 c                    4    cc5      3    ccc5     2    dih5     0
 c                    5    cc6      4    ccc6     3    dih6     0
 si                   1    sic7     2    sicc7    3    dih7     0
 c                    7    csi8     1    csic8    2    dih8     0
 c                    7    csi9     1    csic9    2    dih9     0
 c                    7    csi10    1    csic10   2    dih10    0
 h                    3    hc11     4    hcc11    5    dih11    0
 h                    3    hc12     4    hcc12    5    dih12    0
 h                    4    hc13     3    hcc13    2    dih13    0
 h                    4    hc14     3    hcc14    2    dih14    0
 h                    5    hc15     4    hcc15    3    dih15    0
 h                    5    hc16     4    hcc16    3    dih16    0
 h                    2    hc17     3    hcc17    4    dih17    0
 h                    2    hc18     3    hcc18    4    dih18    0
 h                    6    hc19     5    hcc19    4    dih19    0
 h                    6    hc20     5    hcc20    4    dih20    0
 h                    1    hc21     2    hcc21    3    dih21    0
 h                    9    hc22     7    hcsi22   1    dih22    0
 h                    9    hc23     7    hcsi23   1    dih23    0
 h                    9    hc24     7    hcsi24   1    dih24    0
 h                    10   hc25     7    hcsi25   1    dih25    0
 h                    10   hc26     7    hcsi26   1    dih26    0
 h                    10   hc27     7    hcsi27   1    dih27    0
 h                    8    hc28     7    hcsi28   1    dih28    0
 h                    8    hc29     7    hcsi29   1    dih29    0
 h                    8    hc30     7    hcsi30   1    dih30    0
       Variables:
  cc2                   1.55027                  
  cc3                   1.53825                  
  ccc3                113.319                    
  cc4                   1.53659                  
  ccc4                111.493                    
  dih4                 54.318                    
  cc5                   1.53659                  
  ccc5                111.445                    
  dih5                -54.653                    
  cc6                   1.53826                  
  ccc6                111.493                    
  dih6                 54.651                    
  sic7                  1.92173                  
  sicc7               116.105                    
  dih7                 82.148                    
  csi8                  1.8986                   
  csic8               107.897                    
  dih8                172.717                    
  csi9                  1.89923                  
  csic9               116.396                    
  dih9                -65.741                    
  csi10                 1.8986                   
  csic10              107.898                    
  dih10                55.806                    
  hc11                  1.09748                  
  hcc11               110.097                    
  dih11              -176.566                    
  hc12                  1.09797                  
  hcc12               109.174                    
  dih12                67.031                    
  hc13                  1.09729                  
  hcc13               110.331                    
  dih13              -177.584                    
  hc14                  1.10018                  
  hcc14               109.045                    
  dih14                65.777                    
  hc15                  1.09797                  
  hcc15               109.173                    
  dih15               -67.032                    
  hc16                  1.09748                  
  hcc16               110.098                    
  dih16               176.565                    
  hc17                  1.10137                  
  hcc17               107.955                    
  dih17               -65.8                      
  hc18                  1.09708                  
  hcc18               110.061                    
  dih18               179.049                    
  hc19                  1.09708                  
  hcc19               110.06                     
  dih19              -179.045                    
  hc20                  1.10137                  
  hcc20               107.955                    
  dih20                65.805                    
  hc21                  1.1033                   
  hcc21               106.619                    
  dih21              -167.329                    
  hc22                  1.09717                  
  hcsi22              109.552                    
  dih22               179.998                    
  hc23                  1.09533                  
  hcsi23              112.186                    
  dih23               -60.752                    
  hc24                  1.09533                  
  hcsi24              112.192                    
  dih24                60.744                    
  hc25                  1.09656                  
  hcsi25              110.548                    
  dih25               173.212                    
  hc26                  1.09593                  
  hcsi26              112.053                    
  dih26               -67.07                     
  hc27                  1.09648                  
  hcsi27              111.501                    
  dih27                53.635                    
  hc28                  1.09656                  
  hcsi28              110.55                     
  dih28              -173.219                    
  hc29                  1.09649                  
  hcsi29              111.499                    
  dih29               -53.641                    
  hc30                  1.09593                  
  hcsi30              112.053                    
  dih30                67.062                    
 
                          Input orientation:                          
 ---------------------------------------------------------------------
 Center     Atomic      Atomic             Coordinates (Angstroms)
 Number     Number       Type             X           Y           Z
 ---------------------------------------------------------------------
      1          6           0        0.000000    0.000000    0.000000
      2          6           0        0.000000    0.000000    1.550274
      3          6           0        1.412602    0.000000    2.159192
      4          6           0        2.259717    1.161326    1.616226
      5          6           0        2.307529    1.151716    0.080414
      6          6           0        0.894467    1.151084   -0.527457
      7         14           0        0.235755   -1.709514   -0.845595
      8          6           0       -0.027291   -1.478642   -2.711657
      9          6           0        1.917816   -2.553405   -0.589457
     10          6           0       -1.112025   -2.875315   -0.190547
     11          1           0        1.342850    0.063146    3.252632
     12          1           0        1.916895   -0.949403    1.935874
     13          1           0        3.275270    1.118224    2.029548
     14          1           0        1.824202    2.112823    1.955900
     15          1           0        2.861219    0.265865   -0.257585
     16          1           0        2.865786    2.023097   -0.284973
     17          1           0       -0.519900    0.906286    1.898666
     18          1           0       -0.577987   -0.846914    1.940459
     19          1           0        0.955921    1.126995   -1.622547
     20          1           0        0.415012    2.109440   -0.273090
     21          1           0       -1.031461    0.231901   -0.315549
     22          1           0        1.930131   -3.515344   -1.116999
     23          1           0        2.745770   -1.952990   -0.981569
     24          1           0        2.122573   -2.755603    0.467397
     25          1           0       -1.093652   -3.828148   -0.732965
     26          1           0       -0.978548   -3.101971    0.873352
     27          1           0       -2.112173   -2.443457   -0.314977
     28          1           0       -0.021766   -2.448128   -3.224014
     29          1           0       -0.989051   -0.997374   -2.925394
     30          1           0        0.759011   -0.864541   -3.165178
 ---------------------------------------------------------------------
                    Distance matrix (angstroms):
                    1          2          3          4          5
     1  C    0.000000
     2  C    1.550274   0.000000
     3  C    2.580224   1.538254   0.000000
     4  C    3.011177   2.541525   1.536585   0.000000
     5  C    2.580234   2.968439   2.539421   1.536586   0.000000
     6  C    1.550251   2.538116   2.968424   2.541533   1.538263
     7  Si   1.921731   2.952661   3.651870   4.289372   3.651900
     8  C    3.088723   4.511229   5.290070   5.561511   4.490638
     9  C    3.247361   3.844001   3.785523   4.333723   3.785303
    10  C    3.088744   3.540408   4.490261   5.561253   5.289966
    11  H    3.519496   2.169160   1.097481   2.173584   3.489779
    12  H    2.885041   2.173601   1.097975   2.162147   2.830199
    13  H    4.012092   3.493927   2.176411   1.097288   2.176411
    14  H    3.408413   2.820685   2.162120   1.100181   2.162124
    15  H    2.885067   3.394940   2.830192   2.162134   1.097974
    16  H    3.519497   3.959013   3.489786   2.173598   1.097481
    17  H    2.167160   1.101375   2.150300   2.805546   3.370553
    18  H    2.194701   1.097076   2.174293   3.491521   3.972466
    19  H    2.194666   3.500099   3.972433   3.491520   2.174289
    20  H    2.167153   2.818976   3.370596   2.805597   2.150308
    21  H    1.103296   2.144525   3.485910   3.927778   3.485929
    22  H    4.163020   4.816367   4.833105   5.426821   4.832978
    23  H    3.509545   4.214695   3.931398   4.084575   3.310448
    24  H    3.509576   3.642978   3.310525   4.084232   3.930789
    25  H    4.048213   4.589550   5.413003   6.454350   6.085118
    26  H    3.367867   3.322349   4.122282   5.404990   5.433314
    27  H    3.245145   3.729735   4.951367   5.986437   5.710987
    28  H    4.048218   5.365410   6.085199   6.454552   5.413293
    29  H    3.245136   4.690904   5.711016   5.986718   4.951860
    30  H    3.367771   4.853763   5.433556   5.405375   4.122750
                    6          7          8          9         10
     6  C    0.000000
     7  Si   2.952649   0.000000
     8  C    3.540597   1.898600   0.000000
     9  C    3.843738   1.899233   3.072831   0.000000
    10  C    4.511253   1.898602   3.079503   3.072895   0.000000
    11  H    3.959006   4.600375   6.310875   4.683863   5.149412
    12  H    3.394909   3.337749   5.065520   2.991674   4.171948
    13  H    3.493934   5.049871   6.334796   4.709854   6.334471
    14  H    2.820711   4.998180   6.173551   5.316134   6.173344
    15  H    2.173605   3.337805   4.172441   2.991393   5.065390
    16  H    2.169171   4.600407   5.149841   4.683560   6.310811
    17  H    2.818942   3.865798   5.213983   4.909447   4.360725
    18  H    3.500104   3.027929   4.727000   3.942286   2.990116
    19  H    1.097077   3.027883   2.990352   3.941809   4.727103
    20  H    1.101375   3.865787   4.360800   4.909239   5.214061
    21  H    2.144528   2.378209   3.110570   4.065857   3.110773
    22  H    4.816192   2.491102   3.243854   1.097169   3.243865
    23  H    3.642639   2.525459   3.302738   1.095335   4.044623
    24  H    4.214283   2.525536   4.044618   1.095331   3.303005
    25  H    5.365408   2.503721   3.251542   3.273301   1.096561
    26  H    4.853754   2.523539   4.048750   3.290844   1.095934
    27  H    4.691029   2.516544   3.319891   4.040821   1.096485
    28  H    4.589687   2.503746   1.096560   3.273217   3.251626
    29  H    3.730096   2.516517   1.096487   4.040756   3.319815
    30  H    3.322449   2.523537   1.095934   3.290810   4.048754
                   11         12         13         14         15
    11  H    0.000000
    12  H    1.757452   0.000000
    13  H    2.518605   2.475690   0.000000
    14  H    2.472729   3.063694   1.760753   0.000000
    15  H    3.829904   2.679531   2.475668   3.063686   0.000000
    16  H    4.321504   3.829923   2.518627   2.472744   1.757451
    17  H    2.452335   3.063158   3.803336   2.637010   4.060976
    18  H    2.497923   2.496990   4.326349   3.811927   4.230581
    19  H    5.004883   4.230515   4.326344   3.811962   2.496963
    20  H    4.180780   4.060997   3.803384   2.637086   3.063158
    21  H    4.289260   3.893224   4.983271   4.105138   3.893260
    22  H    5.678395   3.988014   5.760218   6.413283   3.987864
    23  H    4.895044   3.194635   4.333538   5.099887   2.336836
    24  H    4.038669   2.336896   4.333077   5.099631   3.193817
    25  H    6.079778   4.947046   7.154408   7.144159   5.712087
    26  H    4.589970   3.761129   6.102606   6.018421   5.231171
    27  H    5.563100   4.850970   6.870729   6.435186   5.663775
    28  H    7.079239   5.712182   7.154665   7.144325   4.947430
    29  H    6.688084   5.663810   6.871073   6.435429   4.851552
    30  H    6.510742   5.231503   6.103122   6.018702   3.761807
                   16         17         18         19         20
    16  H    0.000000
    17  H    4.180720   0.000000
    18  H    5.004906   1.754659   0.000000
    19  H    2.497937   3.824356   4.352493   0.000000
    20  H    2.452324   2.652954   3.824379   1.754655   0.000000
    21  H    4.289272   2.370494   2.541467   2.541480   2.370494
    22  H    5.678208   5.886229   4.770663   4.770322   5.886082
    23  H    4.038431   5.209205   4.561690   3.619492   4.736847
    24  H    4.894324   4.737154   3.620225   4.561086   5.208909
    25  H    7.079189   5.446975   4.037433   5.435581   6.143493
    26  H    6.510526   4.162662   2.526747   5.277862   5.514993
    27  H    6.688130   4.319297   3.160644   4.885802   5.207427
    28  H    6.080113   6.143458   5.435536   4.037582   5.447032
    29  H    5.563708   5.207262   4.885503   3.161213   4.319538
    30  H    4.590483   5.514885   5.277822   2.526796   4.162580
                   21         22         23         24         25
    21  H    0.000000
    22  H    4.843056   0.000000
    23  H    4.414160   1.767642   0.000000
    24  H    4.414309   1.767640   1.769764   0.000000
    25  H    4.081924   3.064081   4.280091   3.596572   0.000000
    26  H    3.539914   3.548631   4.316414   3.146700   1.766589
    27  H    2.885391   4.258215   4.927932   4.317710   1.769030
    28  H    4.081814   3.064043   3.596245   4.280099   3.042814
    29  H    2.885170   4.258178   4.317470   4.927941   3.582034
    30  H    3.539542   3.548706   3.146440   4.316367   4.258050
                   26         27         28         29         30
    26  H    0.000000
    27  H    1.769427   0.000000
    28  H    4.258092   3.582222   0.000000
    29  H    4.342800   3.188547   1.769039   0.000000
    30  H    4.933045   4.342846   1.766585   1.769424   0.000000
 Stoichiometry    C9H20Si
 Framework group  C1[X(C9H20Si)]
 Deg. of freedom    84
 Full point group                 C1      NOp   1
 Largest Abelian subgroup         C1      NOp   1
 Largest concise Abelian subgroup C1      NOp   1
                         Standard orientation:                         
 ---------------------------------------------------------------------
 Center     Atomic      Atomic             Coordinates (Angstroms)
 Number     Number       Type             X           Y           Z
 ---------------------------------------------------------------------
      1          6           0        0.200507    0.000033   -0.972519
      2          6           0        1.084929    1.269095   -0.869428
      3          6           0        2.007990    1.269692    0.361093
      4          6           0        2.871552   -0.000013    0.417697
      5          6           0        2.008013   -1.269729    0.360985
      6          6           0        1.084910   -1.269021   -0.869517
      7         14           0       -1.404811    0.000007    0.083892
      8          6           0       -2.411961   -1.539553   -0.385240
      9          6           0       -1.174942   -0.000443    1.969163
     10          6           0       -2.411657    1.539950   -0.384645
     11          1           0        2.648393    2.160735    0.341281
     12          1           0        1.409120    1.339706    1.278700
     13          1           0        3.490483   -0.000046    1.323768
     14          1           0        3.566324    0.000032   -0.435350
     15          1           0        1.409166   -1.339825    1.278599
     16          1           0        2.648416   -2.160769    0.341078
     17          1           0        1.718047    1.326521   -1.768812
     18          1           0        0.468079    2.176292   -0.877577
     19          1           0        0.468035   -2.176201   -0.877688
     20          1           0        1.718000   -1.326432   -1.768921
     21          1           0       -0.234504    0.000088   -1.986436
     22          1           0       -2.156804   -0.000387    2.458781
     23          1           0       -0.633091   -0.885529    2.319562
     24          1           0       -0.632747    0.884235    2.320048
     25          1           0       -3.393044    1.521564    0.104218
     26          1           0       -1.911933    2.466610   -0.080264
     27          1           0       -2.582293    1.594739   -1.466385
     28          1           0       -3.393309   -1.521250    0.103703
     29          1           0       -2.582670   -1.593808   -1.466997
     30          1           0       -1.912360   -2.466435   -0.081332
 ---------------------------------------------------------------------
 Rotational constants (GHZ):      1.6428672      0.7672844      0.7028619
 Standard basis: CC-pVTZ (5D, 7F)
 There are   584 symmetry adapted basis functions of A   symmetry.
 Integral buffers will be    131072 words long.
 Raffenetti 1 integral format.
 Two-electron integral symmetry is turned on.
   584 basis functions,   903 primitive gaussians,   654 cartesian basis functions
    44 alpha electrons       44 beta electrons
       nuclear repulsion energy       676.0106877516 Hartrees.
 NAtoms=   30 NActive=   30 NUniq=   30 SFac= 7.50D-01 NAtFMM=   80 NAOKFM=F Big=F
 One-electron integrals computed using PRISM.
 NBasis=   584 RedAO= T  NBF=   584
 NBsUse=   584 1.00D-06 NBFU=   584
 Harris functional with IExCor=  205 diagonalized for initial guess.
 ExpMin= 7.89D-02 ExpMax= 2.55D+05 ExpMxC= 2.46D+03 IAcc=2 IRadAn=         0 AccDes= 0.00D+00
 HarFok:  IExCor=  205 AccDes= 0.00D+00 IRadAn=         0 IDoV= 1
 ScaDFX=  1.000000  1.000000  1.000000  1.000000
 FoFCou: FMM=F IPFlag=           0 FMFlag=      100000 FMFlg1=           0
         NFxFlg=           0 DoJE=T BraDBF=F KetDBF=T FulRan=T
         Omega=  0.000000  0.000000  1.000000  0.000000  0.000000 ICntrl=     500 IOpCl=  0
         NMat0=    1 NMatS0=    1 NMatT0=    0 NMatD0=    1 NMtDS0=    0 NMtDT0=    0
         I1Cent=           4 NGrid=           0.
 Petite list used in FoFCou.
 Initial guess orbital symmetries:
       Occupied  (A) (A) (A) (A) (A) (A) (A) (A) (A) (A) (A) (A)
                 (A) (A) (A) (A) (A) (A) (A) (A) (A) (A) (A) (A)
                 (A) (A) (A) (A) (A) (A) (A) (A) (A) (A) (A) (A)
                 (A) (A) (A) (A) (A) (A) (A) (A)
       Virtual   (A) (A) (A) (A) (A) (A) (A) (A) (A) (A) (A) (A)
                 (A) (A) (A) (A) (A) (A) (A) (A) (A) (A) (A) (A)
                 (A) (A) (A) (A) (A) (A) (A) (A) (A) (A) (A) (A)
                 (A) (A) (A) (A) (A) (A) (A) (A) (A) (A) (A) (A)
                 (A) (A) (A) (A) (A) (A) (A) (A) (A) (A) (A) (A)
                 (A) (A) (A) (A) (A) (A) (A) (A) (A) (A) (A) (A)
                 (A) (A) (A) (A) (A) (A) (A) (A) (A) (A) (A) (A)
                 (A) (A) (A) (A) (A) (A) (A) (A) (A) (A) (A) (A)
                 (A) (A) (A) (A) (A) (A) (A) (A) (A) (A) (A) (A)
                 (A) (A) (A) (A) (A) (A) (A) (A) (A) (A) (A) (A)
                 (A) (A) (A) (A) (A) (A) (A) (A) (A) (A) (A) (A)
                 (A) (A) (A) (A) (A) (A) (A) (A) (A) (A) (A) (A)
                 (A) (A) (A) (A) (A) (A) (A) (A) (A) (A) (A) (A)
                 (A) (A) (A) (A) (A) (A) (A) (A) (A) (A) (A) (A)
                 (A) (A) (A) (A) (A) (A) (A) (A) (A) (A) (A) (A)
                 (A) (A) (A) (A) (A) (A) (A) (A) (A) (A) (A) (A)
                 (A) (A) (A) (A) (A) (A) (A) (A) (A) (A) (A) (A)
                 (A) (A) (A) (A) (A) (A) (A) (A) (A) (A) (A) (A)
                 (A) (A) (A) (A) (A) (A) (A) (A) (A) (A) (A) (A)
                 (A) (A) (A) (A) (A) (A) (A) (A) (A) (A) (A) (A)
                 (A) (A) (A) (A) (A) (A) (A) (A) (A) (A) (A) (A)
                 (A) (A) (A) (A) (A) (A) (A) (A) (A) (A) (A) (A)
                 (A) (A) (A) (A) (A) (A) (A) (A) (A) (A) (A) (A)
                 (A) (A) (A) (A) (A) (A) (A) (A) (A) (A) (A) (A)
                 (A) (A) (A) (A) (A) (A) (A) (A) (A) (A) (A) (A)
                 (A) (A) (A) (A) (A) (A) (A) (A) (A) (A) (A) (A)
                 (A) (A) (A) (A) (A) (A) (A) (A) (A) (A) (A) (A)
                 (A) (A) (A) (A) (A) (A) (A) (A) (A) (A) (A) (A)
                 (A) (A) (A) (A) (A) (A) (A) (A) (A) (A) (A) (A)
                 (A) (A) (A) (A) (A) (A) (A) (A) (A) (A) (A) (A)
                 (A) (A) (A) (A) (A) (A) (A) (A) (A) (A) (A) (A)
                 (A) (A) (A) (A) (A) (A) (A) (A) (A) (A) (A) (A)
                 (A) (A) (A) (A) (A) (A) (A) (A) (A) (A) (A) (A)
                 (A) (A) (A) (A) (A) (A) (A) (A) (A) (A) (A) (A)
                 (A) (A) (A) (A) (A) (A) (A) (A) (A) (A) (A) (A)
                 (A) (A) (A) (A) (A) (A) (A) (A) (A) (A) (A) (A)
                 (A) (A) (A) (A) (A) (A) (A) (A) (A) (A) (A) (A)
                 (A) (A) (A) (A) (A) (A) (A) (A) (A) (A) (A) (A)
                 (A) (A) (A) (A) (A) (A) (A) (A) (A) (A) (A) (A)
                 (A) (A) (A) (A) (A) (A) (A) (A) (A) (A) (A) (A)
                 (A) (A) (A) (A) (A) (A) (A) (A) (A) (A) (A) (A)
                 (A) (A) (A) (A) (A) (A) (A) (A) (A) (A) (A) (A)
                 (A) (A) (A) (A) (A) (A) (A) (A) (A) (A) (A) (A)
                 (A) (A) (A) (A) (A) (A) (A) (A) (A) (A) (A) (A)
                 (A) (A) (A) (A) (A) (A) (A) (A) (A) (A) (A) (A)
 The electronic state of the initial guess is 1-A.
 Requested convergence on RMS density matrix=1.00D-08 within 128 cycles.
 Requested convergence on MAX density matrix=1.00D-06.
 Requested convergence on             energy=1.00D-06.
 No special actions if energy rises.
 Integral accuracy reduced to 1.0D-05 until final iterations.
 Initial convergence to 1.0D-05 achieved.  Increase integral accuracy.
 SCF Done:  E(RHF) =  -641.564217993     A.U. after   11 cycles
             Convg  =    0.5884D-08             -V/T =  2.0010
 ExpMin= 7.89D-02 ExpMax= 2.55D+05 ExpMxC= 2.46D+03 IAcc=3 IRadAn=         5 AccDes= 0.00D+00
 HarFok:  IExCor=  205 AccDes= 0.00D+00 IRadAn=         5 IDoV=-2
 ScaDFX=  1.000000  1.000000  1.000000  1.000000
 Range of M.O.s used for correlation:    15   584
 NBasis=   584 NAE=    44 NBE=    44 NFC=    14 NFV=     0
 NROrb=    570 NOA=    30 NOB=    30 NVA=   540 NVB=   540

 **** Warning!!: The largest alpha MO coefficient is  0.16073096D+02

 Fully direct method using O(OVN) memory.
 JobTyp=1 Pass  1:  I=   1 to  30 NPSUse=  4 ParTrn=T ParDer=T DoDerP=F.
 Spin components of T(2) and E(2):
     alpha-alpha T2 =       0.6790785363D-01 E2=     -0.1910275874D+00
     alpha-beta  T2 =       0.4187733909D+00 E2=     -0.1323059404D+01
     beta-beta   T2 =       0.6790785363D-01 E2=     -0.1910275874D+00
 ANorm=    0.1246831624D+01
 E2 =    -0.1705114578D+01 EUMP2 =    -0.64326933257146D+03

 **********************************************************************

            Population analysis using the SCF density.

 **********************************************************************

 Orbital symmetries:
       Occupied  (A) (A) (A) (A) (A) (A) (A) (A) (A) (A) (A) (A)
                 (A) (A) (A) (A) (A) (A) (A) (A) (A) (A) (A) (A)
                 (A) (A) (A) (A) (A) (A) (A) (A) (A) (A) (A) (A)
                 (A) (A) (A) (A) (A) (A) (A) (A)
       Virtual   (A) (A) (A) (A) (A) (A) (A) (A) (A) (A) (A) (A)
                 (A) (A) (A) (A) (A) (A) (A) (A) (A) (A) (A) (A)
                 (A) (A) (A) (A) (A) (A) (A) (A) (A) (A) (A) (A)
                 (A) (A) (A) (A) (A) (A) (A) (A) (A) (A) (A) (A)
                 (A) (A) (A) (A) (A) (A) (A) (A) (A) (A) (A) (A)
                 (A) (A) (A) (A) (A) (A) (A) (A) (A) (A) (A) (A)
                 (A) (A) (A) (A) (A) (A) (A) (A) (A) (A) (A) (A)
                 (A) (A) (A) (A) (A) (A) (A) (A) (A) (A) (A) (A)
                 (A) (A) (A) (A) (A) (A) (A) (A) (A) (A) (A) (A)
                 (A) (A) (A) (A) (A) (A) (A) (A) (A) (A) (A) (A)
                 (A) (A) (A) (A) (A) (A) (A) (A) (A) (A) (A) (A)
                 (A) (A) (A) (A) (A) (A) (A) (A) (A) (A) (A) (A)
                 (A) (A) (A) (A) (A) (A) (A) (A) (A) (A) (A) (A)
                 (A) (A) (A) (A) (A) (A) (A) (A) (A) (A) (A) (A)
                 (A) (A) (A) (A) (A) (A) (A) (A) (A) (A) (A) (A)
                 (A) (A) (A) (A) (A) (A) (A) (A) (A) (A) (A) (A)
                 (A) (A) (A) (A) (A) (A) (A) (A) (A) (A) (A) (A)
                 (A) (A) (A) (A) (A) (A) (A) (A) (A) (A) (A) (A)
                 (A) (A) (A) (A) (A) (A) (A) (A) (A) (A) (A) (A)
                 (A) (A) (A) (A) (A) (A) (A) (A) (A) (A) (A) (A)
                 (A) (A) (A) (A) (A) (A) (A) (A) (A) (A) (A) (A)
                 (A) (A) (A) (A) (A) (A) (A) (A) (A) (A) (A) (A)
                 (A) (A) (A) (A) (A) (A) (A) (A) (A) (A) (A) (A)
                 (A) (A) (A) (A) (A) (A) (A) (A) (A) (A) (A) (A)
                 (A) (A) (A) (A) (A) (A) (A) (A) (A) (A) (A) (A)
                 (A) (A) (A) (A) (A) (A) (A) (A) (A) (A) (A) (A)
                 (A) (A) (A) (A) (A) (A) (A) (A) (A) (A) (A) (A)
                 (A) (A) (A) (A) (A) (A) (A) (A) (A) (A) (A) (A)
                 (A) (A) (A) (A) (A) (A) (A) (A) (A) (A) (A) (A)
                 (A) (A) (A) (A) (A) (A) (A) (A) (A) (A) (A) (A)
                 (A) (A) (A) (A) (A) (A) (A) (A) (A) (A) (A) (A)
                 (A) (A) (A) (A) (A) (A) (A) (A) (A) (A) (A) (A)
                 (A) (A) (A) (A) (A) (A) (A) (A) (A) (A) (A) (A)
                 (A) (A) (A) (A) (A) (A) (A) (A) (A) (A) (A) (A)
                 (A) (A) (A) (A) (A) (A) (A) (A) (A) (A) (A) (A)
                 (A) (A) (A) (A) (A) (A) (A) (A) (A) (A) (A) (A)
                 (A) (A) (A) (A) (A) (A) (A) (A) (A) (A) (A) (A)
                 (A) (A) (A) (A) (A) (A) (A) (A) (A) (A) (A) (A)
                 (A) (A) (A) (A) (A) (A) (A) (A) (A) (A) (A) (A)
                 (A) (A) (A) (A) (A) (A) (A) (A) (A) (A) (A) (A)
                 (A) (A) (A) (A) (A) (A) (A) (A) (A) (A) (A) (A)
                 (A) (A) (A) (A) (A) (A) (A) (A) (A) (A) (A) (A)
                 (A) (A) (A) (A) (A) (A) (A) (A) (A) (A) (A) (A)
                 (A) (A) (A) (A) (A) (A) (A) (A) (A) (A) (A) (A)
                 (A) (A) (A) (A) (A) (A) (A) (A) (A) (A) (A) (A)
 The electronic state is 1-A.
 Alpha  occ. eigenvalues --  -68.74935 -11.21701 -11.21700 -11.21447 -11.21402
 Alpha  occ. eigenvalues --  -11.21363 -11.20537 -11.19580 -11.19402 -11.19401
 Alpha  occ. eigenvalues --   -6.09611  -4.20239  -4.20238  -4.20212  -1.10328
 Alpha  occ. eigenvalues --   -0.99622  -0.99588  -0.95420  -0.91681  -0.91566
 Alpha  occ. eigenvalues --   -0.82440  -0.82198  -0.74015  -0.64486  -0.61901
 Alpha  occ. eigenvalues --   -0.60812  -0.59636  -0.57089  -0.55474  -0.55194
 Alpha  occ. eigenvalues --   -0.54282  -0.53694  -0.53628  -0.52683  -0.51733
 Alpha  occ. eigenvalues --   -0.51398  -0.50933  -0.47729  -0.46006  -0.43048
 Alpha  occ. eigenvalues --   -0.42981  -0.41506  -0.41334  -0.38356
 Alpha virt. eigenvalues --    0.12459   0.14762   0.15799   0.15920   0.18082
 Alpha virt. eigenvalues --    0.18421   0.18457   0.18941   0.20271   0.21196
 Alpha virt. eigenvalues --    0.22034   0.22687   0.23435   0.23903   0.25116
 Alpha virt. eigenvalues --    0.25620   0.25679   0.25843   0.25975   0.27632
 Alpha virt. eigenvalues --    0.27744   0.28934   0.32531   0.32978   0.33208
 Alpha virt. eigenvalues --    0.33540   0.34498   0.37082   0.37286   0.38565
 Alpha virt. eigenvalues --    0.38584   0.38904   0.40895   0.41702   0.42327
 Alpha virt. eigenvalues --    0.42860   0.44450   0.45835   0.47029   0.47254
 Alpha virt. eigenvalues --    0.47848   0.48290   0.50732   0.51957   0.53250
 Alpha virt. eigenvalues --    0.53573   0.53958   0.55540   0.55737   0.57194
 Alpha virt. eigenvalues --    0.57892   0.57948   0.59103   0.59907   0.60866
 Alpha virt. eigenvalues --    0.61737   0.61860   0.62474   0.62903   0.63282
 Alpha virt. eigenvalues --    0.64001   0.64013   0.64747   0.65073   0.65464
 Alpha virt. eigenvalues --    0.65982   0.66753   0.68271   0.69222   0.69267
 Alpha virt. eigenvalues --    0.69681   0.70128   0.70649   0.71196   0.71886
 Alpha virt. eigenvalues --    0.72211   0.72318   0.75260   0.75443   0.76205
 Alpha virt. eigenvalues --    0.79198   0.80638   0.81155   0.82785   0.83774
 Alpha virt. eigenvalues --    0.84769   0.86123   0.86403   0.86755   0.90083
 Alpha virt. eigenvalues --    0.91680   0.93143   0.94979   0.95744   0.96863
 Alpha virt. eigenvalues --    0.97526   0.99747   1.01441   1.01807   1.03599
 Alpha virt. eigenvalues --    1.04474   1.05621   1.05667   1.08552   1.08929
 Alpha virt. eigenvalues --    1.10444   1.11049   1.11683   1.12312   1.12622
 Alpha virt. eigenvalues --    1.16241   1.16908   1.17569   1.19232   1.20311
 Alpha virt. eigenvalues --    1.20621   1.21745   1.21796   1.22559   1.23567
 Alpha virt. eigenvalues --    1.24093   1.24172   1.25270   1.25794   1.27240
 Alpha virt. eigenvalues --    1.27278   1.27283   1.28537   1.30463   1.31191
 Alpha virt. eigenvalues --    1.32534   1.33504   1.34223   1.35550   1.36102
 Alpha virt. eigenvalues --    1.37591   1.37633   1.37912   1.38596   1.39866
 Alpha virt. eigenvalues --    1.40197   1.40731   1.40805   1.41380   1.41636
 Alpha virt. eigenvalues --    1.43439   1.43474   1.45205   1.46616   1.46961
 Alpha virt. eigenvalues --    1.47447   1.48550   1.48985   1.49347   1.50142
 Alpha virt. eigenvalues --    1.51641   1.52262   1.53112   1.53301   1.53335
 Alpha virt. eigenvalues --    1.53803   1.54854   1.55961   1.57558   1.57564
 Alpha virt. eigenvalues --    1.59050   1.59250   1.60314   1.60723   1.61425
 Alpha virt. eigenvalues --    1.61823   1.62411   1.63435   1.64526   1.66250
 Alpha virt. eigenvalues --    1.66267   1.68679   1.69096   1.69743   1.72002
 Alpha virt. eigenvalues --    1.72064   1.73968   1.74162   1.75564   1.75889
 Alpha virt. eigenvalues --    1.77238   1.77300   1.79807   1.81448   1.81913
 Alpha virt. eigenvalues --    1.82071   1.84907   1.85125   1.87091   1.87242
 Alpha virt. eigenvalues --    1.87847   1.90105   1.90683   1.92549   1.93536
 Alpha virt. eigenvalues --    1.93651   1.96620   1.97232   1.97993   2.00755
 Alpha virt. eigenvalues --    2.01841   2.01873   2.05872   2.09820   2.16395
 Alpha virt. eigenvalues --    2.17629   2.19556   2.51408   2.54449   2.59725
 Alpha virt. eigenvalues --    2.61611   2.64973   2.65081   2.67758   2.68269
 Alpha virt. eigenvalues --    2.69508   2.69847   2.72620   2.73831   2.74402
 Alpha virt. eigenvalues --    2.75703   2.77555   2.78870   2.79923   2.81212
 Alpha virt. eigenvalues --    2.82797   2.84092   2.86056   2.87847   2.88054
 Alpha virt. eigenvalues --    2.89477   2.90072   2.91879   2.93919   2.94574
 Alpha virt. eigenvalues --    2.95249   2.96433   2.98588   2.98982   2.99946
 Alpha virt. eigenvalues --    3.00509   3.00882   3.03272   3.03639   3.04012
 Alpha virt. eigenvalues --    3.04535   3.05540   3.06730   3.07380   3.07974
 Alpha virt. eigenvalues --    3.09139   3.10189   3.11912   3.12712   3.13799
 Alpha virt. eigenvalues --    3.14088   3.15993   3.16393   3.17406   3.19035
 Alpha virt. eigenvalues --    3.20004   3.20173   3.21973   3.23012   3.23075
 Alpha virt. eigenvalues --    3.25383   3.27584   3.28963   3.29166   3.30953
 Alpha virt. eigenvalues --    3.31254   3.31933   3.32819   3.34086   3.34897
 Alpha virt. eigenvalues --    3.35376   3.36781   3.37258   3.37431   3.38163
 Alpha virt. eigenvalues --    3.39317   3.40284   3.40959   3.42127   3.43787
 Alpha virt. eigenvalues --    3.43915   3.45139   3.45915   3.46196   3.46679
 Alpha virt. eigenvalues --    3.46719   3.47291   3.47881   3.48510   3.49297
 Alpha virt. eigenvalues --    3.49309   3.50319   3.50906   3.51215   3.52378
 Alpha virt. eigenvalues --    3.53161   3.53281   3.54250   3.55035   3.55818
 Alpha virt. eigenvalues --    3.56084   3.57830   3.59608   3.60298   3.61321
 Alpha virt. eigenvalues --    3.64241   3.64258   3.66249   3.67116   3.67308
 Alpha virt. eigenvalues --    3.67801   3.69527   3.71195   3.71329   3.72943
 Alpha virt. eigenvalues --    3.73446   3.74138   3.74514   3.75638   3.76326
 Alpha virt. eigenvalues --    3.76842   3.77401   3.78598   3.79757   3.79950
 Alpha virt. eigenvalues --    3.80605   3.80769   3.82042   3.82271   3.84016
 Alpha virt. eigenvalues --    3.84450   3.85725   3.85973   3.87660   3.87753
 Alpha virt. eigenvalues --    3.88208   3.91342   3.91636   3.93511   3.93600
 Alpha virt. eigenvalues --    3.94129   3.95584   3.96048   4.00187   4.01125
 Alpha virt. eigenvalues --    4.01262   4.02168   4.02559   4.03281   4.03969
 Alpha virt. eigenvalues --    4.04448   4.04987   4.06755   4.07165   4.07659
 Alpha virt. eigenvalues --    4.08150   4.11109   4.11869   4.13271   4.13294
 Alpha virt. eigenvalues --    4.13651   4.15323   4.15331   4.17014   4.17566
 Alpha virt. eigenvalues --    4.18663   4.19536   4.20489   4.22091   4.24095
 Alpha virt. eigenvalues --    4.24110   4.24865   4.25717   4.26359   4.27760
 Alpha virt. eigenvalues --    4.28790   4.30893   4.31629   4.31732   4.31931
 Alpha virt. eigenvalues --    4.33319   4.33958   4.35042   4.35227   4.35440
 Alpha virt. eigenvalues --    4.37827   4.37877   4.38548   4.39585   4.40374
 Alpha virt. eigenvalues --    4.41384   4.41718   4.43168   4.43964   4.44053
 Alpha virt. eigenvalues --    4.45268   4.45842   4.46069   4.46881   4.47701
 Alpha virt. eigenvalues --    4.48120   4.49491   4.50040   4.50747   4.51918
 Alpha virt. eigenvalues --    4.53148   4.53193   4.53557   4.54774   4.56306
 Alpha virt. eigenvalues --    4.57721   4.59096   4.59674   4.60048   4.61088
 Alpha virt. eigenvalues --    4.62550   4.62864   4.62982   4.65231   4.65265
 Alpha virt. eigenvalues --    4.67079   4.67851   4.70945   4.72477   4.73438
 Alpha virt. eigenvalues --    4.73641   4.76843   4.78504   4.81191   4.85300
 Alpha virt. eigenvalues --    4.87112   4.89141   4.90161   4.90910   4.95249
 Alpha virt. eigenvalues --    4.96936   4.98177   5.00697   5.01758   5.02159
 Alpha virt. eigenvalues --    5.02666   5.04003   5.05500   5.08490   5.08548
 Alpha virt. eigenvalues --    5.09408   5.10489   5.11248   5.12868   5.14079
 Alpha virt. eigenvalues --    5.16640   5.19275   5.20566   5.22569   5.25667
 Alpha virt. eigenvalues --    5.25863   5.27725   5.28023   5.30904   5.31940
 Alpha virt. eigenvalues --    5.34693   5.35336   5.37475   5.37516   5.38766
 Alpha virt. eigenvalues --    5.39748   5.40347   5.40755   5.42116   5.43527
 Alpha virt. eigenvalues --    5.43729   5.45315   5.46067   5.46299   5.46923
 Alpha virt. eigenvalues --    5.48557   5.50380   5.51276   5.51709   5.53515
 Alpha virt. eigenvalues --    5.55472   5.58473   5.61420   5.61706   5.62707
 Alpha virt. eigenvalues --    5.65090   5.65334   5.66078   5.68650   5.69790
 Alpha virt. eigenvalues --    5.71220   5.73373   5.73585   5.74037   5.75791
 Alpha virt. eigenvalues --    5.78079   5.78291   5.80510   5.83222   5.85298
 Alpha virt. eigenvalues --    5.85509   5.88969   5.90838   5.94499   5.98361
 Alpha virt. eigenvalues --    5.99313   6.01753   6.13196   6.13933   6.26031
 Alpha virt. eigenvalues --    6.29412   6.29781   6.31568   6.32284   6.32958
 Alpha virt. eigenvalues --    6.36412   6.40484   6.44399   6.50311   6.51975
 Alpha virt. eigenvalues --    6.53804  11.95427  12.89613  13.24827  13.31798
 Alpha virt. eigenvalues --   13.35286  13.48020  13.51589  13.58990  13.61310
          Condensed to atoms (all electrons):
              1          2          3          4          5          6
     1  C    4.974761   0.333268  -0.037642   0.000479  -0.037639   0.333267
     2  C    0.333268   4.907274   0.340858  -0.042262  -0.003547  -0.040287
     3  C   -0.037642   0.340858   4.893098   0.345342  -0.037022  -0.003548
     4  C    0.000479  -0.042262   0.345342   4.860250   0.345343  -0.042263
     5  C   -0.037639  -0.003547  -0.037022   0.345343   4.893099   0.340864
     6  C    0.333267  -0.040287  -0.003548  -0.042263   0.340864   4.907248
     7  Si   0.428662  -0.043774  -0.002580  -0.000122  -0.002582  -0.043765
     8  C   -0.018399   0.000938  -0.000044  -0.000008   0.000248  -0.000200
     9  C   -0.016807   0.001932  -0.002578   0.000276  -0.002578   0.001932
    10  C   -0.018401  -0.000200   0.000248  -0.000008  -0.000044   0.000938
    11  H    0.006161  -0.035832   0.436969  -0.035752   0.006419  -0.001147
    12  H   -0.002517  -0.036838   0.421489  -0.039466  -0.003039   0.001199
    13  H   -0.001103   0.006487  -0.037074   0.436686  -0.037074   0.006487
    14  H   -0.000874  -0.001295  -0.040658   0.424899  -0.040658  -0.001294
    15  H   -0.002515   0.001199  -0.003039  -0.039467   0.421491  -0.036839
    16  H    0.006161  -0.001147   0.006419  -0.035751   0.436968  -0.035830
    17  H   -0.041766   0.427614  -0.040403  -0.002748  -0.000380  -0.002880
    18  H   -0.037389   0.438650  -0.040058   0.006554  -0.000852   0.006309
    19  H   -0.037393   0.006310  -0.000852   0.006554  -0.040059   0.438648
    20  H   -0.041768  -0.002880  -0.000380  -0.002748  -0.040402   0.427613
    21  H    0.412808  -0.034809   0.006971  -0.001083   0.006971  -0.034810
    22  H    0.001920  -0.000193   0.000104  -0.000038   0.000104  -0.000193
    23  H    0.000618   0.000419  -0.000050   0.000312  -0.001858  -0.000208
    24  H    0.000618  -0.000208  -0.001858   0.000312  -0.000050   0.000420
    25  H    0.002210  -0.000047  -0.000013   0.000000   0.000002  -0.000073
    26  H   -0.000639  -0.001361   0.000217  -0.000014   0.000025  -0.000133
    27  H   -0.000256   0.000284  -0.000003   0.000000  -0.000003   0.000015
    28  H    0.002210  -0.000073   0.000002   0.000000  -0.000013  -0.000048
    29  H   -0.000258   0.000015  -0.000003   0.000000  -0.000003   0.000284
    30  H   -0.000640  -0.000133   0.000025  -0.000014   0.000217  -0.001361
              7          8          9         10         11         12
     1  C    0.428662  -0.018399  -0.016807  -0.018401   0.006161  -0.002517
     2  C   -0.043774   0.000938   0.001932  -0.000200  -0.035832  -0.036838
     3  C   -0.002580  -0.000044  -0.002578   0.000248   0.436969   0.421489
     4  C   -0.000122  -0.000008   0.000276  -0.000008  -0.035752  -0.039466
     5  C   -0.002582   0.000248  -0.002578  -0.000044   0.006419  -0.003039
     6  C   -0.043765  -0.000200   0.001932   0.000938  -0.001147   0.001199
     7  Si  12.213562   0.442069   0.425735   0.442067  -0.000246   0.001643
     8  C    0.442069   4.852777  -0.020755  -0.020851   0.000001   0.000015
     9  C    0.425735  -0.020755   4.874300  -0.020754   0.000133  -0.003472
    10  C    0.442067  -0.020851  -0.020754   4.852787   0.000007   0.000067
    11  H   -0.000246   0.000001   0.000133   0.000007   0.564644  -0.032931
    12  H    0.001643   0.000015  -0.003472   0.000067  -0.032931   0.598881
    13  H   -0.000053   0.000001   0.000043   0.000001  -0.004715  -0.005192
    14  H    0.000112   0.000000  -0.000025   0.000000  -0.005112   0.007163
    15  H    0.001643   0.000067  -0.003474   0.000015  -0.000075   0.000735
    16  H   -0.000246   0.000007   0.000133   0.000001  -0.000289  -0.000075
    17  H    0.011209  -0.000090  -0.000203  -0.000136  -0.005396   0.006574
    18  H   -0.010781   0.000160   0.000525  -0.001068  -0.005051  -0.004497
    19  H   -0.010781  -0.001067   0.000525   0.000160   0.000097  -0.000111
    20  H    0.011210  -0.000136  -0.000203  -0.000090  -0.000090  -0.000003
    21  H   -0.035255  -0.001641   0.002501  -0.001638  -0.000295  -0.000260
    22  H   -0.027321  -0.000967   0.400937  -0.000966  -0.000001   0.000361
    23  H   -0.030291   0.000550   0.399810   0.001823  -0.000014  -0.000162
    24  H   -0.030290   0.001823   0.399817   0.000551   0.000114  -0.002121
    25  H   -0.031283  -0.000496  -0.000185   0.401050   0.000000  -0.000003
    26  H   -0.024915   0.001750   0.000224   0.397266   0.000000   0.000110
    27  H   -0.029290   0.000785   0.001972   0.395848   0.000002  -0.000012
    28  H   -0.031284   0.401053  -0.000185  -0.000496   0.000000   0.000001
    29  H   -0.029292   0.395848   0.001972   0.000785   0.000000   0.000000
    30  H   -0.024912   0.397264   0.000224   0.001750   0.000000  -0.000001
             13         14         15         16         17         18
     1  C   -0.001103  -0.000874  -0.002515   0.006161  -0.041766  -0.037389
     2  C    0.006487  -0.001295   0.001199  -0.001147   0.427614   0.438650
     3  C   -0.037074  -0.040658  -0.003039   0.006419  -0.040403  -0.040058
     4  C    0.436686   0.424899  -0.039467  -0.035751  -0.002748   0.006554
     5  C   -0.037074  -0.040658   0.421491   0.436968  -0.000380  -0.000852
     6  C    0.006487  -0.001294  -0.036839  -0.035830  -0.002880   0.006309
     7  Si  -0.000053   0.000112   0.001643  -0.000246   0.011209  -0.010781
     8  C    0.000001   0.000000   0.000067   0.000007  -0.000090   0.000160
     9  C    0.000043  -0.000025  -0.003474   0.000133  -0.000203   0.000525
    10  C    0.000001   0.000000   0.000015   0.000001  -0.000136  -0.001068
    11  H   -0.004715  -0.005112  -0.000075  -0.000289  -0.005396  -0.005051
    12  H   -0.005192   0.007163   0.000735  -0.000075   0.006574  -0.004497
    13  H    0.570724  -0.032068  -0.005193  -0.004714  -0.000075  -0.000275
    14  H   -0.032068   0.598595   0.007163  -0.005112   0.002271  -0.000155
    15  H   -0.005193   0.007163   0.598883  -0.032931  -0.000003  -0.000111
    16  H   -0.004714  -0.005112  -0.032931   0.564638  -0.000090   0.000097
    17  H   -0.000075   0.002271  -0.000003  -0.000090   0.587918  -0.032593
    18  H   -0.000275  -0.000155  -0.000111   0.000097  -0.032593   0.566453
    19  H   -0.000275  -0.000155  -0.004498  -0.005050  -0.000393  -0.000196
    20  H   -0.000075   0.002271   0.006574  -0.005397   0.003479  -0.000393
    21  H    0.000094  -0.000163  -0.000260  -0.000295  -0.012556  -0.001383
    22  H   -0.000002   0.000002   0.000361  -0.000001   0.000012  -0.000056
    23  H    0.000034  -0.000013  -0.002123   0.000114  -0.000005  -0.000006
    24  H    0.000034  -0.000013  -0.000163  -0.000014  -0.000003   0.000101
    25  H    0.000000   0.000000   0.000001   0.000000   0.000016   0.000040
    26  H    0.000001   0.000000  -0.000001   0.000000   0.000044  -0.001013
    27  H    0.000000   0.000000   0.000000   0.000000  -0.000095   0.000109
    28  H    0.000000   0.000000  -0.000003   0.000000   0.000007  -0.000013
    29  H    0.000000   0.000000  -0.000012   0.000002   0.000006  -0.000003
    30  H    0.000001   0.000000   0.000110   0.000000   0.000004  -0.000009
             19         20         21         22         23         24
     1  C   -0.037393  -0.041768   0.412808   0.001920   0.000618   0.000618
     2  C    0.006310  -0.002880  -0.034809  -0.000193   0.000419  -0.000208
     3  C   -0.000852  -0.000380   0.006971   0.000104  -0.000050  -0.001858
     4  C    0.006554  -0.002748  -0.001083  -0.000038   0.000312   0.000312
     5  C   -0.040059  -0.040402   0.006971   0.000104  -0.001858  -0.000050
     6  C    0.438648   0.427613  -0.034810  -0.000193  -0.000208   0.000420
     7  Si  -0.010781   0.011210  -0.035255  -0.027321  -0.030291  -0.030290
     8  C   -0.001067  -0.000136  -0.001641  -0.000967   0.000550   0.001823
     9  C    0.000525  -0.000203   0.002501   0.400937   0.399810   0.399817
    10  C    0.000160  -0.000090  -0.001638  -0.000966   0.001823   0.000551
    11  H    0.000097  -0.000090  -0.000295  -0.000001  -0.000014   0.000114
    12  H   -0.000111  -0.000003  -0.000260   0.000361  -0.000162  -0.002121
    13  H   -0.000275  -0.000075   0.000094  -0.000002   0.000034   0.000034
    14  H   -0.000155   0.002271  -0.000163   0.000002  -0.000013  -0.000013
    15  H   -0.004498   0.006574  -0.000260   0.000361  -0.002123  -0.000163
    16  H   -0.005050  -0.005397  -0.000295  -0.000001   0.000114  -0.000014
    17  H   -0.000393   0.003479  -0.012556   0.000012  -0.000005  -0.000003
    18  H   -0.000196  -0.000393  -0.001383  -0.000056  -0.000006   0.000101
    19  H    0.566468  -0.032593  -0.001383  -0.000056   0.000101  -0.000006
    20  H   -0.032593   0.587916  -0.012557   0.000012  -0.000003  -0.000005
    21  H   -0.001383  -0.012557   0.596919  -0.000169  -0.000122  -0.000122
    22  H   -0.000056   0.000012  -0.000169   0.560832  -0.025139  -0.025136
    23  H    0.000101  -0.000003  -0.000122  -0.025139   0.569760  -0.023988
    24  H   -0.000006  -0.000005  -0.000122  -0.025136  -0.023988   0.569732
    25  H   -0.000013   0.000007  -0.000117   0.000566  -0.000110   0.000203
    26  H   -0.000009   0.000004   0.000309   0.000204  -0.000102   0.000568
    27  H   -0.000003   0.000006   0.001045  -0.000113  -0.000112  -0.000096
    28  H    0.000040   0.000016  -0.000117   0.000566   0.000203  -0.000110
    29  H    0.000108  -0.000095   0.001045  -0.000113  -0.000096  -0.000112
    30  H   -0.001011   0.000044   0.000309   0.000204   0.000568  -0.000102
             25         26         27         28         29         30
     1  C    0.002210  -0.000639  -0.000256   0.002210  -0.000258  -0.000640
     2  C   -0.000047  -0.001361   0.000284  -0.000073   0.000015  -0.000133
     3  C   -0.000013   0.000217  -0.000003   0.000002  -0.000003   0.000025
     4  C    0.000000  -0.000014   0.000000   0.000000   0.000000  -0.000014
     5  C    0.000002   0.000025  -0.000003  -0.000013  -0.000003   0.000217
     6  C   -0.000073  -0.000133   0.000015  -0.000048   0.000284  -0.001361
     7  Si  -0.031283  -0.024915  -0.029290  -0.031284  -0.029292  -0.024912
     8  C   -0.000496   0.001750   0.000785   0.401053   0.395848   0.397264
     9  C   -0.000185   0.000224   0.001972  -0.000185   0.001972   0.000224
    10  C    0.401050   0.397266   0.395848  -0.000496   0.000785   0.001750
    11  H    0.000000   0.000000   0.000002   0.000000   0.000000   0.000000
    12  H   -0.000003   0.000110  -0.000012   0.000001   0.000000  -0.000001
    13  H    0.000000   0.000001   0.000000   0.000000   0.000000   0.000001
    14  H    0.000000   0.000000   0.000000   0.000000   0.000000   0.000000
    15  H    0.000001  -0.000001   0.000000  -0.000003  -0.000012   0.000110
    16  H    0.000000   0.000000   0.000000   0.000000   0.000002   0.000000
    17  H    0.000016   0.000044  -0.000095   0.000007   0.000006   0.000004
    18  H    0.000040  -0.001013   0.000109  -0.000013  -0.000003  -0.000009
    19  H   -0.000013  -0.000009  -0.000003   0.000040   0.000108  -0.001011
    20  H    0.000007   0.000004   0.000006   0.000016  -0.000095   0.000044
    21  H   -0.000117   0.000309   0.001045  -0.000117   0.001045   0.000309
    22  H    0.000566   0.000204  -0.000113   0.000566  -0.000113   0.000204
    23  H   -0.000110  -0.000102  -0.000112   0.000203  -0.000096   0.000568
    24  H    0.000203   0.000568  -0.000096  -0.000110  -0.000112  -0.000102
    25  H    0.570755  -0.025834  -0.023787   0.000594   0.000154  -0.000085
    26  H   -0.025834   0.575628  -0.026556  -0.000085  -0.000108  -0.000108
    27  H   -0.023787  -0.026556   0.574947   0.000154   0.000629  -0.000108
    28  H    0.000594  -0.000085   0.000154   0.570757  -0.023786  -0.025836
    29  H    0.000154  -0.000108   0.000629  -0.023786   0.574954  -0.026554
    30  H   -0.000085  -0.000108  -0.000108  -0.025836  -0.026554   0.575625
 Mulliken atomic charges:
              1
     1  C   -0.207135
     2  C   -0.220363
     3  C   -0.203939
     4  C   -0.185264
     5  C   -0.203948
     6  C   -0.220349
     7  Si   0.431151
     8  C   -0.430701
     9  C   -0.441773
    10  C   -0.430712
    11  H    0.112400
    12  H    0.092463
    13  H    0.107297
    14  H    0.085116
    15  H    0.092467
    16  H    0.112402
    17  H    0.100662
    18  H    0.116905
    19  H    0.116896
    20  H    0.100665
    21  H    0.110065
    22  H    0.114278
    23  H    0.110092
    24  H    0.110107
    25  H    0.106447
    26  H    0.104528
    27  H    0.104637
    28  H    0.106445
    29  H    0.104632
    30  H    0.104529
 Sum of Mulliken atomic charges =   0.00000
 Mulliken charges with hydrogens summed into heavy atoms:
              1
     1  C   -0.097071
     2  C   -0.002796
     3  C    0.000924
     4  C    0.007149
     5  C    0.000921
     6  C   -0.002788
     7  Si   0.431151
     8  C   -0.115095
     9  C   -0.107296
    10  C   -0.115100
 Sum of Mulliken charges with hydrogens summed into heavy atoms =   0.00000
 Electronic spatial extent (au):  <R**2>=           2002.5094
 Charge=              0.0000 electrons
 Dipole moment (field-independent basis, Debye):
    X=              0.1305    Y=              0.0000    Z=             -0.0594  Tot=              0.1434
 Quadrupole moment (field-independent basis, Debye-Ang):
   XX=            -75.4167   YY=            -75.6982   ZZ=            -74.9706
   XY=             -0.0001   XZ=             -0.4418   YZ=             -0.0001
 Traceless Quadrupole moment (field-independent basis, Debye-Ang):
   XX=             -0.0549   YY=             -0.3363   ZZ=              0.3912
   XY=             -0.0001   XZ=             -0.4418   YZ=             -0.0001
 Octapole moment (field-independent basis, Debye-Ang**2):
  XXX=              1.4912  YYY=             -0.0028  ZZZ=             -6.0929  XYY=              5.7269
  XXY=              0.0006  XXZ=              2.1294  XZZ=              0.3769  YZZ=              0.0028
  YYZ=              2.5218  XYZ=              0.0014
 Hexadecapole moment (field-independent basis, Debye-Ang**3):
 XXXX=          -1692.6634 YYYY=           -679.2778 ZZZZ=           -502.5709 XXXY=             -0.0036
 XXXZ=            -19.2736 YYYX=              0.0051 YYYZ=             -0.0016 ZZZX=              9.1853
 ZZZY=              0.0030 XXYY=           -413.2011 XXZZ=           -356.8723 YYZZ=           -198.1830
 XXYZ=             -0.0049 YYXZ=             -3.8216 ZZXY=             -0.0043
 N-N= 6.760106877516D+02 E-N=-2.861224419555D+03  KE= 6.409251246439D+02
 1\1\GINC-ROCK\SP\RMP2-FC\CC-pVTZ\C9H20Si1\STYLIANAKIS\15-Feb-2016\0\\#
  mp2/cc-pVTZ\\trimethylsilylcyclohexane-ax_single_point\\0,1\C\C,1,1.5
 50274\C,2,1.538254,1,113.319\C,3,1.536585,2,111.493,1,54.318,0\C,4,1.5
 36586,3,111.445,2,-54.653,0\C,5,1.538263,4,111.493,3,54.651,0\Si,1,1.9
 21731,2,116.105,3,82.148,0\C,7,1.8986,1,107.897,2,172.717,0\C,7,1.8992
 33,1,116.396,2,-65.741,0\C,7,1.898602,1,107.898,2,55.806,0\H,3,1.09748
 1,4,110.097,5,-176.566,0\H,3,1.097975,4,109.174,5,67.031,0\H,4,1.09728
 8,3,110.331,2,-177.584,0\H,4,1.100181,3,109.045,2,65.777,0\H,5,1.09797
 4,4,109.173,3,-67.032,0\H,5,1.097481,4,110.098,3,176.565,0\H,2,1.10137
 5,3,107.955,4,-65.8,0\H,2,1.097076,3,110.061,4,179.049,0\H,6,1.097077,
 5,110.06,4,-179.045,0\H,6,1.101375,5,107.955,4,65.805,0\H,1,1.103296,2
 ,106.619,3,-167.329,0\H,9,1.097169,7,109.552,1,179.998,0\H,9,1.095335,
 7,112.186,1,-60.752,0\H,9,1.095331,7,112.192,1,60.744,0\H,10,1.096561,
 7,110.548,1,173.212,0\H,10,1.095934,7,112.053,1,-67.07,0\H,10,1.096485
 ,7,111.501,1,53.635,0\H,8,1.09656,7,110.55,1,-173.219,0\H,8,1.096487,7
 ,111.499,1,-53.641,0\H,8,1.095934,7,112.053,1,67.062,0\\Version=EM64L-
 G09RevA.01\State=1-A\HF=-641.564218\MP2=-643.2693326\RMSD=5.884e-09\PG
 =C01 [X(C9H20Si1)]\\@


 ... THE UNIVERSE IS NOT ONLY QUEERER THAN WE SUPPOSE,
 BUT QUEERER THAN WE CAN SUPPOSE ... 

                                   -- J. B. S. HALDANE
 Job cpu time:  0 days  5 hours 59 minutes 59.8 seconds.
 File lengths (MBytes):  RWF=    184 Int=      0 D2E=      0 Chk=     15 Scr=      1
 Normal termination of Gaussian 09 at Mon Feb 15 03:18:16 2016.
