 Entering Link 1 = C:\G03W\l1.exe PID=      3944.
  
 Copyright (c) 1988,1990,1992,1993,1995,1998,2003,2004, Gaussian, Inc.
                  All Rights Reserved.
  
 This is the Gaussian(R) 03 program.  It is based on the
 the Gaussian(R) 98 system (copyright 1998, Gaussian, Inc.),
 the Gaussian(R) 94 system (copyright 1995, Gaussian, Inc.),
 the Gaussian 92(TM) system (copyright 1992, Gaussian, Inc.),
 the Gaussian 90(TM) system (copyright 1990, Gaussian, Inc.),
 the Gaussian 88(TM) system (copyright 1988, Gaussian, Inc.),
 the Gaussian 86(TM) system (copyright 1986, Carnegie Mellon
 University), and the Gaussian 82(TM) system (copyright 1983,
 Carnegie Mellon University). Gaussian is a federally registered
 trademark of Gaussian, Inc.
  
 This software contains proprietary and confidential information,
 including trade secrets, belonging to Gaussian, Inc.
  
 This software is provided under written license and may be
 used, copied, transmitted, or stored only in accord with that
 written license.
  
 The following legend is applicable only to US Government
 contracts under FAR:
  
                    RESTRICTED RIGHTS LEGEND
  
 Use, reproduction and disclosure by the US Government is
 subject to restrictions as set forth in subparagraphs (a)
 and (c) of the Commercial Computer Software - Restricted
 Rights clause in FAR 52.227-19.
  
 Gaussian, Inc.
 340 Quinnipiac St., Bldg. 40, Wallingford CT 06492
  
  
 ---------------------------------------------------------------
 Warning -- This program may not be used in any manner that
 competes with the business of Gaussian, Inc. or will provide
 assistance to any competitor of Gaussian, Inc.  The licensee
 of this program is prohibited from giving any competitor of
 Gaussian, Inc. access to this program.  By using this program,
 the user acknowledges that Gaussian, Inc. is engaged in the
 business of creating and licensing software in the field of
 computational chemistry and represents and warrants to the
 licensee that it is not a competitor of Gaussian, Inc. and that
 it will not use this program in any manner prohibited above.
 ---------------------------------------------------------------
  

 Cite this work as:
 Gaussian 03, Revision D.01,
 M. J. Frisch, G. W. Trucks, H. B. Schlegel, G. E. Scuseria, 
 M. A. Robb, J. R. Cheeseman, J. A. Montgomery, Jr., T. Vreven, 
 K. N. Kudin, J. C. Burant, J. M. Millam, S. S. Iyengar, J. Tomasi, 
 V. Barone, B. Mennucci, M. Cossi, G. Scalmani, N. Rega, 
 G. A. Petersson, H. Nakatsuji, M. Hada, M. Ehara, K. Toyota, 
 R. Fukuda, J. Hasegawa, M. Ishida, T. Nakajima, Y. Honda, O. Kitao, 
 H. Nakai, M. Klene, X. Li, J. E. Knox, H. P. Hratchian, J. B. Cross, 
 V. Bakken, C. Adamo, J. Jaramillo, R. Gomperts, R. E. Stratmann, 
 O. Yazyev, A. J. Austin, R. Cammi, C. Pomelli, J. W. Ochterski, 
 P. Y. Ayala, K. Morokuma, G. A. Voth, P. Salvador, J. J. Dannenberg, 
 V. G. Zakrzewski, S. Dapprich, A. D. Daniels, M. C. Strain, 
 O. Farkas, D. K. Malick, A. D. Rabuck, K. Raghavachari, 
 J. B. Foresman, J. V. Ortiz, Q. Cui, A. G. Baboul, S. Clifford, 
 J. Cioslowski, B. B. Stefanov, G. Liu, A. Liashenko, P. Piskorz, 
 I. Komaromi, R. L. Martin, D. J. Fox, T. Keith, M. A. Al-Laham, 
 C. Y. Peng, A. Nanayakkara, M. Challacombe, P. M. W. Gill, 
 B. Johnson, W. Chen, M. W. Wong, C. Gonzalez, and J. A. Pople, 
 Gaussian, Inc., Wallingford CT, 2004.
 
 ******************************************
 Gaussian 03:  IA32W-G03RevD.01 13-Oct-2005
                13-Dec-2007 
 ******************************************
 --------------
 # opt dreiding
 --------------
 1/6=10,10=10,14=-1,18=4000020,38=1,56=1,64=1/1,3;
 2/9=110,17=6,18=5,40=1/2;
 3/5=30,11=9,16=1,25=1,30=1/1;
 4/20=9,22=1001,24=3/2;
 7/44=-1/16;
 1/6=10,10=10,14=-1,18=4000020,64=1/3(2);
 2/9=110/2;
 99//99;
 2/9=110/2;
 3/5=30,11=9,16=1,25=1,30=1/1;
 4/16=2,20=9,22=1001,24=3/2;
 7/44=-1/16;
 1/6=10,10=10,14=-1,18=4000020,64=1/3(-4);
 2/9=110/2;
 99//99;
 -----------------
 4-methylthiane-ax
 -----------------
 Symbolic Z-matrix:
 Charge =  0 Multiplicity = 1
 C                    -1.001    -0.87495   0.79867 
 C                    -0.34     -1.55095  -0.41433 
 S                     1.331    -0.90295  -0.53333 
 C                    -0.987     0.66905   0.77167 
 C                     1.315     0.88905  -0.41533 
 C                     0.443     1.25505   0.79767 
 H                    -0.501    -1.22595   1.73267 
 H                    -2.058    -1.22895   0.86867 
 H                    -0.915    -1.32095  -1.33933 
 H                    -0.332    -2.65895  -0.29833 
 H                    -1.485     1.00805   1.71567 
 C                    -1.83      1.24105  -0.38133 
 H                     0.888     1.33805  -1.34033 
 H                     0.38      2.36705   0.86767 
 H                     2.347     1.29305  -0.30033 
 H                     0.955     0.92005   1.73267 
 H                    -2.879     0.86705  -0.33333 
 H                    -1.871     2.35305  -0.33433 
 H                    -1.425     0.96605  -1.38033 
 
 Include all MM classes
 MMInit generated parameter data with length LenPar=  2152.

 GradGradGradGradGradGradGradGradGradGradGradGradGradGradGradGradGradGrad
 Berny optimization.
 Initialization pass.
 No Z-matrix variables, so optimization will use Cartesian coordinates.
 Trust Radius=1.00D-01 FncErr=1.00D-07 GrdErr=1.00D-07
 Number of steps in this run=   2 maximum allowed number of steps=   2.
 GradGradGradGradGradGradGradGradGradGradGradGradGradGradGradGradGradGrad

                          Input orientation:                          
 ---------------------------------------------------------------------
 Center     Atomic     Atomic              Coordinates (Angstroms)
 Number     Number      Type              X           Y           Z
 ---------------------------------------------------------------------
    1          6      10061003       -1.001000   -0.874953    0.798672
    2          6      10061003       -0.340000   -1.550953   -0.414328
    3         16      10161003        1.331000   -0.902953   -0.533328
    4          6      10061003       -0.987000    0.669047    0.771672
    5          6      10061003        1.315000    0.889047   -0.415328
    6          6      10061003        0.443000    1.255047    0.797672
    7          1      10011000       -0.501000   -1.225953    1.732672
    8          1      10011000       -2.058000   -1.228953    0.868672
    9          1      10011000       -0.915000   -1.320953   -1.339328
   10          1      10011000       -0.332000   -2.658953   -0.298328
   11          1      10011000       -1.485000    1.008047    1.715672
   12          6      10061003       -1.830000    1.241047   -0.381328
   13          1      10011000        0.888000    1.338047   -1.340328
   14          1      10011000        0.380000    2.367047    0.867672
   15          1      10011000        2.347000    1.293047   -0.300328
   16          1      10011000        0.955000    0.920047    1.732672
   17          1      10011000       -2.879000    0.867047   -0.333328
   18          1      10011000       -1.871000    2.353047   -0.334328
   19          1      10011000       -1.425000    0.966047   -1.380328
 ---------------------------------------------------------------------
                    Distance matrix (angstroms):
                    1          2          3          4          5
     1  C    0.000000
     2  C    1.537942   0.000000
     3  S    2.685746   1.796192   0.000000
     4  C    1.544300   2.598770   3.089876   0.000000
     5  C    3.154259   2.948326   1.795952   2.599341   0.000000
     6  C    2.573332   3.155261   2.686460   1.545630   1.538086
     7  H    1.116045   2.177419   2.931776   2.179620   3.519231
     8  H    1.116900   2.168247   3.682010   2.181480   4.184699
     9  H    2.185716   1.113171   2.422576   2.902000   3.272732
    10  H    2.198551   1.114084   2.429883   3.556615   3.913388
    11  H    2.149613   3.520853   4.079188   1.119849   3.520699
    12  C    2.560683   3.164878   3.822533   1.538584   3.164820
    13  H    3.611234   3.272886   2.422721   2.902366   1.113353
    14  H    3.524555   4.184812   3.682404   2.181997   2.169055
    15  H    4.137285   3.914243   2.430835   3.557262   1.114210
    16  H    2.814306   3.520295   2.932484   2.181258   2.178179
    17  H    2.800513   3.507108   4.571324   2.199976   4.194859
    18  H    3.529954   4.194231   4.570989   2.200125   3.507200
    19  H    2.883938   2.906143   3.436001   2.216113   2.905986
                    6          7          8          9         10
     6  C    0.000000
     7  H    2.814378   0.000000
     8  H    3.525663   1.780661   0.000000
     9  H    3.612023   3.101226   2.488007   0.000000
    10  H    4.137782   2.491387   2.527027   1.792711   0.000000
    11  H    2.149632   2.441168   2.459656   3.883576   4.339642
    12  C    2.560618   3.510175   2.777658   2.884239   4.178623
    13  H    2.185397   4.236360   4.488662   3.212645   4.306991
    14  H    1.115981   3.799215   4.344544   4.488788   5.208376
    15  H    2.198241   4.311561   5.208749   4.307338   4.774448
    16  H    1.117405   2.593309   3.800377   4.237472   4.311678
    17  H    3.530636   3.782048   2.551874   3.107519   4.349840
    18  H    2.800290   4.354151   3.783240   3.927116   5.243087
    19  H    2.883857   3.917832   3.205732   2.343534   3.937766
                   11         12         13         14         15
    11  H    0.000000
    12  C    2.137925   0.000000
    13  H    3.883190   2.883854   0.000000
    14  H    2.458498   2.777045   2.488407   0.000000
    15  H    4.339321   4.178109   1.792291   2.527210   0.000000
    16  H    2.441646   3.511162   3.102022   1.781196   2.491963
    17  H    2.482241   1.114711   3.927617   3.783316   5.243438
    18  H    2.482040   1.113748   3.107144   2.551862   4.349285
    19  H    3.096866   1.112498   2.343065   3.205360   3.937171
                   16         17         18         19
    16  H    0.000000
    17  H    4.355539   0.000000
    18  H    3.783154   1.795623   0.000000
    19  H    3.918837   1.794471   1.793544   0.000000
 Stoichiometry    C6H12S
 Framework group  C1[X(C6H12S)]
 Deg. of freedom    51
 Full point group                 C1
 Largest Abelian subgroup         C1      NOp   1
 Largest concise Abelian subgroup C1      NOp   1
                         Standard orientation:                         
 ---------------------------------------------------------------------
 Center     Atomic     Atomic              Coordinates (Angstroms)
 Number     Number      Type              X           Y           Z
 ---------------------------------------------------------------------
    1          6      10061003       -0.520460   -1.286266    0.692866
    2          6      10061003        0.672192   -1.474246   -0.259769
    3         16      10161003        1.689655    0.000108   -0.128030
    4          6      10061003       -1.343751   -0.000642    0.460003
    5          6      10061003        0.672074    1.474080   -0.259869
    6          6      10061003       -0.521120    1.287066    0.692507
    7          1      10011000       -0.153955   -1.296348    1.746967
    8          1      10011000       -1.193233   -2.172617    0.596833
    9          1      10011000        0.309204   -1.606405   -1.303763
   10          1      10011000        1.254094   -2.386731    0.004706
   11          1      10011000       -2.156824    0.000039    1.230051
   12          6      10061003       -2.053009   -0.000151   -0.905352
   13          1      10011000        0.308618    1.606240   -1.303894
   14          1      10011000       -1.194396    2.171926    0.596926
   15          1      10011000        1.252745    2.387717    0.003862
   16          1      10011000       -0.153939    1.296961    1.747815
   17          1      10011000       -2.703138   -0.898556   -1.018412
   18          1      10011000       -2.703052    0.897066   -1.018837
   19          1      10011000       -1.336152   -0.000059   -1.756097
 ---------------------------------------------------------------------
 Rotational constants (GHZ):      3.0422361      2.0148617      1.5272565
 Standard basis: Dummy (5D, 7F)
 There are    19 symmetry adapted basis functions of A   symmetry.
 Integral buffers will be    262144 words long.
 Raffenetti 1 integral format.
 Two-electron integral symmetry is turned on.
    19 basis functions,    19 primitive gaussians,    19 cartesian basis functions
    13 alpha electrons       13 beta electrons
       nuclear repulsion energy        68.2552754920 Hartrees.
 NAtoms=   19 NActive=   19 NUniq=   19 SFac= 7.50D-01 NAtFMM=   80 NAOKFM=F Big=F
 Dreiding calculation of energy and first derivatives.
 MO and density RWFs will be updated without deorthogonalization.
 NRF= 0 NRA=   0 NVA=  19 HaveQM=F
 Convergence limit is  0.750E-04 MaxStp=  5000 StMxLn= 1.00D-04 StpMin= 1.00D-06.
 Convergence criteria           0.00011250 0.00007500 0.00045000 0.00030000
  Step  NS  ND Rises OKQ   Scale  Max. Force  RMS Force Max. Disp.  RMS Disp.     Energy   Flag
     1   0   0   F    T  1.00D+00 0.04087328 0.01206119 0.04087328 0.01206119    0.0338571 ----
     2   0   0   F    F  3.85D-01 0.04087328 0.01206119 0.04087328 0.01206119    0.0285638 ----
     3   0   0   F    T  3.73D+00 0.01531337 0.00422870 0.02033685 0.00448107    0.0281210 ----
     4   0   0   F    F  3.02D-01 0.01531337 0.00422870 0.07582125 0.01670662    0.0257745 ----
     5   0   0   F    T  3.71D+00 0.01303586 0.00409984 0.01786190 0.00586239    0.0256404 ----
     6   0   0   F    F -2.90D-01 0.01303586 0.00409984 0.06628637 0.02175560    0.0245886 ----
     7   0   0   F    T  4.57D+00 0.00612751 0.00252449 0.00925956 0.00337885    0.0243799 ----
     8   0   0   F    F -2.81D-01 0.00612751 0.00252449 0.04234862 0.01545318    0.0238732 ----
     9   0   0   F    T  3.08D+00 0.00788797 0.00228829 0.01126105 0.00360679    0.0237826 ----
    10   0   0   F    F  4.38D-02 0.00788797 0.00228829 0.03471207 0.01111791    0.0233030 ----
    11   0   0   F    T  2.79D+00 0.00706303 0.00224897 0.01370360 0.00415364    0.0233021 ----
    12   0   0   F    F  1.92D-01 0.00706303 0.00224897 0.03828833 0.01160541    0.0228341 ----
    13   0   0   F    T  4.47D+00 0.00575333 0.00176152 0.00920816 0.00309432    0.0228216 ----
    14   0   0   F    F -4.80D-01 0.00575333 0.00176152 0.04118166 0.01383872    0.0227914 ----
    15   0   0   F    T  4.23D+00 0.00402485 0.00112726 0.00528065 0.00169904    0.0226163 ----
    16   0   0   F    F  9.76D-01 0.00402485 0.00112726 0.02234652 0.00718994    0.0223876 ----
    17   0   0   F    T  2.60D+00 0.00527511 0.00195290 0.01927131 0.00546064    0.0223140 ----
    18   0   0   F    F  4.09D-02 0.00527511 0.00195290 0.05012766 0.01420396    0.0220212 ----
    19   0   0   F    T  3.37D+00 0.00420131 0.00166552 0.01707313 0.00438589    0.0220208 ----
    20   0   0   F    F  2.55D-01 0.00420131 0.00166552 0.05755547 0.01478535    0.0216977 ----
    21   0   0   F    T  3.63D+00 0.00523388 0.00174711 0.02005811 0.00511783    0.0216836 ----
    22   0   0   F    F -9.25D-02 0.00523388 0.00174711 0.07271915 0.01855429    0.0213983 ----
    23   0   0   F    T  4.10D+00 0.00343921 0.00154290 0.01479084 0.00410815    0.0213953 ----
    24   0   0   F    F -1.55D-01 0.00343921 0.00154290 0.06062449 0.01683843    0.0211687 ----
    25   0   0   F    T  4.84D+00 0.00346506 0.00125372 0.00904042 0.00293921    0.0211608 ----
    26   0   0   F    F  4.44D-01 0.00346506 0.00125372 0.04375631 0.01422600    0.0208775 ----
    27   0   0   F    T  3.23D+00 0.00502489 0.00179849 0.01981459 0.00635933    0.0208480 ----
    28   0   0   F    F -4.72D-01 0.00502489 0.00179849 0.06401667 0.02054563    0.0208165 ----
    29   0   0   F    T  8.41D+00 0.00226522 0.00073487 0.00422733 0.00129001    0.0206908 ----
    30   0   0   F    F -4.32D-01 0.00226522 0.00073487 0.03555374 0.01084956    0.0206601 ----
    31   0   0   F    T  2.10D+00 0.00333949 0.00106958 0.00907552 0.00293213    0.0206171 ----
    32   0   0   F    F  8.00D-01 0.00333949 0.00106958 0.01907008 0.00616118    0.0205181 ----
    33   0   0   F    T  6.29D+00 0.00227856 0.00079585 0.00527500 0.00176344    0.0204937 ----
    34   0   0   F    F -2.44D-01 0.00227856 0.00079585 0.03316908 0.01108848    0.0204168 ----
    35   0   0   F    T  2.73D+00 0.00272646 0.00102204 0.00873050 0.00306615    0.0204078 ----
    36   0   0   F    F  5.09D-01 0.00272646 0.00102204 0.02386568 0.00838163    0.0202995 ----
    37   0   0   F    T  7.44D+00 0.00211888 0.00071610 0.00445758 0.00169943    0.0202857 ----
    38   0   0   T    F  2.79D-01 0.00211888 0.00071610 0.03317116 0.01264634    0.0204566 ----
    39   0   0   F    T  3.34D+00 0.00156580 0.00052232 0.00299952 0.00105784    0.0202554 ----
    40   0   0   F    F  2.66D-01 0.00156580 0.00052232 0.01000568 0.00352870    0.0202240 ----
    41   0   0   F    T  3.71D+00 0.00153350 0.00052788 0.00349367 0.00120465    0.0202226 ----
    42   0   0   F    F -3.63D-01 0.00153350 0.00052788 0.01295892 0.00446836    0.0202099 ----
    43   0   0   F    T  6.28D+00 0.00085483 0.00028547 0.00104537 0.00045342    0.0202038 ----
    44   0   0   T    F  4.29D-01 0.00085483 0.00028547 0.00656541 0.00284767    0.0202086 ----
    45   0   0   F    T  4.97D+00 0.00043966 0.00017577 0.00053936 0.00024585    0.0201976 ---+
    46   0   0   F    F -4.64D-01 0.00043966 0.00017577 0.00267904 0.00122117    0.0201970 ----
    47   0   0   F    T  2.46D+00 0.00050232 0.00016268 0.00067523 0.00026608    0.0201952 ---+
    48   0   0   F    F  1.26D-01 0.00050232 0.00016268 0.00166235 0.00065506    0.0201931 ----
    49   0   0   F    T  5.32D+00 0.00025056 0.00009853 0.00034016 0.00013872    0.0201931 --++
    50   0   0   F    F -2.59D-01 0.00025056 0.00009853 0.00180929 0.00073783    0.0201922 ----
    51   0   0   F    T  2.89D+00 0.00027308 0.00010490 0.00053273 0.00018905    0.0201920 ---+
    52   0   0   F    F  2.64D-01 0.00027308 0.00010490 0.00153964 0.00054639    0.0201909 ----
    53   0   0   F    T  2.85D+00 0.00027223 0.00011193 0.00071283 0.00024259    0.0201909 ---+
    54   0   0   F    F  8.94D-01 0.00027223 0.00011193 0.00202932 0.00069063    0.0201894 ----
    55   0   0   F    T  6.26D+00 0.00025089 0.00009751 0.00056792 0.00020890    0.0201890 ---+
    56   0   0   T    F  3.52D-01 0.00025089 0.00009751 0.00355685 0.00130832    0.0201904 ----
    57   0   0   F    T  2.94D+00 0.00019825 0.00007854 0.00047770 0.00015671    0.0201884 ---+
    58   0   0   F    F  6.22D-01 0.00019825 0.00007854 0.00140473 0.00046083    0.0201876 ----
    59   0   0   F    T  4.10D+00 0.00023659 0.00008028 0.00050874 0.00018234    0.0201875 ---+
    60   0   0   F    F -4.17D-01 0.00023659 0.00008028 0.00208532 0.00074742    0.0201873 ----
    61   0   0   F    T  4.19D+00 0.00013405 0.00005575 0.00024860 0.00010408    0.0201871 -+++
    62   0   0   F    F -2.93D-01 0.00013405 0.00005575 0.00104109 0.00043587    0.0201869 -+--
    63   0   0   F    T  4.32D+00 0.00010627 0.00004159 0.00019551 0.00007132    0.0201868 ====
 Energy=    0.020186816056 NIter=   0.
 Dipole moment=       0.000000       0.000000       0.000000
 ***** Axes restored to original set *****
 -------------------------------------------------------------------
 Center     Atomic                   Forces (Hartrees/Bohr)
 Number     Number              X              Y              Z
 -------------------------------------------------------------------
    1          6           0.000029127   -0.000062174   -0.000063864
    2          6          -0.000045029   -0.000005953    0.000051998
    3         16           0.000008834    0.000016567   -0.000036237
    4          6           0.000104612    0.000057439   -0.000042493
    5          6           0.000035610   -0.000011387   -0.000003718
    6          6          -0.000027861    0.000078892    0.000090885
    7          1          -0.000014649    0.000025622    0.000015680
    8          1           0.000001888   -0.000003690    0.000011656
    9          1           0.000025756   -0.000018403    0.000053292
   10          1          -0.000004371    0.000023390   -0.000025302
   11          1          -0.000003629   -0.000008465    0.000003044
   12          6          -0.000050311    0.000009130   -0.000080790
   13          1           0.000025759   -0.000015525    0.000056353
   14          1           0.000004570   -0.000099862   -0.000001068
   15          1          -0.000030788   -0.000004762   -0.000023621
   16          1          -0.000054227    0.000009062   -0.000059431
   17          1           0.000046406    0.000007091    0.000011619
   18          1           0.000017347   -0.000046497    0.000016619
   19          1          -0.000069044    0.000049524    0.000025376
 -------------------------------------------------------------------
 Cartesian Forces:  Max     0.000104612 RMS     0.000041591

 GradGradGradGradGradGradGradGradGradGradGradGradGradGradGradGradGradGrad
 Berny optimization.
 Search for a local minimum.
 Step number   1 out of a maximum of   2
 All quantities printed in internal units (Hartrees-Bohrs-Radians)
 Second derivative matrix not updated -- unit matrix used.
 RFO step:  Lambda=-9.85992314D-08.
 Linear search not attempted -- first point.
 TrRot=  0.000000  0.000000  0.000000  0.000000  0.000000  0.000000
 Variable       Old X    -DE/DX   Delta X   Delta X   Delta X     New X
                                 (Linear)    (Quad)   (Total)
    X1       -1.92381   0.00003   0.00000   0.00003   0.00003  -1.92378
    Y1       -1.64070  -0.00006   0.00000  -0.00006  -0.00006  -1.64076
    Z1        1.44319  -0.00006   0.00000  -0.00006  -0.00006   1.44313
    X2       -0.41865  -0.00005   0.00000  -0.00005  -0.00005  -0.41870
    Y2       -2.82084  -0.00001   0.00000  -0.00001  -0.00001  -2.82084
    Z2       -0.77337   0.00005   0.00000   0.00005   0.00005  -0.77332
    X3        2.88953   0.00001   0.00000   0.00001   0.00001   2.88954
    Y3       -1.95942   0.00002   0.00000   0.00002   0.00002  -1.95940
    Z3       -0.68170  -0.00004   0.00000  -0.00004  -0.00004  -0.68174
    X4       -1.92712   0.00010   0.00000   0.00010   0.00010  -1.92701
    Y4        1.30720   0.00006   0.00000   0.00006   0.00006   1.30726
    Z4        1.47772  -0.00004   0.00000  -0.00004  -0.00004   1.47767
    X5        2.46542   0.00004   0.00000   0.00004   0.00004   2.46546
    Y5        1.43269  -0.00001   0.00000  -0.00001  -0.00001   1.43268
    Z5       -0.77513   0.00000   0.00000   0.00000   0.00000  -0.77513
    X6        0.81292  -0.00003   0.00000  -0.00003  -0.00003   0.81289
    Y6        2.39528   0.00008   0.00000   0.00008   0.00008   2.39536
    Z6        1.44132   0.00009   0.00000   0.00009   0.00009   1.44141
    X7       -1.11631  -0.00001   0.00000  -0.00001  -0.00001  -1.11632
    Y7       -2.32866   0.00003   0.00000   0.00003   0.00003  -2.32863
    Z7        3.21808   0.00002   0.00000   0.00002   0.00002   3.21810
    X8       -3.87024   0.00000   0.00000   0.00000   0.00000  -3.87023
    Y8       -2.32975   0.00000   0.00000   0.00000   0.00000  -2.32975
    Z8        1.36270   0.00001   0.00000   0.00001   0.00001   1.36271
    X9       -1.22440   0.00003   0.00000   0.00003   0.00003  -1.22438
    Y9       -2.25751  -0.00002   0.00000  -0.00002  -0.00002  -2.25753
    Z9       -2.58625   0.00005   0.00000   0.00005   0.00005  -2.58620
   X10       -0.53541   0.00000   0.00000   0.00000   0.00000  -0.53541
   Y10       -4.87657   0.00002   0.00000   0.00002   0.00002  -4.87654
   Z10       -0.64530  -0.00003   0.00000  -0.00003  -0.00003  -0.64532
   X11       -2.76615   0.00000   0.00000   0.00000   0.00000  -2.76615
   Y11        1.87709  -0.00001   0.00000  -0.00001  -0.00001   1.87708
   Z11        3.28254   0.00000   0.00000   0.00000   0.00000   3.28254
   X12       -3.64734  -0.00005   0.00000  -0.00005  -0.00005  -3.64739
   Y12        2.47297   0.00001   0.00000   0.00001   0.00001   2.47298
   Z12       -0.60204  -0.00008   0.00000  -0.00008  -0.00008  -0.60212
   X13        1.64324   0.00003   0.00000   0.00003   0.00003   1.64326
   Y13        1.97170  -0.00002   0.00000  -0.00002  -0.00002   1.97169
   Z13       -2.58803   0.00006   0.00000   0.00006   0.00006  -2.58798
   X14        0.73259   0.00000   0.00000   0.00000   0.00000   0.73259
   Y14        4.45879  -0.00010   0.00000  -0.00010  -0.00010   4.45869
   Z14        1.35988   0.00000   0.00000   0.00000   0.00000   1.35988
   X15        4.33205  -0.00003   0.00000  -0.00003  -0.00003   4.33202
   Y15        2.30203   0.00000   0.00000   0.00000   0.00000   2.30202
   Z15       -0.64822  -0.00002   0.00000  -0.00002  -0.00002  -0.64825
   X16        1.75157  -0.00005   0.00000  -0.00005  -0.00005   1.75151
   Y16        1.90086   0.00001   0.00000   0.00001   0.00001   1.90086
   Z16        3.21644  -0.00006   0.00000  -0.00006  -0.00006   3.21638
   X17       -5.57626   0.00005   0.00000   0.00005   0.00005  -5.57621
   Y17        1.76486   0.00001   0.00000   0.00001   0.00001   1.76486
   Z17       -0.41146   0.00001   0.00000   0.00001   0.00001  -0.41145
   X18       -3.70328   0.00002   0.00000   0.00002   0.00002  -3.70327
   Y18        4.52711  -0.00005   0.00000  -0.00005  -0.00005   4.52706
   Z18       -0.41266   0.00002   0.00000   0.00002   0.00002  -0.41264
   X19       -2.97003  -0.00007   0.00000  -0.00007  -0.00007  -2.97010
   Y19        2.01284   0.00005   0.00000   0.00005   0.00005   2.01289
   Z19       -2.49242   0.00003   0.00000   0.00003   0.00003  -2.49239
         Item               Value     Threshold  Converged?
 Maximum Force            0.000105     0.000450     YES
 RMS     Force            0.000042     0.000300     YES
 Maximum Displacement     0.000105     0.001800     YES
 RMS     Displacement     0.000042     0.001200     YES
 Predicted change in Energy=-4.929961D-08
 Optimization completed.
    -- Stationary point found.
 GradGradGradGradGradGradGradGradGradGradGradGradGradGradGradGradGradGrad

                          Input orientation:                          
 ---------------------------------------------------------------------
 Center     Atomic     Atomic              Coordinates (Angstroms)
 Number     Number      Type              X           Y           Z
 ---------------------------------------------------------------------
    1          6      10061003       -1.018034   -0.868222    0.763705
    2          6      10061003       -0.221541   -1.492723   -0.409249
    3         16      10161003        1.529073   -1.036880   -0.360741
    4          6      10061003       -1.019785    0.691740    0.781974
    5          6      10061003        1.304646    0.758149   -0.410181
    6          6      10061003        0.430180    1.267530    0.762713
    7          1      10011000       -0.590726   -1.232273    1.702934
    8          1      10011000       -2.048041   -1.232850    0.721110
    9          1      10011000       -0.647927   -1.194623   -1.368585
   10          1      10011000       -0.283324   -2.580568   -0.341475
   11          1      10011000       -1.463782    0.993314    1.737044
   12          6      10061003       -1.930091    1.308640   -0.318585
   13          1      10011000        0.869564    1.043381   -1.369528
   14          1      10011000        0.387670    2.359492    0.719620
   15          1      10011000        2.292422    1.218180   -0.343025
   16          1      10011000        0.926890    1.005890    1.702067
   17          1      10011000       -2.950829    0.933923   -0.217734
   18          1      10011000       -1.959693    2.395642   -0.218369
   19          1      10011000       -1.571671    1.065149   -1.318931
 ---------------------------------------------------------------------
                    Distance matrix (angstroms):
                    1          2          3          4          5
     1  C    0.000000
     2  C    1.549265   0.000000
     3  S    2.789369   1.809639   0.000000
     4  C    1.560070   2.613060   3.284905   0.000000
     5  C    3.068865   2.719498   1.809680   2.613163   0.000000
     6  C    2.580458   3.068750   2.789268   1.560226   1.549141
     7  H    1.094202   2.159965   2.964875   2.175795   3.466910
     8  H    1.093472   2.163642   3.742265   2.182902   4.060099
     9  H    2.188648   1.091327   2.404155   2.884710   2.923080
    10  H    2.166414   1.091703   2.380783   3.537302   3.697756
    11  H    2.147416   3.511426   4.180857   1.095554   3.511420
    12  C    2.596523   3.282530   4.179600   1.555780   3.282522
    13  H    3.430443   2.923093   2.404182   2.884832   1.091330
    14  H    3.520808   4.060178   3.742369   2.183167   2.163699
    15  H    4.066577   3.697754   2.380821   3.537440   1.091714
    16  H    2.859292   3.466931   2.964913   2.175961   2.160015
    17  H    2.818979   3.657089   4.896329   2.187921   4.263449
    18  H    3.536100   4.263448   4.896322   2.188012   3.657059
    19  H    2.895136   3.032010   3.866688   2.204045   3.032042
                    6          7          8          9         10
     6  C    0.000000
     7  H    2.859244   0.000000
     8  H    3.520683   1.757198   0.000000
     9  H    3.430298   3.072283   2.515672   0.000000
    10  H    4.066469   2.468199   2.461636   1.763159   0.000000
    11  H    2.147465   2.390947   2.515808   3.885566   4.299576
    12  C    2.596493   3.512361   2.748464   3.002129   4.223541
    13  H    2.188551   4.092808   4.250225   2.703968   3.939422
    14  H    1.093639   3.850317   4.340232   4.250271   5.097092
    15  H    2.166342   4.301536   5.097014   3.939422   4.589657
    16  H    1.094332   2.704169   3.850252   4.092824   4.301553
    17  H    3.536070   3.735165   2.528114   3.340438   4.413902
    18  H    2.818981   4.327499   3.749184   3.991708   5.252431
    19  H    2.895101   3.920724   3.109582   2.441791   3.988297
                   11         12         13         14         15
    11  H    0.000000
    12  C    2.131311   0.000000
    13  H    3.885589   3.002151   0.000000
    14  H    2.515843   2.748486   2.515733   0.000000
    15  H    4.299572   4.223552   1.763176   2.461684   0.000000
    16  H    2.390960   3.512411   3.072359   1.757328   2.468227
    17  H    2.456826   1.092012   3.991743   3.749194   5.252445
    18  H    2.456846   1.092013   3.340430   2.528090   4.413891
    19  H    3.058723   1.090159   2.441856   3.109667   3.988361
                   16         17         18         19
    16  H    0.000000
    17  H    4.327530   0.000000
    18  H    3.735217   1.766062   0.000000
    19  H    3.920810   1.769727   1.769748   0.000000
 Stoichiometry    C6H12S
 Framework group  C1[X(C6H12S)]
 Deg. of freedom    51
 Full point group                 C1
 Largest Abelian subgroup         C1      NOp   1
 Largest concise Abelian subgroup C1      NOp   1
                         Standard orientation:                         
 ---------------------------------------------------------------------
 Center     Atomic     Atomic              Coordinates (Angstroms)
 Number     Number      Type              X           Y           Z
 ---------------------------------------------------------------------
    1          6      10061003       -0.533039   -1.290249    0.633904
    2          6      10061003        0.676639   -1.359728   -0.331536
    3         16      10161003        1.840016   -0.000026   -0.062168
    4          6      10061003       -1.398193   -0.000077    0.489743
    5          6      10061003        0.676669    1.359770   -0.331467
    6          6      10061003       -0.532923    1.290208    0.633877
    7          1      10011000       -0.158865   -1.352113    1.660278
    8          1      10011000       -1.161748   -2.170060    0.471609
    9          1      10011000        0.343317   -1.351927   -1.370685
   10          1      10011000        1.213789   -2.294821   -0.161570
   11          1      10011000       -2.102691    0.000017    1.328744
   12          6      10061003       -2.274729    0.000073   -0.795612
   13          1      10011000        0.343372    1.352041   -1.370628
   14          1      10011000       -1.161741    2.170172    0.471710
   15          1      10011000        1.213862    2.294836   -0.161424
   16          1      10011000       -0.158809    1.352056    1.660413
   17          1      10011000       -2.916930   -0.882940   -0.814477
   18          1      10011000       -2.916882    0.883122   -0.814456
   19          1      10011000       -1.663470    0.000046   -1.698279
 ---------------------------------------------------------------------
 Rotational constants (GHZ):      3.3227074      1.8047931      1.4249207
 1|1|UNPC-UNK|FOpt|Dreiding|ZDO|C6H12S1|PCUSER|13-Dec-2007|0||# opt dre
 iding||4-methylthiane-ax||0,1|C,-1.0180343829,-0.8682222454,0.76370512
 75|C,-0.2215407033,-1.4927228593,-0.4092485729|S,1.5290732032,-1.03687
 98861,-0.3607405325|C,-1.0197853954,0.6917397849,0.7819738442|C,1.3046
 457159,0.7581489212,-0.4101806072|C,0.4301799338,1.2675297804,0.762713
 1402|H,-0.5907258593,-1.2322729975,1.7029344202|H,-2.048040617,-1.2328
 503725,0.7211102784|H,-0.6479269343,-1.1946234399,-1.3685852593|H,-0.2
 833244355,-2.5805675307,-0.341475472|H,-1.4637816459,0.9933139188,1.73
 70443438|C,-1.930090945,1.3086404291,-0.3185846447|H,0.869563897,1.043
 3812635,-1.3695282519|H,0.3876696439,2.3594923092,0.719619928|H,2.2924
 21826,1.2181799597,-0.3430249986|H,0.9268898408,1.0058895571,1.7020671
 161|H,-2.9508289831,0.9339225318,-0.2177339952|H,-1.9596929413,2.39564
 21054,-0.2183688431|H,-1.5716712178,1.0651493904,-1.3189313612||Versio
 n=IA32W-G03RevD.01|HF=0.0201868|RMSD=0.000e+000|RMSF=4.159e-005|Therma
 l=0.|Dipole=0.,0.,0.|PG=C01 [X(C6H12S1)]||@


 It is also a good rule not to put too much confidence in
 experimental results until they have been confirmed by
 Theory.
                             -- Sir Arthur Eddington
 Job cpu time:  0 days  0 hours  0 minutes  3.0 seconds.
 File lengths (MBytes):  RWF=     11 Int=      0 D2E=      0 Chk=      4 Scr=      1
 Normal termination of Gaussian 03 at Thu Dec 13 16:38:34 2007.
