 Entering Link 1 = C:\G03W\l1.exe PID=      3712.
  
 Copyright (c) 1988,1990,1992,1993,1995,1998,2003,2004, Gaussian, Inc.
                  All Rights Reserved.
  
 This is the Gaussian(R) 03 program.  It is based on the
 the Gaussian(R) 98 system (copyright 1998, Gaussian, Inc.),
 the Gaussian(R) 94 system (copyright 1995, Gaussian, Inc.),
 the Gaussian 92(TM) system (copyright 1992, Gaussian, Inc.),
 the Gaussian 90(TM) system (copyright 1990, Gaussian, Inc.),
 the Gaussian 88(TM) system (copyright 1988, Gaussian, Inc.),
 the Gaussian 86(TM) system (copyright 1986, Carnegie Mellon
 University), and the Gaussian 82(TM) system (copyright 1983,
 Carnegie Mellon University). Gaussian is a federally registered
 trademark of Gaussian, Inc.
  
 This software contains proprietary and confidential information,
 including trade secrets, belonging to Gaussian, Inc.
  
 This software is provided under written license and may be
 used, copied, transmitted, or stored only in accord with that
 written license.
  
 The following legend is applicable only to US Government
 contracts under FAR:
  
                    RESTRICTED RIGHTS LEGEND
  
 Use, reproduction and disclosure by the US Government is
 subject to restrictions as set forth in subparagraphs (a)
 and (c) of the Commercial Computer Software - Restricted
 Rights clause in FAR 52.227-19.
  
 Gaussian, Inc.
 340 Quinnipiac St., Bldg. 40, Wallingford CT 06492
  
  
 ---------------------------------------------------------------
 Warning -- This program may not be used in any manner that
 competes with the business of Gaussian, Inc. or will provide
 assistance to any competitor of Gaussian, Inc.  The licensee
 of this program is prohibited from giving any competitor of
 Gaussian, Inc. access to this program.  By using this program,
 the user acknowledges that Gaussian, Inc. is engaged in the
 business of creating and licensing software in the field of
 computational chemistry and represents and warrants to the
 licensee that it is not a competitor of Gaussian, Inc. and that
 it will not use this program in any manner prohibited above.
 ---------------------------------------------------------------
  

 Cite this work as:
 Gaussian 03, Revision D.01,
 M. J. Frisch, G. W. Trucks, H. B. Schlegel, G. E. Scuseria, 
 M. A. Robb, J. R. Cheeseman, J. A. Montgomery, Jr., T. Vreven, 
 K. N. Kudin, J. C. Burant, J. M. Millam, S. S. Iyengar, J. Tomasi, 
 V. Barone, B. Mennucci, M. Cossi, G. Scalmani, N. Rega, 
 G. A. Petersson, H. Nakatsuji, M. Hada, M. Ehara, K. Toyota, 
 R. Fukuda, J. Hasegawa, M. Ishida, T. Nakajima, Y. Honda, O. Kitao, 
 H. Nakai, M. Klene, X. Li, J. E. Knox, H. P. Hratchian, J. B. Cross, 
 V. Bakken, C. Adamo, J. Jaramillo, R. Gomperts, R. E. Stratmann, 
 O. Yazyev, A. J. Austin, R. Cammi, C. Pomelli, J. W. Ochterski, 
 P. Y. Ayala, K. Morokuma, G. A. Voth, P. Salvador, J. J. Dannenberg, 
 V. G. Zakrzewski, S. Dapprich, A. D. Daniels, M. C. Strain, 
 O. Farkas, D. K. Malick, A. D. Rabuck, K. Raghavachari, 
 J. B. Foresman, J. V. Ortiz, Q. Cui, A. G. Baboul, S. Clifford, 
 J. Cioslowski, B. B. Stefanov, G. Liu, A. Liashenko, P. Piskorz, 
 I. Komaromi, R. L. Martin, D. J. Fox, T. Keith, M. A. Al-Laham, 
 C. Y. Peng, A. Nanayakkara, M. Challacombe, P. M. W. Gill, 
 B. Johnson, W. Chen, M. W. Wong, C. Gonzalez, and J. A. Pople, 
 Gaussian, Inc., Wallingford CT, 2004.
 
 ******************************************
 Gaussian 03:  IA32W-G03RevD.01 13-Oct-2005
                13-Dec-2007 
 ******************************************
 --------------
 # opt dreiding
 --------------
 1/6=10,10=10,14=-1,18=4000020,38=1,56=1,64=1/1,3;
 2/9=110,17=6,18=5,40=1/2;
 3/5=30,11=9,16=1,25=1,30=1/1;
 4/20=9,22=1001,24=3/2;
 7/44=-1/16;
 1/6=10,10=10,14=-1,18=4000020,64=1/3(2);
 2/9=110/2;
 99//99;
 2/9=110/2;
 3/5=30,11=9,16=1,25=1,30=1/1;
 4/16=2,20=9,22=1001,24=3/2;
 7/44=-1/16;
 1/6=10,10=10,14=-1,18=4000020,64=1/3(-4);
 2/9=110/2;
 99//99;
 --------------------
 methylehtylsulfide-a
 --------------------
 Symbolic Z-matrix:
 Charge =  0 Multiplicity = 1
 C                    -1.56538  -1.5536   -0.03743 
 C                    -0.10238  -1.0956    0.02357 
 S                    -0.03938   0.7014   -0.02043 
 C                     1.62262   1.3674    0.04557 
 H                    -1.62738  -2.6666   -0.01143 
 H                    -2.15538  -1.1706    0.82757 
 H                     0.37262  -1.4756    0.95757 
 H                    -2.06538  -1.2186   -0.97643 
 H                     0.46262  -1.5226   -0.83743 
 H                     1.58362   2.4794    0.01357 
 H                     2.11962   1.0454    0.98757 
 H                     2.21062   0.9974   -0.82443 
 
 Include all MM classes
 MMInit generated parameter data with length LenPar=  1106.

 GradGradGradGradGradGradGradGradGradGradGradGradGradGradGradGradGradGrad
 Berny optimization.
 Initialization pass.
 No Z-matrix variables, so optimization will use Cartesian coordinates.
 Trust Radius=1.00D-01 FncErr=1.00D-07 GrdErr=1.00D-07
 Number of steps in this run=   2 maximum allowed number of steps=   2.
 GradGradGradGradGradGradGradGradGradGradGradGradGradGradGradGradGradGrad

                          Input orientation:                          
 ---------------------------------------------------------------------
 Center     Atomic     Atomic              Coordinates (Angstroms)
 Number     Number      Type              X           Y           Z
 ---------------------------------------------------------------------
    1          6      10061003       -1.565381   -1.553595   -0.037429
    2          6      10061003       -0.102381   -1.095595    0.023571
    3         16      10161003       -0.039381    0.701405   -0.020429
    4          6      10061003        1.622619    1.367405    0.045571
    5          1      10011000       -1.627381   -2.666595   -0.011429
    6          1      10011000       -2.155381   -1.170595    0.827571
    7          1      10011000        0.372619   -1.475595    0.957571
    8          1      10011000       -2.065381   -1.218595   -0.976429
    9          1      10011000        0.462619   -1.522595   -0.837429
   10          1      10011000        1.583619    2.479405    0.013571
   11          1      10011000        2.119619    1.045405    0.987571
   12          1      10011000        2.210619    0.997405   -0.824429
 ---------------------------------------------------------------------
                    Distance matrix (angstroms):
                    1          2          3          4          5
     1  C    0.000000
     2  C    1.534227   0.000000
     3  S    2.722864   1.798642   0.000000
     4  C    4.324636   3.007071   1.791691   0.000000
     5  H    1.115029   2.189724   3.723607   5.180628   0.000000
     6  H    1.114905   2.206094   2.949736   4.618036   1.794637
     7  H    2.179897   1.114621   2.421891   3.236803   2.521397
     8  H    1.115323   2.206467   2.950426   4.618790   1.794373
     9  H    2.180308   1.114843   2.421914   3.236880   2.521728
    10  H    5.117020   3.952635   2.407606   1.113144   6.065679
    11  H    4.624354   3.232717   2.407422   1.112680   5.368143
    12  H    4.624408   3.232603   2.407599   1.113348   5.368064
                    6          7          8          9         10
     6  H    0.000000
     7  H    2.549649   0.000000
     8  H    1.806881   3.122539   0.000000
     9  H    3.122507   1.797869   2.550004   0.000000
    10  H    5.288215   4.242603   5.288715   4.242269   0.000000
    11  H    4.817871   3.067303   5.147545   3.559620   1.814477
    12  H    5.146968   3.559424   4.818499   3.066932   1.814303
                   11         12
    11  H    0.000000
    12  H    1.814918   0.000000
 Stoichiometry    C3H8S
 Framework group  C1[X(C3H8S)]
 Deg. of freedom    30
 Full point group                 C1
 Largest Abelian subgroup         C1      NOp   1
 Largest concise Abelian subgroup C1      NOp   1
                         Standard orientation:                         
 ---------------------------------------------------------------------
 Center     Atomic     Atomic              Coordinates (Angstroms)
 Number     Number      Type              X           Y           Z
 ---------------------------------------------------------------------
    1          6      10061003       -2.202507   -0.120157   -0.000162
    2          6      10061003       -0.881149    0.659501    0.000043
    3         16      10161003        0.493705   -0.500192    0.000059
    4          6      10061003        2.102851    0.287721   -0.000232
    5          1      10011000       -3.069467    0.581035   -0.000070
    6          1      10011000       -2.301660   -0.766324   -0.903295
    7          1      10011000       -0.831517    1.316791   -0.898783
    8          1      10011000       -2.302355   -0.766080    0.903586
    9          1      10011000       -0.831344    1.316857    0.899086
   10          1      10011000        2.901280   -0.487906    0.000646
   11          1      10011000        2.210375    0.922878   -0.907465
   12          1      10011000        2.210237    0.923425    0.907453
 ---------------------------------------------------------------------
 Rotational constants (GHZ):     19.3288949      2.9178979      2.6672134
 Standard basis: Dummy (5D, 7F)
 There are    12 symmetry adapted basis functions of A   symmetry.
 Integral buffers will be    262144 words long.
 Raffenetti 1 integral format.
 Two-electron integral symmetry is turned on.
    12 basis functions,    12 primitive gaussians,    12 cartesian basis functions
     8 alpha electrons        8 beta electrons
       nuclear repulsion energy        26.8465112944 Hartrees.
 NAtoms=   12 NActive=   12 NUniq=   12 SFac= 7.50D-01 NAtFMM=   80 NAOKFM=F Big=F
 Dreiding calculation of energy and first derivatives.
 MO and density RWFs will be updated without deorthogonalization.
 NRF= 0 NRA=   0 NVA=  12 HaveQM=F
 Convergence limit is  0.750E-04 MaxStp=  5000 StMxLn= 1.00D-04 StpMin= 1.00D-06.
 Convergence criteria           0.00011250 0.00007500 0.00045000 0.00030000
  Step  NS  ND Rises OKQ   Scale  Max. Force  RMS Force Max. Disp.  RMS Disp.     Energy   Flag
     1   0   0   F    T  1.00D+00 0.03209079 0.01171530 0.03209079 0.01171530    0.0152851 ----
     2   0   0   F    F  2.43D-01 0.03209079 0.01171530 0.03209079 0.01171530    0.0123333 ----
     3   0   0   F    T  3.41D+00 0.00942066 0.00403169 0.01256183 0.00426375    0.0122163 ----
     4   0   0   F    F  1.85D-01 0.00942066 0.00403169 0.04289589 0.01455976    0.0110628 ----
     5   0   0   F    T  2.96D+00 0.01670494 0.00402354 0.01585081 0.00583109    0.0110340 ----
     6   0   0   F    F -9.73D-02 0.01670494 0.00402354 0.04690900 0.01725657    0.0102633 ----
     7   0   0   F    T  3.78D+00 0.00570264 0.00285899 0.01219118 0.00412461    0.0102542 ----
     8   0   0   F    F  4.25D-01 0.00570264 0.00285899 0.04604495 0.01557828    0.0095296 ----
     9   0   0   F    T  2.98D+00 0.00983151 0.00358834 0.01591856 0.00743825    0.0094583 ----
    10   0   0   F    F  9.67D-01 0.00983151 0.00358834 0.04750554 0.02219786    0.0084217 ----
    11   0   0   F    T  2.86D+00 0.01616246 0.00503474 0.03734333 0.01527520    0.0080883 ----
    12   0   0   F    F  1.43D-01 0.01616246 0.00503474 0.10674740 0.04366478    0.0066147 ----
    13   0   0   F    T  5.00D+00 0.00923175 0.00398320 0.02787413 0.00998328    0.0065911 ----
    14   0   0   F    F -4.76D-02 0.00923175 0.00398320 0.13934241 0.04990628    0.0052413 ----
    15   0   0   F    T  7.30D+00 0.01115776 0.00302300 0.01743605 0.00650869    0.0052379 ----
    16   0   0   T    F  3.04D-01 0.01115776 0.00302300 0.12733264 0.04753187    0.0068136 ----
    17   0   0   F    T  3.49D+00 0.00650666 0.00222255 0.00975617 0.00413411    0.0048725 ----
    18   0   0   F    F  5.73D-01 0.00650666 0.00222255 0.03407428 0.01443875    0.0044464 ----
    19   0   0   F    T  1.00D+01 0.00360582 0.00146585 0.00583658 0.00226709    0.0043807 ----
    20   0   0   T    F  2.61D-01 0.00360582 0.00146585 0.05845356 0.02270502    0.0050985 ----
    21   0   0   F    T  2.54D+00 0.00346587 0.00134932 0.00773256 0.00233292    0.0042797 ----
    22   0   0   F    F  3.30D-01 0.00346587 0.00134932 0.01960822 0.00591582    0.0041761 ----
    23   0   0   F    T  7.54D+00 0.00175532 0.00074771 0.00283096 0.00104341    0.0041693 ----
    24   0   0   T    F  4.44D-01 0.00175532 0.00074771 0.02135436 0.00787059    0.0041884 ----
    25   0   0   F    T  2.71D+00 0.00259585 0.00074996 0.00421269 0.00129013    0.0041356 ----
    26   0   0   F    F  1.40D-01 0.00259585 0.00074996 0.01141863 0.00349695    0.0041048 ----
    27   0   0   F    T  4.26D+00 0.00140624 0.00056923 0.00203058 0.00093553    0.0041043 ----
    28   0   0   F    F  2.88D-01 0.00140624 0.00056923 0.00865447 0.00398729    0.0040739 ----
    29   0   0   F    T  4.25D+00 0.00227751 0.00060169 0.00229776 0.00120779    0.0040723 ----
    30   0   0   F    F  2.37D-02 0.00227751 0.00060169 0.00976658 0.00513367    0.0040440 ----
    31   0   0   F    T  5.39D+00 0.00149537 0.00049939 0.00220193 0.00097427    0.0040440 ----
    32   0   0   T    F  3.52D-01 0.00149537 0.00049939 0.01187700 0.00525513    0.0040644 ----
    33   0   0   F    T  5.03D+00 0.00058177 0.00025813 0.00088248 0.00036754    0.0040354 ----
    34   0   0   F    F  6.30D-01 0.00058177 0.00025813 0.00443774 0.00184825    0.0040271 ----
    35   0   0   F    T  2.99D+00 0.00157182 0.00040849 0.00238862 0.00100696    0.0040256 ----
    36   0   0   F    F -3.27D-01 0.00157182 0.00040849 0.00714628 0.00301263    0.0040210 ----
    37   0   0   F    T  1.88D+01 0.00021496 0.00009400 0.00020905 0.00010792    0.0040196 --++
    38   0   0   T    F  2.07D-01 0.00021496 0.00009400 0.00392910 0.00202836    0.0040280 ----
    39   0   0   F    T  2.42D+00 0.00035916 0.00010602 0.00034354 0.00017345    0.0040189 --++
    40   0   0   F    T  7.22D+00 0.00013431 0.00004538 0.00011884 0.00005814    0.0040185 -+++
    41   0   0   T    F  3.21D-01 0.00013431 0.00004538 0.00085823 0.00041989    0.0040188 -+--
    42   0   0   F    T  5.12D+00 0.00005352 0.00002347 0.00006103 0.00002628    0.0040184 ====
 Energy=    0.004018395779 NIter=   0.
 Dipole moment=       0.000000       0.000000       0.000000
 ***** Axes restored to original set *****
 -------------------------------------------------------------------
 Center     Atomic                   Forces (Hartrees/Bohr)
 Number     Number              X              Y              Z
 -------------------------------------------------------------------
    1          6          -0.000002704    0.000057221   -0.000002062
    2          6          -0.000020029   -0.000047337    0.000001329
    3         16          -0.000008557   -0.000064414    0.000000668
    4          6           0.000002479    0.000058236   -0.000001070
    5          1          -0.000017377    0.000033285   -0.000002023
    6          1           0.000009990    0.000002691   -0.000022199
    7          1           0.000014695   -0.000031781    0.000004120
    8          1           0.000009078    0.000004326    0.000023952
    9          1           0.000015495   -0.000032229   -0.000001164
   10          1          -0.000016689   -0.000002162   -0.000000668
   11          1           0.000007200    0.000010063   -0.000015433
   12          1           0.000006418    0.000012103    0.000014551
 -------------------------------------------------------------------
 Cartesian Forces:  Max     0.000064414 RMS     0.000023474

 GradGradGradGradGradGradGradGradGradGradGradGradGradGradGradGradGradGrad
 Berny optimization.
 Search for a local minimum.
 Step number   1 out of a maximum of   2
 All quantities printed in internal units (Hartrees-Bohrs-Radians)
 Second derivative matrix not updated -- unit matrix used.
 RFO step:  Lambda=-1.98371766D-08.
 Linear search not attempted -- first point.
 TrRot=  0.000000  0.000000  0.000000  0.000000  0.000000  0.000000
 Variable       Old X    -DE/DX   Delta X   Delta X   Delta X     New X
                                 (Linear)    (Quad)   (Total)
    X1       -2.84950   0.00000   0.00000   0.00000   0.00000  -2.84950
    Y1       -2.94901   0.00006   0.00000   0.00006   0.00006  -2.94895
    Z1       -0.06529   0.00000   0.00000   0.00000   0.00000  -0.06529
    X2       -0.20010  -0.00002   0.00000  -0.00002  -0.00002  -0.20012
    Y2       -1.74484  -0.00005   0.00000  -0.00005  -0.00005  -1.74489
    Z2        0.03562   0.00000   0.00000   0.00000   0.00000   0.03562
    X3       -0.40086  -0.00001   0.00000  -0.00001  -0.00001  -0.40087
    Y3        1.66978  -0.00006   0.00000  -0.00006  -0.00006   1.66972
    Z3       -0.06433   0.00000   0.00000   0.00000   0.00000  -0.06433
    X4        2.94607   0.00000   0.00000   0.00000   0.00000   2.94608
    Y4        2.32455   0.00006   0.00000   0.00006   0.00006   2.32461
    Z4        0.08622   0.00000   0.00000   0.00000   0.00000   0.08622
    X5       -2.68198  -0.00002   0.00000  -0.00002  -0.00002  -2.68200
    Y5       -5.00416   0.00003   0.00000   0.00003   0.00003  -5.00413
    Z5       -0.00272   0.00000   0.00000   0.00000   0.00000  -0.00272
    X6       -3.98228   0.00001   0.00000   0.00001   0.00001  -3.98227
    Y6       -2.33164   0.00000   0.00000   0.00000   0.00000  -2.33164
    Z6        1.54514  -0.00002   0.00000  -0.00002  -0.00002   1.54512
    X7        0.73924   0.00001   0.00000   0.00001   0.00001   0.73925
    Y7       -2.32436  -0.00003   0.00000  -0.00003  -0.00003  -2.32439
    Z7        1.77962   0.00000   0.00000   0.00000   0.00000   1.77963
    X8       -3.81425   0.00001   0.00000   0.00001   0.00001  -3.81424
    Y8       -2.42013   0.00000   0.00000   0.00000   0.00000  -2.42013
    Z8       -1.81096   0.00002   0.00000   0.00002   0.00002  -1.81094
    X9        0.90706   0.00002   0.00000   0.00002   0.00002   0.90707
    Y9       -2.41262  -0.00003   0.00000  -0.00003  -0.00003  -2.41266
    Z9       -1.57311   0.00000   0.00000   0.00000   0.00000  -1.57311
   X10        3.22990  -0.00002   0.00000  -0.00002  -0.00002   3.22988
   Y10        4.36419   0.00000   0.00000   0.00000   0.00000   4.36419
   Z10        0.04649   0.00000   0.00000   0.00000   0.00000   0.04649
   X11        3.74041   0.00001   0.00000   0.00001   0.00001   3.74041
   Y11        1.57321   0.00001   0.00000   0.00001   0.00001   1.57322
   Z11        1.83324  -0.00002   0.00000  -0.00002  -0.00002   1.83323
   X12        3.90914   0.00001   0.00000   0.00001   0.00001   3.90914
   Y12        1.48420   0.00001   0.00000   0.00001   0.00001   1.48421
   Z12       -1.53052   0.00001   0.00000   0.00001   0.00001  -1.53051
         Item               Value     Threshold  Converged?
 Maximum Force            0.000064     0.000450     YES
 RMS     Force            0.000023     0.000300     YES
 Maximum Displacement     0.000064     0.001800     YES
 RMS     Displacement     0.000023     0.001200     YES
 Predicted change in Energy=-9.918588D-09
 Optimization completed.
    -- Stationary point found.
 GradGradGradGradGradGradGradGradGradGradGradGradGradGradGradGradGradGrad

                          Input orientation:                          
 ---------------------------------------------------------------------
 Center     Atomic     Atomic              Coordinates (Angstroms)
 Number     Number      Type              X           Y           Z
 ---------------------------------------------------------------------
    1          6      10061003       -1.507892   -1.560548   -0.034551
    2          6      10061003       -0.105891   -0.923331    0.018848
    3         16      10161003       -0.212127    0.883612   -0.034041
    4          6      10061003        1.558996    1.230099    0.045627
    5          1      10011000       -1.419245   -2.648087   -0.001437
    6          1      10011000       -2.107329   -1.233852    0.817654
    7          1      10011000        0.391188   -1.229998    0.941736
    8          1      10011000       -2.018416   -1.280678   -0.958321
    9          1      10011000        0.479994   -1.276705   -0.832454
   10          1      10011000        1.709187    2.309431    0.024602
   11          1      10011000        1.979338    0.832508    0.970110
   12          1      10011000        2.068626    0.785405   -0.809916
 ---------------------------------------------------------------------
                    Distance matrix (angstroms):
                    1          2          3          4          5
     1  C    0.000000
     2  C    1.540942   0.000000
     3  S    2.766391   1.810835   0.000000
     4  C    4.147281   2.722099   1.806454   0.000000
     5  H    1.091649   2.167970   3.732438   4.890037   0.000000
     6  H    1.091929   2.177216   2.966619   4.484308   1.773254
     7  H    2.160764   1.092178   2.404886   2.866856   2.485602
     8  H    1.091931   2.177225   2.966668   4.484394   1.773257
     9  H    2.160765   1.092177   2.404884   2.866939   2.485636
    10  H    5.032875   3.707464   2.393292   1.089934   5.862146
    11  H    4.347048   2.887221   2.411109   1.090612   4.960727
    12  H    4.346972   2.887067   2.411113   1.090611   4.960620
                    6          7          8          9         10
     6  H    0.000000
     7  H    2.501599   0.000000
     8  H    1.778815   3.069034   0.000000
     9  H    3.069028   1.777025   2.501582   0.000000
    10  H    5.267788   3.886621   5.267831   3.886623   0.000000
    11  H    4.581914   2.603259   4.915936   3.153735   1.774336
    12  H    4.915790   3.153401   4.581990   2.603182   1.774338
                   11         12
    11  H    0.000000
    12  H    1.782886   0.000000
 Stoichiometry    C3H8S
 Framework group  C1[X(C3H8S)]
 Deg. of freedom    30
 Full point group                 C1
 Largest Abelian subgroup         C1      NOp   1
 Largest concise Abelian subgroup C1      NOp   1
                         Standard orientation:                         
 ---------------------------------------------------------------------
 Center     Atomic     Atomic              Coordinates (Angstroms)
 Number     Number      Type              X           Y           Z
 ---------------------------------------------------------------------
    1          6      10061003        2.177697   -0.012972    0.000032
    2          6      10061003        0.773786    0.622275   -0.000042
    3         16      10161003       -0.514210   -0.650592   -0.000013
    4          6      10061003       -1.943143    0.454590    0.000026
    5          1      10011000        2.936598    0.771735    0.000059
    6          1      10011000        2.315859   -0.631150    0.889457
    7          1      10011000        0.664556    1.247998    0.888436
    8          1      10011000        2.315951   -0.631182   -0.889358
    9          1      10011000        0.664605    1.247906   -0.888589
   10          1      10011000       -2.853451   -0.144824   -0.000097
   11          1      10011000       -1.933448    1.082710    0.891544
   12          1      10011000       -1.933342    1.082920   -0.891342
 ---------------------------------------------------------------------
 Rotational constants (GHZ):     15.7374442      3.1830718      2.7873910
 1|1|UNPC-UNK|FOpt|Dreiding|ZDO|C3H8S1|PCUSER|13-Dec-2007|0||# opt drei
 ding||methylehtylsulfide-a||0,1|C,-1.5078916088,-1.5605476168,-0.03455
 08226|C,-0.1058909498,-0.9233306358,0.0188483653|S,-0.2121274742,0.883
 6120205,-0.0340406197|C,1.558995718,1.2300993314,0.0456274433|H,-1.419
 2445999,-2.6480872076,-0.001437195|H,-2.1073293647,-1.2338521857,0.817
 6536478|H,0.3911876803,-1.2299983734,0.9417355326|H,-2.0184158748,-1.2
 806776414,-0.9583206362|H,0.479994203,-1.2767051375,-0.8324538859|H,1.
 7091868799,2.3094314025,0.024601901|H,1.9793375336,0.8325081136,0.9701
 097462|H,2.0686264573,0.7854050502,-0.8099163168||Version=IA32W-G03Rev
 D.01|HF=0.0040184|RMSD=0.000e+000|RMSF=2.347e-005|Thermal=0.|Dipole=0.
 ,0.,0.|PG=C01 [X(C3H8S1)]||@


 It is also a good rule not to put too much confidence in
 experimental results until they have been confirmed by
 Theory.
                             -- Sir Arthur Eddington
 Job cpu time:  0 days  0 hours  0 minutes  2.0 seconds.
 File lengths (MBytes):  RWF=     11 Int=      0 D2E=      0 Chk=      4 Scr=      1
 Normal termination of Gaussian 03 at Thu Dec 13 16:38:45 2007.
