 Entering Link 1 = C:\G03W\l1.exe PID=      3164.
  
 Copyright (c) 1988,1990,1992,1993,1995,1998,2003,2004, Gaussian, Inc.
                  All Rights Reserved.
  
 This is the Gaussian(R) 03 program.  It is based on the
 the Gaussian(R) 98 system (copyright 1998, Gaussian, Inc.),
 the Gaussian(R) 94 system (copyright 1995, Gaussian, Inc.),
 the Gaussian 92(TM) system (copyright 1992, Gaussian, Inc.),
 the Gaussian 90(TM) system (copyright 1990, Gaussian, Inc.),
 the Gaussian 88(TM) system (copyright 1988, Gaussian, Inc.),
 the Gaussian 86(TM) system (copyright 1986, Carnegie Mellon
 University), and the Gaussian 82(TM) system (copyright 1983,
 Carnegie Mellon University). Gaussian is a federally registered
 trademark of Gaussian, Inc.
  
 This software contains proprietary and confidential information,
 including trade secrets, belonging to Gaussian, Inc.
  
 This software is provided under written license and may be
 used, copied, transmitted, or stored only in accord with that
 written license.
  
 The following legend is applicable only to US Government
 contracts under FAR:
  
                    RESTRICTED RIGHTS LEGEND
  
 Use, reproduction and disclosure by the US Government is
 subject to restrictions as set forth in subparagraphs (a)
 and (c) of the Commercial Computer Software - Restricted
 Rights clause in FAR 52.227-19.
  
 Gaussian, Inc.
 340 Quinnipiac St., Bldg. 40, Wallingford CT 06492
  
  
 ---------------------------------------------------------------
 Warning -- This program may not be used in any manner that
 competes with the business of Gaussian, Inc. or will provide
 assistance to any competitor of Gaussian, Inc.  The licensee
 of this program is prohibited from giving any competitor of
 Gaussian, Inc. access to this program.  By using this program,
 the user acknowledges that Gaussian, Inc. is engaged in the
 business of creating and licensing software in the field of
 computational chemistry and represents and warrants to the
 licensee that it is not a competitor of Gaussian, Inc. and that
 it will not use this program in any manner prohibited above.
 ---------------------------------------------------------------
  

 Cite this work as:
 Gaussian 03, Revision D.01,
 M. J. Frisch, G. W. Trucks, H. B. Schlegel, G. E. Scuseria, 
 M. A. Robb, J. R. Cheeseman, J. A. Montgomery, Jr., T. Vreven, 
 K. N. Kudin, J. C. Burant, J. M. Millam, S. S. Iyengar, J. Tomasi, 
 V. Barone, B. Mennucci, M. Cossi, G. Scalmani, N. Rega, 
 G. A. Petersson, H. Nakatsuji, M. Hada, M. Ehara, K. Toyota, 
 R. Fukuda, J. Hasegawa, M. Ishida, T. Nakajima, Y. Honda, O. Kitao, 
 H. Nakai, M. Klene, X. Li, J. E. Knox, H. P. Hratchian, J. B. Cross, 
 V. Bakken, C. Adamo, J. Jaramillo, R. Gomperts, R. E. Stratmann, 
 O. Yazyev, A. J. Austin, R. Cammi, C. Pomelli, J. W. Ochterski, 
 P. Y. Ayala, K. Morokuma, G. A. Voth, P. Salvador, J. J. Dannenberg, 
 V. G. Zakrzewski, S. Dapprich, A. D. Daniels, M. C. Strain, 
 O. Farkas, D. K. Malick, A. D. Rabuck, K. Raghavachari, 
 J. B. Foresman, J. V. Ortiz, Q. Cui, A. G. Baboul, S. Clifford, 
 J. Cioslowski, B. B. Stefanov, G. Liu, A. Liashenko, P. Piskorz, 
 I. Komaromi, R. L. Martin, D. J. Fox, T. Keith, M. A. Al-Laham, 
 C. Y. Peng, A. Nanayakkara, M. Challacombe, P. M. W. Gill, 
 B. Johnson, W. Chen, M. W. Wong, C. Gonzalez, and J. A. Pople, 
 Gaussian, Inc., Wallingford CT, 2004.
 
 ******************************************
 Gaussian 03:  IA32W-G03RevD.01 13-Oct-2005
                28-Mar-2008 
 ******************************************
 --------------
 # opt dreiding
 --------------
 1/6=10,10=10,14=-1,18=4000020,38=1,56=1,64=1/1,3;
 2/9=110,17=6,18=5,40=1/2;
 3/5=30,11=9,16=1,25=1,30=1/1;
 4/20=9,22=1001,24=3/2;
 7/44=-1/16;
 1/6=10,10=10,14=-1,18=4000020,64=1/3(2);
 2/9=110/2;
 99//99;
 2/9=110/2;
 3/5=30,11=9,16=1,25=1,30=1/1;
 4/16=2,20=9,22=1001,24=3/2;
 7/44=-1/16;
 1/6=10,10=10,14=-1,18=4000020,64=1/3(-4);
 2/9=110/2;
 99//99;
 ------------------
 sulfolane-envelope
 ------------------
 Symbolic Z-matrix:
 Charge =  0 Multiplicity = 1
 C                    -0.6192   -1.26036   0.31833 
 S                    -0.5532    0.46964  -0.10267 
 O                    -1.5732    1.20464   0.61433 
 O                    -0.4922    0.62964  -1.54067 
 C                     1.0498    0.76964   0.61533 
 C                     1.7938   -0.49036   0.14733 
 C                     0.8188   -1.67536  -0.02567 
 H                    -1.4062   -1.80036  -0.25767 
 H                    -0.8082   -1.35036   1.41433 
 H                     0.9448    0.77964   1.72533 
 H                     1.4948    1.72764   0.25833 
 H                     2.6018   -0.74236   0.87433 
 H                     2.3068   -0.28136  -0.82367 
 H                     1.1238   -2.53936   0.61133 
 H                     0.8578   -2.04336  -1.08067 
 
 I=    2 IAn= 16 Valence= 4.
          JB=  1 J=    1 IAn=  6 IBT= 1 Dist= 1.78D+00
          JB=  2 J=    3 IAn=  8 IBT= 2 Dist= 1.45D+00
          JB=  3 J=    4 IAn=  8 IBT= 2 Dist= 1.45D+00
          JB=  4 J=    5 IAn=  6 IBT= 1 Dist= 1.78D+00
 Include all MM classes
 MMInit generated parameter data with length LenPar=  1800.

 GradGradGradGradGradGradGradGradGradGradGradGradGradGradGradGradGradGrad
 Berny optimization.
 Initialization pass.
 No Z-matrix variables, so optimization will use Cartesian coordinates.
 Trust Radius=1.00D-01 FncErr=1.00D-07 GrdErr=1.00D-07
 Number of steps in this run=   2 maximum allowed number of steps=   2.
 GradGradGradGradGradGradGradGradGradGradGradGradGradGradGradGradGradGrad

                          Input orientation:                          
 ---------------------------------------------------------------------
 Center     Atomic     Atomic              Coordinates (Angstroms)
 Number     Number      Type              X           Y           Z
 ---------------------------------------------------------------------
    1          6      10061003       -0.619203   -1.260359    0.318328
    2         16      10161003       -0.553203    0.469641   -0.102672
    3          8      10081002       -1.573203    1.204641    0.614328
    4          8      10081002       -0.492203    0.629641   -1.540672
    5          6      10061003        1.049797    0.769641    0.615328
    6          6      10061003        1.793797   -0.490359    0.147328
    7          6      10061003        0.818797   -1.675359   -0.025672
    8          1      10011000       -1.406203   -1.800359   -0.257672
    9          1      10011000       -0.808203   -1.350359    1.414328
   10          1      10011000        0.944797    0.779641    1.725328
   11          1      10011000        1.494797    1.727641    0.258328
   12          1      10011000        2.601797   -0.742359    0.874328
   13          1      10011000        2.306797   -0.281359   -0.823672
   14          1      10011000        1.123797   -2.539359    0.611328
   15          1      10011000        0.857797   -2.043359   -1.080672
 ---------------------------------------------------------------------
                    Distance matrix (angstroms):
                    1          2          3          4          5
     1  C    0.000000
     2  S    1.781712   0.000000
     3  O    2.659691   1.447313   0.000000
     4  O    2.654074   1.448159   2.478550   0.000000
     5  C    2.644744   1.781890   2.658826   2.654374   0.000000
     6  C    2.538643   2.548040   3.798395   3.054430   1.536281
     7  C    1.535710   2.547418   3.798113   3.054009   2.538162
     8  H    1.114785   2.429925   3.133416   2.895926   3.660460
     9  H    1.115812   2.383005   2.784466   3.571034   2.930011
    10  H    2.930417   2.383629   2.784829   3.571306   1.115000
    11  H    3.660702   2.430471   3.132553   2.896580   1.115006
    12  H    3.309426   3.518167   4.614004   4.157817   2.182184
    13  H    3.289997   3.043590   4.396640   3.029589   2.180681
    14  H    2.181683   3.517983   4.614256   4.157538   3.309830
    15  H    2.179867   3.043448   4.396850   3.029691   3.290327
                    6          7          8          9         10
     6  C    0.000000
     7  C    1.544273   0.000000
     8  H    3.481397   2.240552   0.000000
     9  H    3.019154   2.196896   1.831854   0.000000
    10  H    2.196312   3.018096   4.014460   2.776082   0.000000
    11  H    2.240814   3.481098   4.596612   4.014253   1.831200
    12  H    1.115750   2.204445   4.297075   3.505619   2.405480
    13  H    1.117896   2.189563   4.051430   3.981787   3.078663
    14  H    2.205130   1.115926   2.775281   2.406482   3.505538
    15  H    2.189952   1.118021   2.421172   3.079096   3.981273
                   11         12         13         14         15
    11  H    0.000000
    12  H    2.775933   0.000000
    13  H    2.422013   1.784026   0.000000
    14  H    4.297620   2.341551   2.925283   0.000000
    15  H    4.052053   2.925092   2.295712   1.783153   0.000000
 Stoichiometry    C4H8O2S
 Framework group  C1[X(C4H8O2S)]
 Deg. of freedom    39
 Full point group                 C1
 Largest Abelian subgroup         C1      NOp   1
 Largest concise Abelian subgroup C1      NOp   1
                         Standard orientation:                         
 ---------------------------------------------------------------------
 Center     Atomic     Atomic              Coordinates (Angstroms)
 Number     Number      Type              X           Y           Z
 ---------------------------------------------------------------------
    1          6      10061003       -0.354907   -1.322185   -0.446226
    2         16      10161003        0.731090   -0.000275    0.051427
    3          8      10081002        1.931265    0.000882   -0.757456
    4          8      10081002        0.888396   -0.001051    1.491017
    5          6      10061003       -0.354561    1.322558   -0.445168
    6          6      10061003       -1.696968    0.772361    0.060191
    7          6      10061003       -1.696636   -0.771911    0.059112
    8          1      10011000       -0.057342   -2.298217    0.002731
    9          1      10011000       -0.345298   -1.387014   -1.560112
   10          1      10011000       -0.346255    1.389067   -1.558152
   11          1      10011000       -0.057030    2.298395    0.004783
   12          1      10011000       -2.527954    1.170836   -0.568758
   13          1      10011000       -1.887251    1.147086    1.096079
   14          1      10011000       -2.527821   -1.170715   -0.569678
   15          1      10011000       -1.887346   -1.148626    1.094335
 ---------------------------------------------------------------------
 Rotational constants (GHZ):      3.7761291      2.1176528      1.9644130
 Standard basis: Dummy (5D, 7F)
 There are    15 symmetry adapted basis functions of A   symmetry.
 Integral buffers will be    262144 words long.
 Raffenetti 1 integral format.
 Two-electron integral symmetry is turned on.
    15 basis functions,    15 primitive gaussians,    15 cartesian basis functions
    11 alpha electrons       11 beta electrons
       nuclear repulsion energy        50.5532545262 Hartrees.



 Warning!  S  atom    2 may be hypervalent but has no d functions.



 NAtoms=   15 NActive=   15 NUniq=   15 SFac= 7.50D-01 NAtFMM=   80 NAOKFM=F Big=F
 Dreiding calculation of energy and first derivatives.
 MO and density RWFs will be updated without deorthogonalization.
 NRF= 0 NRA=   0 NVA=  15 HaveQM=F
 Convergence limit is  0.750E-04 MaxStp=  5000 StMxLn= 1.00D-04 StpMin= 1.00D-06.
 Convergence criteria           0.00011250 0.00007500 0.00045000 0.00030000
  Step  NS  ND Rises OKQ   Scale  Max. Force  RMS Force Max. Disp.  RMS Disp.     Energy   Flag
     1   0   0   F    T  1.00D+00 0.16834687 0.04405756 0.16834687 0.04405756    0.1127858 ----
     2   0   0   F    F -4.68D-02 0.16834687 0.04405756 0.16834687 0.04405756    0.0708762 ----
     3   0   0   F    T  3.73D+00 0.04123173 0.01092996 0.03251261 0.01126129    0.0707730 ----
     4   0   0   T    F  4.63D-01 0.04123173 0.01092996 0.12125179 0.04199758    0.0723840 ----
     5   0   0   F    T  3.82D+00 0.01390632 0.00463661 0.01703506 0.00508566    0.0661296 ----
     6   0   0   F    F  3.02D-02 0.01390632 0.00463661 0.06513019 0.01944401    0.0642090 ----
     7   0   0   F    T  2.99D+00 0.01366986 0.00459452 0.02128951 0.00670219    0.0642073 ----
     8   0   0   F    F -2.52D-01 0.01366986 0.00459452 0.06363167 0.02003200    0.0632646 ----
     9   0   0   F    T  2.69D+00 0.01450906 0.00366929 0.01897166 0.00556340    0.0631436 ----
    10   0   0   F    F -4.97D-01 0.01450906 0.00366929 0.05110652 0.01498687    0.0631361 ----
    11   0   0   F    T  2.14D+00 0.00648443 0.00246194 0.00940509 0.00351297    0.0627332 ----
    12   0   0   F    F -2.68D-01 0.00648443 0.00246194 0.02016769 0.00753299    0.0625479 ----
    13   0   0   F    T  3.65D+00 0.00270970 0.00122806 0.00397650 0.00150930    0.0625191 ----
    14   0   0   F    F  1.23D+00 0.00270970 0.00122806 0.01452031 0.00551125    0.0623270 ----
    15   0   0   F    T  3.39D+00 0.00470413 0.00177567 0.01084573 0.00362325    0.0622430 ----
    16   0   0   T    F  4.61D-01 0.00470413 0.00177567 0.03680812 0.01229655    0.0622841 ----
    17   0   0   F    T  3.69D+00 0.00310685 0.00100267 0.00556278 0.00153517    0.0621320 ----
    18   0   0   F    F -4.10D-01 0.00310685 0.00100267 0.02053801 0.00566792    0.0621065 ----
    19   0   0   F    T  1.60D+00 0.00337431 0.00108065 0.00827615 0.00208515    0.0620827 ----
    20   0   0   F    F  5.32D-01 0.00337431 0.00108065 0.01328267 0.00334652    0.0620259 ----
    21   0   0   F    T  2.33D+00 0.00334680 0.00104297 0.00962346 0.00219977    0.0620182 ----
    22   0   0   F    F -2.48D-01 0.00334680 0.00104297 0.02242386 0.00512573    0.0619799 ----
    23   0   0   F    T  3.05D+00 0.00157941 0.00071734 0.00560650 0.00126256    0.0619752 ----
    24   0   0   F    F  8.45D-01 0.00157941 0.00071734 0.01712087 0.00385554    0.0619238 ----
    25   0   0   F    T  1.66D+00 0.00355612 0.00129153 0.01890267 0.00428237    0.0619103 ----
    26   0   0   F    F  1.15D+00 0.00355612 0.00129153 0.03139227 0.00711187    0.0618143 ----
    27   0   0   F    T  7.26D+00 0.00221696 0.00084049 0.00756573 0.00210289    0.0617757 ----
    28   0   0   T    F  2.87D-01 0.00221696 0.00084049 0.05492522 0.01526644    0.0619416 ----
    29   0   0   F    T  1.83D+00 0.00300605 0.00085951 0.00763239 0.00239271    0.0617427 ----
    30   0   0   F    F  6.08D-01 0.00300605 0.00085951 0.01400011 0.00438895    0.0617007 ----
    31   0   0   F    T  1.44D+00 0.00369320 0.00120554 0.01420958 0.00489226    0.0616937 ----
    32   0   0   F    F  1.05D+00 0.00369320 0.00120554 0.02050056 0.00705819    0.0616219 ----
    33   0   0   F    T  6.01D+00 0.00195821 0.00082418 0.00685658 0.00241353    0.0615959 ----
    34   0   0   T    F  3.94D-01 0.00195821 0.00082418 0.04118047 0.01449560    0.0616442 ----
    35   0   0   F    T  2.16D+00 0.00265227 0.00083927 0.00832505 0.00263839    0.0615598 ----
    36   0   0   F    F  1.08D+00 0.00265227 0.00083927 0.01800256 0.00570540    0.0615077 ----
    37   0   0   F    T  2.28D+00 0.00275487 0.00115961 0.01542782 0.00520048    0.0614885 ----
    38   0   0   F    F  2.03D-01 0.00275487 0.00115961 0.03519987 0.01186534    0.0614085 ----
    39   0   0   F    T  7.61D+00 0.00197417 0.00065827 0.00536939 0.00187614    0.0614062 ----
    40   0   0   T    F  2.20D-01 0.00197417 0.00065827 0.04085558 0.01427554    0.0615937 ----
    41   0   0   F    T  1.82D+00 0.00216493 0.00060762 0.00583402 0.00172459    0.0613899 ----
    42   0   0   F    F -6.75D-02 0.00216493 0.00060762 0.01064373 0.00314638    0.0613758 ----
    43   0   0   F    T  3.76D+00 0.00083214 0.00038236 0.00202542 0.00078016    0.0613757 ----
    44   0   0   F    F  5.30D-01 0.00083214 0.00038236 0.00761695 0.00293393    0.0613591 ----
    45   0   0   F    T  3.37D+00 0.00145272 0.00048240 0.00353904 0.00133209    0.0613568 ----
    46   0   0   T    F  4.24D-01 0.00145272 0.00048240 0.01192428 0.00448829    0.0613631 ----
    47   0   0   F    T  6.35D+00 0.00061976 0.00019819 0.00080495 0.00029973    0.0613493 ---+
    48   0   0   T    F  4.64D-01 0.00061976 0.00019819 0.00511192 0.00190350    0.0613502 ----
    49   0   0   F    T  1.22D+00 0.00133971 0.00029412 0.00196393 0.00072259    0.0613467 ----
    50   0   0   F    F  1.98D+00 0.00133971 0.00029412 0.00240114 0.00088345    0.0613428 ----
    51   0   0   F    T  2.14D+00 0.00135119 0.00037550 0.00338822 0.00123487    0.0613396 ----
    52   0   0   F    F -3.14D-01 0.00135119 0.00037550 0.00723546 0.00263704    0.0613360 ----
    53   0   0   F    T  5.21D+00 0.00055911 0.00018344 0.00101365 0.00034718    0.0613350 ----
    54   0   0   F    F -4.87D-01 0.00055911 0.00018344 0.00527865 0.00180795    0.0613348 ----
    55   0   0   F    T  3.07D+00 0.00036630 0.00015810 0.00091256 0.00030264    0.0613330 ----
    56   0   0   F    F -1.81D-01 0.00036630 0.00015810 0.00279866 0.00092815    0.0613316 ----
    57   0   0   F    T  3.86D+00 0.00024297 0.00011488 0.00056602 0.00019714    0.0613315 ---+
    58   0   0   F    F -3.32D-01 0.00024297 0.00011488 0.00218335 0.00076044    0.0613310 ----
    59   0   0   F    T  1.82D+00 0.00047350 0.00012871 0.00082476 0.00027898    0.0613308 ---+
    60   0   0   F    T  2.08D+00 0.00030927 0.00011098 0.00075079 0.00024475    0.0613301 ---+
    61   0   0   F    T  5.17D+00 0.00019473 0.00007079 0.00022579 0.00009825    0.0613296 -+++
    62   0   0   T    F  4.49D-01 0.00019473 0.00007079 0.00116777 0.00050815    0.0613297 -+--
    63   0   0   F    T  2.90D+00 0.00019968 0.00005267 0.00015266 0.00007884    0.0613293 -+++
    64   0   0   T    F  4.66D-01 0.00019968 0.00005267 0.00044200 0.00022828    0.0613293 -+++
    65   0   0   F    T  3.41D+00 0.00007086 0.00002557 0.00006806 0.00003118    0.0613292 ====
 Energy=    0.061329214403 NIter=   0.
 Dipole moment=       0.000000       0.000000       0.000000
 ***** Axes restored to original set *****
 -------------------------------------------------------------------
 Center     Atomic                   Forces (Hartrees/Bohr)
 Number     Number              X              Y              Z
 -------------------------------------------------------------------
    1          6          -0.000030814   -0.000006872    0.000002126
    2         16           0.000016437   -0.000016440   -0.000070086
    3          8          -0.000040831    0.000024701    0.000055499
    4          8          -0.000005555   -0.000000231    0.000041841
    5          6           0.000034630   -0.000007932    0.000008867
    6          6          -0.000018231    0.000048679   -0.000024159
    7          6          -0.000006230    0.000050319   -0.000032907
    8          1          -0.000001416   -0.000034273   -0.000007400
    9          1          -0.000004798   -0.000006044   -0.000017453
   10          1           0.000004698    0.000011754   -0.000021419
   11          1           0.000031608    0.000010537   -0.000001399
   12          1          -0.000003473   -0.000007214    0.000009736
   13          1          -0.000007520   -0.000034339    0.000021275
   14          1           0.000007290   -0.000027304    0.000030775
   15          1           0.000024205   -0.000005342    0.000004705
 -------------------------------------------------------------------
 Cartesian Forces:  Max     0.000070086 RMS     0.000025573

 GradGradGradGradGradGradGradGradGradGradGradGradGradGradGradGradGradGrad
 Berny optimization.
 Search for a local minimum.
 Step number   1 out of a maximum of   2
 All quantities printed in internal units (Hartrees-Bohrs-Radians)
 Second derivative matrix not updated -- unit matrix used.
 RFO step:  Lambda=-2.94290571D-08.
 Linear search not attempted -- first point.
 TrRot=  0.000000  0.000000  0.000000  0.000000  0.000000  0.000000
 Variable       Old X    -DE/DX   Delta X   Delta X   Delta X     New X
                                 (Linear)    (Quad)   (Total)
    X1       -1.13417  -0.00003   0.00000  -0.00003  -0.00003  -1.13421
    Y1       -2.38536  -0.00001   0.00000  -0.00001  -0.00001  -2.38536
    Z1        0.51768   0.00000   0.00000   0.00000   0.00000   0.51769
    X2       -1.13527   0.00002   0.00000   0.00002   0.00002  -1.13525
    Y2        0.94765  -0.00002   0.00000  -0.00002  -0.00002   0.94764
    Z2       -0.09449  -0.00007   0.00000  -0.00007  -0.00007  -0.09456
    X3       -3.19403  -0.00004   0.00000  -0.00004  -0.00004  -3.19407
    Y3        2.40183   0.00002   0.00000   0.00002   0.00002   2.40185
    Z3        1.54174   0.00006   0.00000   0.00006   0.00006   1.54179
    X4       -1.22400  -0.00001   0.00000  -0.00001  -0.00001  -1.22400
    Y4        1.45338   0.00000   0.00000   0.00000   0.00000   1.45338
    Z4       -3.05627   0.00004   0.00000   0.00004   0.00004  -3.05623
    X5        2.00745   0.00003   0.00000   0.00003   0.00003   2.00748
    Y5        1.43441  -0.00001   0.00000  -0.00001  -0.00001   1.43441
    Z5        1.07589   0.00001   0.00000   0.00001   0.00001   1.07590
    X6        3.46484  -0.00002   0.00000  -0.00002  -0.00002   3.46482
    Y6       -0.98284   0.00005   0.00000   0.00005   0.00005  -0.98279
    Z6        0.33423  -0.00002   0.00000  -0.00002  -0.00002   0.33420
    X7        1.60874  -0.00001   0.00000  -0.00001  -0.00001   1.60873
    Y7       -3.23955   0.00005   0.00000   0.00005   0.00005  -3.23950
    Z7        0.00454  -0.00003   0.00000  -0.00003  -0.00003   0.00450
    X8       -2.49261   0.00000   0.00000   0.00000   0.00000  -2.49261
    Y8       -3.35758  -0.00003   0.00000  -0.00003  -0.00003  -3.35762
    Z8       -0.69316  -0.00001   0.00000  -0.00001  -0.00001  -0.69317
    X9       -1.62624   0.00000   0.00000   0.00000   0.00000  -1.62625
    Y9       -2.70368  -0.00001   0.00000  -0.00001  -0.00001  -2.70368
    Z9        2.49737  -0.00002   0.00000  -0.00002  -0.00002   2.49735
   X10        1.93566   0.00000   0.00000   0.00000   0.00000   1.93567
   Y10        1.62690   0.00001   0.00000   0.00001   0.00001   1.62691
   Z10        3.13027  -0.00002   0.00000  -0.00002  -0.00002   3.13025
   X11        2.84496   0.00003   0.00000   0.00003   0.00003   2.84499
   Y11        3.13200   0.00001   0.00000   0.00001   0.00001   3.13201
   Z11        0.25525   0.00000   0.00000   0.00000   0.00000   0.25525
   X12        4.88211   0.00000   0.00000   0.00000   0.00000   4.88211
   Y12       -1.41377  -0.00001   0.00000  -0.00001  -0.00001  -1.41378
   Z12        1.77457   0.00001   0.00000   0.00001   0.00001   1.77458
   X13        4.46054  -0.00001   0.00000  -0.00001  -0.00001   4.46053
   Y13       -0.64937  -0.00003   0.00000  -0.00003  -0.00003  -0.64941
   Z13       -1.44694   0.00002   0.00000   0.00002   0.00002  -1.44692
   X14        2.11028   0.00001   0.00000   0.00001   0.00001   2.11028
   Y14       -4.78371  -0.00003   0.00000  -0.00003  -0.00003  -4.78373
   Z14        1.28224   0.00003   0.00000   0.00003   0.00003   1.28227
   X15        1.74020   0.00002   0.00000   0.00002   0.00002   1.74022
   Y15       -3.95703  -0.00001   0.00000  -0.00001  -0.00001  -3.95703
   Z15       -1.93009   0.00000   0.00000   0.00000   0.00000  -1.93009
         Item               Value     Threshold  Converged?
 Maximum Force            0.000070     0.000450     YES
 RMS     Force            0.000026     0.000300     YES
 Maximum Displacement     0.000070     0.001800     YES
 RMS     Displacement     0.000026     0.001200     YES
 Predicted change in Energy=-1.471453D-08
 Optimization completed.
    -- Stationary point found.
 GradGradGradGradGradGradGradGradGradGradGradGradGradGradGradGradGradGrad

                          Input orientation:                          
 ---------------------------------------------------------------------
 Center     Atomic     Atomic              Coordinates (Angstroms)
 Number     Number      Type              X           Y           Z
 ---------------------------------------------------------------------
    1          6      10061003       -0.600179   -1.262277    0.273947
    2         16      10161003       -0.600757    0.501476   -0.050003
    3          8      10081002       -1.690207    1.270993    0.815851
    4          8      10081002       -0.647712    0.769097   -1.617309
    5          6      10061003        1.062294    0.759059    0.569337
    6          6      10061003        1.833513   -0.520098    0.176866
    7          6      10061003        0.851308   -1.714297    0.002401
    8          1      10011000       -1.319030   -1.776756   -0.366804
    9          1      10011000       -0.860571   -1.430723    1.321549
   10          1      10011000        1.024308    0.860917    1.656467
   11          1      10011000        1.505487    1.657385    0.135073
   12          1      10011000        2.583503   -0.748137    0.939062
   13          1      10011000        2.360413   -0.343633   -0.765689
   14          1      10011000        1.116710   -2.531429    0.678534
   15          1      10011000        0.920873   -2.093969   -1.021360
 ---------------------------------------------------------------------
                    Distance matrix (angstroms):
                    1          2          3          4          5
     1  C    0.000000
     2  S    1.793257   0.000000
     3  O    2.810565   1.590208   0.000000
     4  O    2.775894   1.590683   2.694246   0.000000
     5  C    2.633795   1.793229   2.810535   2.775904   0.000000
     6  C    2.546196   2.649671   4.004112   3.322284   1.544363
     7  C    1.544304   2.649696   4.004117   3.322314   2.546257
     8  H    1.091786   2.409693   3.290170   2.914756   3.602419
     9  H    1.092543   2.383706   2.871114   3.677146   3.009715
    10  H    3.009697   2.383710   2.871130   3.677185   1.092552
    11  H    3.602436   2.409698   3.290170   2.914818   1.091785
    12  H    3.292802   3.560799   4.728283   4.390647   2.173111
    13  H    3.269535   3.161478   4.638514   3.318470   2.164102
    14  H    2.173050   3.560754   4.728218   4.390620   3.292749
    15  H    2.164054   3.161523   4.638539   3.318548   3.269570
                    6          7          8          9         10
     6  C    0.000000
     7  C    1.556045   0.000000
     8  H    3.437048   2.202403   0.000000
     9  H    3.065556   2.179701   1.783385   0.000000
    10  H    2.179733   3.065549   4.067208   2.986060   0.000000
    11  H    2.202449   3.437120   4.474719   4.067231   1.783405
    12  H    1.093356   2.193467   4.241828   3.531836   2.352619
    13  H    1.094155   2.178551   3.968785   3.989120   3.017111
    14  H    2.193382   1.093297   2.755919   2.352587   3.531700
    15  H    2.178469   1.094110   2.355044   3.017062   3.989086
                   11         12         13         14         15
    11  H    0.000000
    12  H    2.755912   0.000000
    13  H    2.355068   1.766231   0.000000
    14  H    4.241775   2.323679   2.901556   0.000000
    15  H    3.968850   2.901526   2.280640   1.766171   0.000000
 Stoichiometry    C4H8O2S
 Framework group  C1[X(C4H8O2S)]
 Deg. of freedom    39
 Full point group                 C1
 Largest Abelian subgroup         C1      NOp   1
 Largest concise Abelian subgroup C1      NOp   1
                         Standard orientation:                         
 ---------------------------------------------------------------------
 Center     Atomic     Atomic              Coordinates (Angstroms)
 Number     Number      Type              X           Y           Z
 ---------------------------------------------------------------------
    1          6      10061003       -0.401060   -1.316885   -0.378339
    2         16      10161003        0.745171    0.000004    0.031206
    3          8      10081002        2.023206   -0.000010   -0.915043
    4          8      10081002        1.041604   -0.000035    1.594024
    5          6      10061003       -0.400999    1.316910   -0.378333
    6          6      10061003       -1.787698    0.778019    0.036059
    7          6      10061003       -1.787719   -0.778026    0.036004
    8          1      10011000       -0.142028   -2.237342    0.148593
    9          1      10011000       -0.368747   -1.493029   -1.456105
   10          1      10011000       -0.368750    1.493032   -1.456114
   11          1      10011000       -0.141977    2.237376    0.148584
   12          1      10011000       -2.552122    1.161910   -0.644905
   13          1      10011000       -2.025275    1.140326    1.040781
   14          1      10011000       -2.552101   -1.161769   -0.644995
   15          1      10011000       -2.025368   -1.140315    1.040666
 ---------------------------------------------------------------------
 Rotational constants (GHZ):      3.5863368      1.8938412      1.8173626
 1|1|UNPC-UNK|FOpt|Dreiding|ZDO|C4H8O2S1|PCUSER|28-Mar-2008|0||# opt dr
 eiding||sulfolane-envelope||0,1|C,-0.6001791586,-1.2622770992,0.273946
 7355|S,-0.6007569666,0.501476213,-0.0500034383|O,-1.690206821,1.270992
 8361,0.8158510821|O,-0.6477121803,0.7690973462,-1.6173085491|C,1.06229
 42853,0.759059376,0.5693366895|C,1.8335134257,-0.5200983413,0.17686607
 49|C,0.8513079071,-1.7142971726,0.0024007922|H,-1.3190300467,-1.776756
 3226,-0.3668039587|H,-0.8605713605,-1.4307232105,1.3215494749|H,1.0243
 076954,0.8609174012,1.6564668635|H,1.505487089,1.6573852425,0.13507347
 42|H,2.5835025791,-0.7481369618,0.9390621965|H,2.3604134913,-0.3436325
 823,-0.7656893017|H,1.1167100888,-2.5314285562,0.6785335012|H,0.920873
 022,-2.0939687284,-1.0213598267||Version=IA32W-G03RevD.01|HF=0.0613292
 |RMSD=0.000e+000|RMSF=2.557e-005|Thermal=0.|Dipole=0.,0.,0.|PG=C01 [X(
 C4H8O2S1)]||@


 CHARLIE BROWN..'I CAN'T GET THAT STUPID KITE IN THE   
 AIR... I CAN'T... I C A N N O T...'                          
 LUCY..'OH COME NOW CHARLIE BROWN...THAT'S NO WAY TO TALK...  
 THE TROUBLE WITH YOU IS YOU DON'T BELIEVE IN YOURSELF... YOU 
 DON'T BELIEVE IN YOUR OWN ABILITIES...  YOU'VE GOT TO SAY TO 
 YOURSELF...'I BELIEVE I CAN FLY THIS KITE.'... GO AHEAD SAY  
 IT....'
 CHARLIE BROWN..'I BELIEVE THAT I CAN FLY THIS STUPID  
 KITE.....I BELIEVE THAT I CAN FLY THIS KITE........          
 I  A C T U A L L Y  B E L I E V E  T H A T  I  C A N ******' 
 LUCY..'I'LL BET YOU TEN-TO-ONE YOU'RE WRONG.......'    SCHULZ
 Job cpu time:  0 days  0 hours  0 minutes  3.0 seconds.
 File lengths (MBytes):  RWF=     11 Int=      0 D2E=      0 Chk=      4 Scr=      1
 Normal termination of Gaussian 03 at Fri Mar 28 18:28:56 2008.
