 Entering Link 1 = C:\G03W\l1.exe PID=      3392.
  
 Copyright (c) 1988,1990,1992,1993,1995,1998,2003,2004, Gaussian, Inc.
                  All Rights Reserved.
  
 This is the Gaussian(R) 03 program.  It is based on the
 the Gaussian(R) 98 system (copyright 1998, Gaussian, Inc.),
 the Gaussian(R) 94 system (copyright 1995, Gaussian, Inc.),
 the Gaussian 92(TM) system (copyright 1992, Gaussian, Inc.),
 the Gaussian 90(TM) system (copyright 1990, Gaussian, Inc.),
 the Gaussian 88(TM) system (copyright 1988, Gaussian, Inc.),
 the Gaussian 86(TM) system (copyright 1986, Carnegie Mellon
 University), and the Gaussian 82(TM) system (copyright 1983,
 Carnegie Mellon University). Gaussian is a federally registered
 trademark of Gaussian, Inc.
  
 This software contains proprietary and confidential information,
 including trade secrets, belonging to Gaussian, Inc.
  
 This software is provided under written license and may be
 used, copied, transmitted, or stored only in accord with that
 written license.
  
 The following legend is applicable only to US Government
 contracts under FAR:
  
                    RESTRICTED RIGHTS LEGEND
  
 Use, reproduction and disclosure by the US Government is
 subject to restrictions as set forth in subparagraphs (a)
 and (c) of the Commercial Computer Software - Restricted
 Rights clause in FAR 52.227-19.
  
 Gaussian, Inc.
 340 Quinnipiac St., Bldg. 40, Wallingford CT 06492
  
  
 ---------------------------------------------------------------
 Warning -- This program may not be used in any manner that
 competes with the business of Gaussian, Inc. or will provide
 assistance to any competitor of Gaussian, Inc.  The licensee
 of this program is prohibited from giving any competitor of
 Gaussian, Inc. access to this program.  By using this program,
 the user acknowledges that Gaussian, Inc. is engaged in the
 business of creating and licensing software in the field of
 computational chemistry and represents and warrants to the
 licensee that it is not a competitor of Gaussian, Inc. and that
 it will not use this program in any manner prohibited above.
 ---------------------------------------------------------------
  

 Cite this work as:
 Gaussian 03, Revision D.01,
 M. J. Frisch, G. W. Trucks, H. B. Schlegel, G. E. Scuseria, 
 M. A. Robb, J. R. Cheeseman, J. A. Montgomery, Jr., T. Vreven, 
 K. N. Kudin, J. C. Burant, J. M. Millam, S. S. Iyengar, J. Tomasi, 
 V. Barone, B. Mennucci, M. Cossi, G. Scalmani, N. Rega, 
 G. A. Petersson, H. Nakatsuji, M. Hada, M. Ehara, K. Toyota, 
 R. Fukuda, J. Hasegawa, M. Ishida, T. Nakajima, Y. Honda, O. Kitao, 
 H. Nakai, M. Klene, X. Li, J. E. Knox, H. P. Hratchian, J. B. Cross, 
 V. Bakken, C. Adamo, J. Jaramillo, R. Gomperts, R. E. Stratmann, 
 O. Yazyev, A. J. Austin, R. Cammi, C. Pomelli, J. W. Ochterski, 
 P. Y. Ayala, K. Morokuma, G. A. Voth, P. Salvador, J. J. Dannenberg, 
 V. G. Zakrzewski, S. Dapprich, A. D. Daniels, M. C. Strain, 
 O. Farkas, D. K. Malick, A. D. Rabuck, K. Raghavachari, 
 J. B. Foresman, J. V. Ortiz, Q. Cui, A. G. Baboul, S. Clifford, 
 J. Cioslowski, B. B. Stefanov, G. Liu, A. Liashenko, P. Piskorz, 
 I. Komaromi, R. L. Martin, D. J. Fox, T. Keith, M. A. Al-Laham, 
 C. Y. Peng, A. Nanayakkara, M. Challacombe, P. M. W. Gill, 
 B. Johnson, W. Chen, M. W. Wong, C. Gonzalez, and J. A. Pople, 
 Gaussian, Inc., Wallingford CT, 2004.
 
 ******************************************
 Gaussian 03:  IA32W-G03RevD.01 13-Oct-2005
                13-Dec-2007 
 ******************************************
 --------------
 # opt dreiding
 --------------
 1/6=10,10=10,14=-1,18=4000020,38=1,56=1,64=1/1,3;
 2/9=110,17=6,18=5,40=1/2;
 3/5=30,11=9,16=1,25=1,30=1/1;
 4/20=9,22=1001,24=3/2;
 7/44=-1/16;
 1/6=10,10=10,14=-1,18=4000020,64=1/3(2);
 2/9=110/2;
 99//99;
 2/9=110/2;
 3/5=30,11=9,16=1,25=1,30=1/1;
 4/16=2,20=9,22=1001,24=3/2;
 7/44=-1/16;
 1/6=10,10=10,14=-1,18=4000020,64=1/3(-4);
 2/9=110/2;
 99//99;
 -------------------
 thiacyclohexane-twb
 -------------------
 Symbolic Z-matrix:
 Charge =  0 Multiplicity = 1
 C                    -1.23454  -0.61929   0.64539 
 C                    -0.11154  -1.56529   0.19439 
 C                     1.30246  -1.00629   0.45839 
 S                    -1.09854   0.84871  -0.38661 
 C                     1.46746   0.51771   0.28239 
 C                     0.62046   1.09371  -0.86161 
 H                    -2.23954  -1.09029   0.54739 
 H                    -1.07854  -0.36629   1.71939 
 H                    -0.21954  -2.54629   0.71939 
 H                    -0.23254  -1.79429  -0.89161 
 H                     2.01446  -1.53429  -0.21961 
 H                     1.61446  -1.26929   1.49839 
 H                     2.54546   0.74871   0.10039 
 H                     1.20846   1.04071   1.23539 
 H                     0.85746   0.53671  -1.79661 
 H                     0.84046   2.17171  -1.04061 
 
 Include all MM classes
 MMInit generated parameter data with length LenPar=  1821.

 GradGradGradGradGradGradGradGradGradGradGradGradGradGradGradGradGradGrad
 Berny optimization.
 Initialization pass.
 No Z-matrix variables, so optimization will use Cartesian coordinates.
 Trust Radius=1.00D-01 FncErr=1.00D-07 GrdErr=1.00D-07
 Number of steps in this run=   2 maximum allowed number of steps=   2.
 GradGradGradGradGradGradGradGradGradGradGradGradGradGradGradGradGradGrad

                          Input orientation:                          
 ---------------------------------------------------------------------
 Center     Atomic     Atomic              Coordinates (Angstroms)
 Number     Number      Type              X           Y           Z
 ---------------------------------------------------------------------
    1          6      10061003       -1.234536   -0.619286    0.645393
    2          6      10061003       -0.111536   -1.565286    0.194393
    3          6      10061003        1.302464   -1.006286    0.458393
    4         16      10161003       -1.098536    0.848714   -0.386607
    5          6      10061003        1.467464    0.517714    0.282393
    6          6      10061003        0.620464    1.093714   -0.861607
    7          1      10011000       -2.239536   -1.090286    0.547393
    8          1      10011000       -1.078536   -0.366286    1.719393
    9          1      10011000       -0.219536   -2.546286    0.719393
   10          1      10011000       -0.232536   -1.794286   -0.891607
   11          1      10011000        2.014464   -1.534286   -0.219607
   12          1      10011000        1.614464   -1.269286    1.498393
   13          1      10011000        2.545464    0.748714    0.100393
   14          1      10011000        1.208464    1.040714    1.235393
   15          1      10011000        0.857464    0.536714   -1.796607
   16          1      10011000        0.840464    2.171714   -1.040607
 ---------------------------------------------------------------------
                    Distance matrix (angstroms):
                    1          2          3          4          5
     1  C    0.000000
     2  C    1.536049   0.000000
     3  C    2.573151   1.543235   0.000000
     4  S    1.799596   2.671914   3.149579   0.000000
     5  C    2.953869   2.615315   1.542977   2.672354   0.000000
     6  C    2.940483   2.953175   2.572455   1.800170   1.535552
     7  H    1.114213   2.208759   3.544114   2.435972   4.049412
     8  H    1.114370   2.167560   2.769275   2.431432   3.054266
     9  H    2.179227   1.117877   2.180873   3.677214   3.524916
    10  H    2.178761   1.116458   2.190815   2.826735   3.100584
    11  H    3.484458   2.166156   1.115980   3.923945   2.182182
    12  H    3.044160   2.183371   1.117190   3.924222   2.166480
    13  H    4.056704   3.524639   2.180192   3.677758   1.117394
    14  H    3.011968   3.101180   2.191523   2.826658   1.117506
    15  H    3.417040   3.053104   2.768375   2.431333   2.166726
    16  H    3.864958   4.049284   3.544027   2.436753   2.208885
                    6          7          8          9         10
     6  C    0.000000
     7  H    3.864549   0.000000
     8  H    3.417567   1.801577   0.000000
     9  H    4.056447   2.495981   2.547603   0.000000
    10  H    3.011487   2.567954   3.093901   1.777918   0.000000
    11  H    3.043318   4.345336   3.832831   2.626142   2.359702
    12  H    3.484452   3.973633   2.848947   2.366670   3.065801
    13  H    2.179471   5.145673   4.122834   4.345735   3.894637
    14  H    2.178523   4.111351   2.728420   3.895126   3.825942
    15  H    1.113842   4.211042   4.114093   4.122508   2.727762
    16  H    1.114686   4.759074   4.212078   5.145942   4.111288
                   11         12         13         14         15
    11  H    0.000000
    12  H    1.783746   0.000000
    13  H    2.365682   2.625545   0.000000
    14  H    3.065499   2.360107   1.777936   0.000000
    15  H    2.848617   3.832977   2.548116   3.093581   0.000000
    16  H    3.973255   4.345812   2.496765   2.568027   1.801402
                   16
    16  H    0.000000
 Stoichiometry    C5H10S
 Framework group  C1[X(C5H10S)]
 Deg. of freedom    42
 Full point group                 C1
 Largest Abelian subgroup         C1      NOp   1
 Largest concise Abelian subgroup C1      NOp   1
                         Standard orientation:                         
 ---------------------------------------------------------------------
 Center     Atomic     Atomic              Coordinates (Angstroms)
 Number     Number      Type              X           Y           Z
 ---------------------------------------------------------------------
    1          6      10061003        0.405106    1.423005    0.367521
    2          6      10061003       -0.887383    1.232481   -0.440328
    3          6      10061003       -1.708550    0.002277   -0.000038
    4         16      10161003        1.441027   -0.001905    0.000039
    5          6      10061003       -0.891175   -1.230250    0.439908
    6          6      10061003        0.400446   -1.424104   -0.367593
    7          1      10011000        0.921402    2.375566    0.107644
    8          1      10011000        0.147069    1.458286    1.451030
    9          1      10011000       -1.522469    2.147545   -0.345590
   10          1      10011000       -0.638730    1.154159   -1.525922
   11          1      10011000       -2.380759   -0.283898   -0.843632
   12          1      10011000       -2.379953    0.290613    0.845061
   13          1      10011000       -1.529290   -2.142737    0.346396
   14          1      10011000       -0.641306   -1.152665    1.526354
   15          1      10011000        0.142552   -1.458238   -1.450630
   16          1      10011000        0.914392   -2.378608   -0.108157
 ---------------------------------------------------------------------
 Rotational constants (GHZ):      3.8473968      3.1381787      1.9792514
 Standard basis: Dummy (5D, 7F)
 There are    16 symmetry adapted basis functions of A   symmetry.
 Integral buffers will be    262144 words long.
 Raffenetti 1 integral format.
 Two-electron integral symmetry is turned on.
    16 basis functions,    16 primitive gaussians,    16 cartesian basis functions
    11 alpha electrons       11 beta electrons
       nuclear repulsion energy        51.1255189246 Hartrees.
 NAtoms=   16 NActive=   16 NUniq=   16 SFac= 7.50D-01 NAtFMM=   80 NAOKFM=F Big=F
 Dreiding calculation of energy and first derivatives.
 MO and density RWFs will be updated without deorthogonalization.
 NRF= 0 NRA=   0 NVA=  16 HaveQM=F
 Convergence limit is  0.750E-04 MaxStp=  5000 StMxLn= 1.00D-04 StpMin= 1.00D-06.
 Convergence criteria           0.00011250 0.00007500 0.00045000 0.00030000
  Step  NS  ND Rises OKQ   Scale  Max. Force  RMS Force Max. Disp.  RMS Disp.     Energy   Flag
     1   0   0   F    T  1.00D+00 0.03970246 0.01239146 0.03970246 0.01239146    0.0347410 ----
     2   0   0   F    F  3.39D-01 0.03970246 0.01239146 0.03970246 0.01239146    0.0301288 ----
     3   0   0   F    T  3.51D+00 0.01427271 0.00444899 0.01939041 0.00472705    0.0298142 ----
     4   0   0   F    F  2.11D-01 0.01427271 0.00444899 0.06803928 0.01658681    0.0278510 ----
     5   0   0   F    T  3.26D+00 0.01193946 0.00430581 0.01824349 0.00615605    0.0277890 ----
     6   0   0   F    F -1.98D-01 0.01193946 0.00430581 0.05954290 0.02009206    0.0266964 ----
     7   0   0   F    T  4.19D+00 0.00598104 0.00280620 0.00983385 0.00384817    0.0266259 ----
     8   0   0   F    F -3.28D-01 0.00598104 0.00280620 0.04118640 0.01611699    0.0262207 ----
     9   0   0   F    T  3.14D+00 0.00520504 0.00229405 0.00994555 0.00345078    0.0260946 ----
    10   0   0   F    F  1.78D-01 0.00520504 0.00229405 0.03121621 0.01083102    0.0256378 ----
    11   0   0   F    T  2.40D+00 0.00668282 0.00265194 0.01573304 0.00532763    0.0256271 ----
    12   0   0   F    F  3.21D-01 0.00668282 0.00265194 0.03768104 0.01275982    0.0251245 ----
    13   0   0   F    T  7.87D+00 0.00386033 0.00144856 0.00538007 0.00214117    0.0250930 ----
    14   0   0   T    F  2.93D-01 0.00386033 0.00144856 0.04234628 0.01685303    0.0256495 ----
    15   0   0   F    T  5.45D+00 0.00157061 0.00072804 0.00230398 0.00090696    0.0249767 ----
    16   0   0   F    F  3.09D-01 0.00157061 0.00072804 0.01256333 0.00494554    0.0248910 ----
    17   0   0   F    T  4.68D+00 0.00229309 0.00080916 0.00380466 0.00138191    0.0248860 ----
    18   0   0   T    F  4.36D-01 0.00229309 0.00080916 0.01781710 0.00647144    0.0249074 ----
    19   0   0   F    T  3.55D+00 0.00161977 0.00052894 0.00209724 0.00079568    0.0248539 ----
    20   0   0   F    F  5.47D-01 0.00161977 0.00052894 0.00744116 0.00282312    0.0248216 ----
    21   0   0   F    T  6.92D+00 0.00090790 0.00041015 0.00133062 0.00063096    0.0248170 ----
    22   0   0   T    F  2.38D-01 0.00090790 0.00041015 0.00920989 0.00436716    0.0248786 ----
    23   0   0   F    T  2.84D+00 0.00054835 0.00026169 0.00084721 0.00036649    0.0248104 ----
    24   0   0   F    F  2.90D+00 0.00054835 0.00026169 0.00240407 0.00103995    0.0248022 ----
    25   0   0   F    T  2.01D+00 0.00164675 0.00059940 0.00469797 0.00201423    0.0247922 ----
    26   0   0   F    F  6.10D-01 0.00164675 0.00059940 0.00945564 0.00405407    0.0247683 ----
    27   0   0   F    T  5.90D+00 0.00082050 0.00042175 0.00276126 0.00110714    0.0247643 ----
    28   0   0   F    F -2.11D-01 0.00082050 0.00042175 0.01628071 0.00652786    0.0247459 ----
    29   0   0   F    T  4.16D+00 0.00154575 0.00043092 0.00328009 0.00123779    0.0247445 ----
    30   0   0   F    F -1.64D-01 0.00154575 0.00043092 0.01364841 0.00515045    0.0247295 ----
    31   0   0   F    T  6.12D+00 0.00092750 0.00030832 0.00173755 0.00070354    0.0247290 ----
    32   0   0   T    F  3.21D-01 0.00092750 0.00030832 0.01063582 0.00430647    0.0247445 ----
    33   0   0   F    T  9.20D+00 0.00027905 0.00011453 0.00028819 0.00015036    0.0247245 --++
    34   0   0   T    F  2.58D-01 0.00027905 0.00011453 0.00265029 0.00138270    0.0247299 ----
    35   0   0   F    T  3.53D+00 0.00017963 0.00007603 0.00025055 0.00010086    0.0247237 --++
    36   0   0   F    F  3.30D-01 0.00017963 0.00007603 0.00088519 0.00035635    0.0247231 ----
    37   0   0   F    T  3.59D+00 0.00021000 0.00007816 0.00028583 0.00013219    0.0247231 --++
    38   0   0   T    F  4.69D-01 0.00021000 0.00007816 0.00102479 0.00047393    0.0247231 ----
    39   0   0   F    T  1.16D+01 0.00004621 0.00001790 0.00004888 0.00001920    0.0247228 ====
 Energy=    0.024722824744 NIter=   0.
 Dipole moment=       0.000000       0.000000       0.000000
 ***** Axes restored to original set *****
 -------------------------------------------------------------------
 Center     Atomic                   Forces (Hartrees/Bohr)
 Number     Number              X              Y              Z
 -------------------------------------------------------------------
    1          6          -0.000021833    0.000010598    0.000008541
    2          6           0.000007807   -0.000020684   -0.000012865
    3          6          -0.000040082    0.000006850   -0.000030054
    4         16          -0.000024188   -0.000001495    0.000004888
    5          6           0.000030844   -0.000015192   -0.000011951
    6          6           0.000016045   -0.000005562   -0.000019078
    7          1          -0.000008431   -0.000011763   -0.000001045
    8          1           0.000028187   -0.000022344   -0.000037610
    9          1          -0.000007132    0.000007057    0.000016654
   10          1           0.000001102    0.000012732    0.000023262
   11          1           0.000003853    0.000003629    0.000000626
   12          1           0.000007783   -0.000001938    0.000018894
   13          1          -0.000005044    0.000004734   -0.000017681
   14          1          -0.000008230    0.000008488    0.000007055
   15          1           0.000009427   -0.000005284    0.000052798
   16          1           0.000009891    0.000030174   -0.000002435
 -------------------------------------------------------------------
 Cartesian Forces:  Max     0.000052798 RMS     0.000017901

 GradGradGradGradGradGradGradGradGradGradGradGradGradGradGradGradGradGrad
 Berny optimization.
 Search for a local minimum.
 Step number   1 out of a maximum of   2
 All quantities printed in internal units (Hartrees-Bohrs-Radians)
 Second derivative matrix not updated -- unit matrix used.
 RFO step:  Lambda=-1.53811340D-08.
 Linear search not attempted -- first point.
 TrRot=  0.000000  0.000000  0.000000  0.000000  0.000000  0.000000
 Variable       Old X    -DE/DX   Delta X   Delta X   Delta X     New X
                                 (Linear)    (Quad)   (Total)
    X1       -2.27999  -0.00002   0.00000  -0.00002  -0.00002  -2.28001
    Y1       -1.11235   0.00001   0.00000   0.00001   0.00001  -1.11234
    Z1        1.11069   0.00001   0.00000   0.00001   0.00001   1.11070
    X2       -0.17061   0.00001   0.00000   0.00001   0.00001  -0.17060
    Y2       -3.00216  -0.00002   0.00000  -0.00002  -0.00002  -3.00218
    Z2        0.39079  -0.00001   0.00000  -0.00001  -0.00001   0.39078
    X3        2.53152  -0.00004   0.00000  -0.00004  -0.00004   2.53148
    Y3       -1.95602   0.00001   0.00000   0.00001   0.00001  -1.95601
    Z3        0.89188  -0.00003   0.00000  -0.00003  -0.00003   0.89185
    X4       -2.25235  -0.00002   0.00000  -0.00002  -0.00002  -2.25237
    Y4        1.74070   0.00000   0.00000   0.00000   0.00000   1.74070
    Z4       -0.79325   0.00000   0.00000   0.00000   0.00000  -0.79324
    X5        2.82807   0.00003   0.00000   0.00003   0.00003   2.82810
    Y5        0.94896  -0.00002   0.00000  -0.00002  -0.00002   0.94895
    Z5        0.54538  -0.00001   0.00000  -0.00001  -0.00001   0.54536
    X6        1.08412   0.00002   0.00000   0.00002   0.00002   1.08414
    Y6        2.03664  -0.00001   0.00000  -0.00001  -0.00001   2.03663
    Z6       -1.53183  -0.00002   0.00000  -0.00002  -0.00002  -1.53185
    X7       -4.12135  -0.00001   0.00000  -0.00001  -0.00001  -4.12136
    Y7       -2.01259  -0.00001   0.00000  -0.00001  -0.00001  -2.01260
    Z7        0.87838   0.00000   0.00000   0.00000   0.00000   0.87837
    X8       -2.08055   0.00003   0.00000   0.00003   0.00003  -2.08052
    Y8       -0.57984  -0.00002   0.00000  -0.00002  -0.00002  -0.57987
    Z8        3.09482  -0.00004   0.00000  -0.00004  -0.00004   3.09478
    X9       -0.42899  -0.00001   0.00000  -0.00001  -0.00001  -0.42900
    Y9       -4.74982   0.00001   0.00000   0.00001   0.00001  -4.74981
    Z9        1.46226   0.00002   0.00000   0.00002   0.00002   1.46227
   X10       -0.36592   0.00000   0.00000   0.00000   0.00000  -0.36592
   Y10       -3.47359   0.00001   0.00000   0.00001   0.00001  -3.47358
   Z10       -1.61243   0.00002   0.00000   0.00002   0.00002  -1.61241
   X11        3.84278   0.00000   0.00000   0.00000   0.00000   3.84279
   Y11       -2.92422   0.00000   0.00000   0.00000   0.00000  -2.92422
   Z11       -0.37912   0.00000   0.00000   0.00000   0.00000  -0.37912
   X12        3.09277   0.00001   0.00000   0.00001   0.00001   3.09278
   Y12       -2.43494   0.00000   0.00000   0.00000   0.00000  -2.43494
   Z12        2.82259   0.00002   0.00000   0.00002   0.00002   2.82261
   X13        4.79402  -0.00001   0.00000  -0.00001  -0.00001   4.79402
   Y13        1.37697   0.00000   0.00000   0.00000   0.00000   1.37697
   Z13        0.07526  -0.00002   0.00000  -0.00002  -0.00002   0.07524
   X14        2.39995  -0.00001   0.00000  -0.00001  -0.00001   2.39994
   Y14        1.90228   0.00001   0.00000   0.00001   0.00001   1.90229
   Z14        2.32883   0.00001   0.00000   0.00001   0.00001   2.32884
   X15        1.45026   0.00001   0.00000   0.00001   0.00001   1.45027
   Y15        1.06685  -0.00001   0.00000  -0.00001  -0.00001   1.06684
   Z15       -3.31665   0.00005   0.00000   0.00005   0.00005  -3.31659
   X16        1.49919   0.00001   0.00000   0.00001   0.00001   1.49920
   Y16        4.03900   0.00003   0.00000   0.00003   0.00003   4.03903
   Z16       -1.80209   0.00000   0.00000   0.00000   0.00000  -1.80209
         Item               Value     Threshold  Converged?
 Maximum Force            0.000053     0.000450     YES
 RMS     Force            0.000018     0.000300     YES
 Maximum Displacement     0.000053     0.001800     YES
 RMS     Displacement     0.000018     0.001200     YES
 Predicted change in Energy=-7.690567D-09
 Optimization completed.
    -- Stationary point found.
 GradGradGradGradGradGradGradGradGradGradGradGradGradGradGradGradGradGrad

                          Input orientation:                          
 ---------------------------------------------------------------------
 Center     Atomic     Atomic              Coordinates (Angstroms)
 Number     Number      Type              X           Y           Z
 ---------------------------------------------------------------------
    1          6      10061003       -1.206517   -0.588630    0.587751
    2          6      10061003       -0.090284   -1.588673    0.206797
    3          6      10061003        1.339623   -1.035080    0.471963
    4         16      10161003       -1.191890    0.921141   -0.419769
    5          6      10061003        1.496549    0.502169    0.288601
    6          6      10061003        0.573693    1.077742   -0.810608
    7          1      10011000       -2.180925   -1.065017    0.464816
    8          1      10011000       -1.100981   -0.306840    1.637707
    9          1      10011000       -0.227013   -2.513496    0.773792
   10          1      10011000       -0.193636   -1.838146   -0.853263
   11          1      10011000        2.033512   -1.547430   -0.200624
   12          1      10011000        1.636624   -1.288514    1.493651
   13          1      10011000        2.536887    0.728659    0.039827
   14          1      10011000        1.270000    1.006645    1.232363
   15          1      10011000        0.767447    0.564551   -1.755094
   16          1      10011000        0.793340    2.137347   -0.953623
 ---------------------------------------------------------------------
                    Distance matrix (angstroms):
                    1          2          3          4          5
     1  C    0.000000
     2  C    1.546346   0.000000
     3  C    2.587577   1.556090   0.000000
     4  S    1.815136   2.811634   3.321227   0.000000
     5  C    2.930170   2.626090   1.556078   2.811589   0.000000
     6  C    2.810934   2.930145   2.587597   1.815093   1.546354
     7  H    1.091572   2.170615   3.520683   2.388620   4.001367
     8  H    1.092223   2.170739   2.801042   2.397793   3.036732
     9  H    2.167752   1.093379   2.175125   3.761956   3.507180
    10  H    2.159569   1.093913   2.179914   2.966158   3.104457
    11  H    3.469672   2.162916   1.093782   4.067566   2.174517
    12  H    3.064954   2.174466   1.093748   4.067462   2.162941
    13  H    4.006063   3.507126   2.175076   3.761922   1.093384
    14  H    3.015553   3.104487   2.179838   2.966101   1.093851
    15  H    3.273420   3.036625   2.801069   2.397759   2.170753
    16  H    3.715671   4.001324   3.520656   2.388576   2.170584
                    6          7          8          9         10
     6  C    0.000000
     7  H    3.715649   0.000000
     8  H    3.273507   1.765442   0.000000
     9  H    4.006052   2.451801   2.525767   0.000000
    10  H    3.015463   2.506866   3.061552   1.761966   0.000000
    11  H    3.065075   4.293835   3.839735   2.644380   2.338941
    12  H    3.469670   3.960068   2.911858   2.343485   3.026542
    13  H    2.167771   5.065140   4.106039   4.323126   3.852512
    14  H    2.159544   4.097535   2.740638   3.852627   3.819019
    15  H    1.092226   4.034400   3.970068   4.105921   2.740425
    16  H    1.091540   4.594928   4.034538   5.065119   4.097406
                   11         12         13         14         15
    11  H    0.000000
    12  H    1.759297   0.000000
    13  H    2.343455   2.644441   0.000000
    14  H    3.026500   2.338898   1.761937   0.000000
    15  H    2.912003   3.839748   2.525785   3.061520   0.000000
    16  H    3.960129   4.293811   2.451796   2.506837   1.765422
                   16
    16  H    0.000000
 Stoichiometry    C5H10S
 Framework group  C1[X(C5H10S)]
 Deg. of freedom    42
 Full point group                 C1
 Largest Abelian subgroup         C1      NOp   1
 Largest concise Abelian subgroup C1      NOp   1
                         Standard orientation:                         
 ---------------------------------------------------------------------
 Center     Atomic     Atomic              Coordinates (Angstroms)
 Number     Number      Type              X           Y           Z
 ---------------------------------------------------------------------
    1          6      10061003       -0.390298    1.358791   -0.359280
    2          6      10061003        0.947270    1.247791    0.408691
    3          6      10061003        1.782270   -0.000054   -0.000055
    4         16      10161003       -1.538957    0.000028   -0.000029
    5          6      10061003        0.947169   -1.247862   -0.408665
    6          6      10061003       -0.390398   -1.358732    0.359341
    7          1      10011000       -0.885402    2.295470   -0.096535
    8          1      10011000       -0.193932    1.373038   -1.433612
    9          1      10011000        1.540034    2.149170    0.230865
   10          1      10011000        0.730820    1.206345    1.480175
   11          1      10011000        2.432359   -0.264729    0.838807
   12          1      10011000        2.432243    0.264660   -0.838951
   13          1      10011000        1.539918   -2.149240   -0.230749
   14          1      10011000        0.730736   -1.206482   -1.480091
   15          1      10011000       -0.194023   -1.372886    1.433676
   16          1      10011000       -0.885515   -2.295393    0.096689
 ---------------------------------------------------------------------
 Rotational constants (GHZ):      4.0206800      2.8849638      1.8966929
 1|1|UNPC-UNK|FOpt|Dreiding|ZDO|C5H10S1|PCUSER|13-Dec-2007|0||# opt dre
 iding||thiacyclohexane-twb||0,1|C,-1.2065166055,-0.5886297052,0.587750
 9969|C,-0.0902842708,-1.5886729807,0.2067966887|C,1.3396234695,-1.0350
 795049,0.4719631539|S,-1.191890294,0.9211410928,-0.4197694075|C,1.4965
 491389,0.5021685268,0.2886009411|C,0.5736930543,1.0777424619,-0.810608
 4835|H,-2.1809252207,-1.0650169241,0.4648160452|H,-1.1009805481,-0.306
 8403759,1.6377068469|H,-0.2270133534,-2.5134963468,0.7737920621|H,-0.1
 936362951,-1.8381455889,-0.8532634838|H,2.0335123868,-1.5474298687,-0.
 2006238894|H,1.6366239406,-1.2885143813,1.4936513001|H,2.5368868515,0.
 7286589655,0.0398267148|H,1.2699998859,1.0066451783,1.2323634502|H,0.7
 674466814,0.564550694,-1.7550936975|H,0.7933398189,2.1373473973,-0.953
 6234783||Version=IA32W-G03RevD.01|HF=0.0247228|RMSD=0.000e+000|RMSF=1.
 790e-005|Thermal=0.|Dipole=0.,0.,0.|PG=C01 [X(C5H10S1)]||@


 It is also a good rule not to put too much confidence in
 experimental results until they have been confirmed by
 Theory.
                             -- Sir Arthur Eddington
 Job cpu time:  0 days  0 hours  0 minutes  3.0 seconds.
 File lengths (MBytes):  RWF=     11 Int=      0 D2E=      0 Chk=      4 Scr=      1
 Normal termination of Gaussian 03 at Thu Dec 13 16:39:00 2007.
