 Entering Link 1 = C:\G03W\l1.exe PID=      4072.
  
 Copyright (c) 1988,1990,1992,1993,1995,1998,2003,2004, Gaussian, Inc.
                  All Rights Reserved.
  
 This is the Gaussian(R) 03 program.  It is based on the
 the Gaussian(R) 98 system (copyright 1998, Gaussian, Inc.),
 the Gaussian(R) 94 system (copyright 1995, Gaussian, Inc.),
 the Gaussian 92(TM) system (copyright 1992, Gaussian, Inc.),
 the Gaussian 90(TM) system (copyright 1990, Gaussian, Inc.),
 the Gaussian 88(TM) system (copyright 1988, Gaussian, Inc.),
 the Gaussian 86(TM) system (copyright 1986, Carnegie Mellon
 University), and the Gaussian 82(TM) system (copyright 1983,
 Carnegie Mellon University). Gaussian is a federally registered
 trademark of Gaussian, Inc.
  
 This software contains proprietary and confidential information,
 including trade secrets, belonging to Gaussian, Inc.
  
 This software is provided under written license and may be
 used, copied, transmitted, or stored only in accord with that
 written license.
  
 The following legend is applicable only to US Government
 contracts under FAR:
  
                    RESTRICTED RIGHTS LEGEND
  
 Use, reproduction and disclosure by the US Government is
 subject to restrictions as set forth in subparagraphs (a)
 and (c) of the Commercial Computer Software - Restricted
 Rights clause in FAR 52.227-19.
  
 Gaussian, Inc.
 340 Quinnipiac St., Bldg. 40, Wallingford CT 06492
  
  
 ---------------------------------------------------------------
 Warning -- This program may not be used in any manner that
 competes with the business of Gaussian, Inc. or will provide
 assistance to any competitor of Gaussian, Inc.  The licensee
 of this program is prohibited from giving any competitor of
 Gaussian, Inc. access to this program.  By using this program,
 the user acknowledges that Gaussian, Inc. is engaged in the
 business of creating and licensing software in the field of
 computational chemistry and represents and warrants to the
 licensee that it is not a competitor of Gaussian, Inc. and that
 it will not use this program in any manner prohibited above.
 ---------------------------------------------------------------
  

 Cite this work as:
 Gaussian 03, Revision D.01,
 M. J. Frisch, G. W. Trucks, H. B. Schlegel, G. E. Scuseria, 
 M. A. Robb, J. R. Cheeseman, J. A. Montgomery, Jr., T. Vreven, 
 K. N. Kudin, J. C. Burant, J. M. Millam, S. S. Iyengar, J. Tomasi, 
 V. Barone, B. Mennucci, M. Cossi, G. Scalmani, N. Rega, 
 G. A. Petersson, H. Nakatsuji, M. Hada, M. Ehara, K. Toyota, 
 R. Fukuda, J. Hasegawa, M. Ishida, T. Nakajima, Y. Honda, O. Kitao, 
 H. Nakai, M. Klene, X. Li, J. E. Knox, H. P. Hratchian, J. B. Cross, 
 V. Bakken, C. Adamo, J. Jaramillo, R. Gomperts, R. E. Stratmann, 
 O. Yazyev, A. J. Austin, R. Cammi, C. Pomelli, J. W. Ochterski, 
 P. Y. Ayala, K. Morokuma, G. A. Voth, P. Salvador, J. J. Dannenberg, 
 V. G. Zakrzewski, S. Dapprich, A. D. Daniels, M. C. Strain, 
 O. Farkas, D. K. Malick, A. D. Rabuck, K. Raghavachari, 
 J. B. Foresman, J. V. Ortiz, Q. Cui, A. G. Baboul, S. Clifford, 
 J. Cioslowski, B. B. Stefanov, G. Liu, A. Liashenko, P. Piskorz, 
 I. Komaromi, R. L. Martin, D. J. Fox, T. Keith, M. A. Al-Laham, 
 C. Y. Peng, A. Nanayakkara, M. Challacombe, P. M. W. Gill, 
 B. Johnson, W. Chen, M. W. Wong, C. Gonzalez, and J. A. Pople, 
 Gaussian, Inc., Wallingford CT, 2004.
 
 ******************************************
 Gaussian 03:  IA32W-G03RevD.01 13-Oct-2005
                11-Mar-2008 
 ******************************************
 ---------
 # opt uff
 ---------
 1/6=10,10=10,14=-1,18=4000020,38=1,56=1,64=2/1,3;
 2/9=110,17=6,18=5,40=1/2;
 3/5=30,11=9,16=1,25=1,30=1/1;
 4/20=10,22=1001,24=3/2;
 7/44=-1/16;
 1/6=10,10=10,14=-1,18=4000020,64=2/3(2);
 2/9=110/2;
 99//99;
 2/9=110/2;
 3/5=30,11=9,16=1,25=1,30=1/1;
 4/16=2,20=10,22=1001,24=3/2;
 7/44=-1/16;
 1/6=10,10=10,14=-1,18=4000020,64=2/3(-4);
 2/9=110/2;
 99//99;
 ------------
 acrolein-cis
 ------------
 Symbolic Z-matrix:
 Charge =  0 Multiplicity = 1
 O                    -1.43963  -0.34607   0.02267 
 C                    -0.32463  -0.81507   0.01867 
 C                     0.83737  -0.11707  -0.00733 
 C                     0.85137   1.22393  -0.03233 
 H                    -0.20463  -1.92307   0.03867 
 H                     1.79837  -0.66207  -0.00733 
 H                     1.80737   1.77193  -0.05333 
 H                    -0.06863   1.83093  -0.03333 
 
 I=    2 IAn=  6 Valence= 6.
          JB=  1 J=    1 IAn=  8 IBT= 2 Dist= 1.21D+00
          JB=  2 J=    3 IAn=  6 IBT= 2 Dist= 1.36D+00
          JB=  3 J=    5 IAn=  1 IBT= 1 Dist= 1.11D+00
 I=    3 IAn=  6 Valence= 6.
          JB=  1 J=    2 IAn=  6 IBT= 2 Dist= 1.36D+00
          JB=  2 J=    4 IAn=  6 IBT= 2 Dist= 1.34D+00
          JB=  3 J=    6 IAn=  1 IBT= 1 Dist= 1.10D+00
 I=    4 IAn=  6 Valence= 6.
          JB=  1 J=    3 IAn=  6 IBT= 2 Dist= 1.34D+00
          JB=  2 J=    7 IAn=  1 IBT= 1 Dist= 1.10D+00
          JB=  3 J=    8 IAn=  1 IBT= 1 Dist= 1.10D+00
 Include all MM classes
 MMInit generated parameter data with length LenPar=   734.

 GradGradGradGradGradGradGradGradGradGradGradGradGradGradGradGradGradGrad
 Berny optimization.
 Initialization pass.
 No Z-matrix variables, so optimization will use Cartesian coordinates.
 Trust Radius=1.00D-01 FncErr=1.00D-07 GrdErr=1.00D-07
 Number of steps in this run=   2 maximum allowed number of steps=   2.
 GradGradGradGradGradGradGradGradGradGradGradGradGradGradGradGradGradGrad

                          Input orientation:                          
 ---------------------------------------------------------------------
 Center     Atomic     Atomic              Coordinates (Angstroms)
 Number     Number      Type              X           Y           Z
 ---------------------------------------------------------------------
    1          8      10081002       -1.439633   -0.346067    0.022667
    2          6      10061000       -0.324633   -0.815067    0.018667
    3          6      10061000        0.837367   -0.117067   -0.007333
    4          6      10061002        0.851367    1.223933   -0.032333
    5          1      10011000       -0.204633   -1.923067    0.038667
    6          1      10011000        1.798367   -0.662067   -0.007333
    7          1      10011000        1.807367    1.771933   -0.053333
    8          1      10011000       -0.068633    1.830933   -0.033333
 ---------------------------------------------------------------------
                    Distance matrix (angstroms):
                    1          2          3          4          5
     1  O    0.000000
     2  C    1.209629   0.000000
     3  C    2.288683   1.355774   0.000000
     4  C    2.777878   2.354378   1.341306   0.000000
     5  H    2.003100   1.114659   2.085549   3.320209   0.000000
     6  H    3.253521   2.128665   1.104783   2.110552   2.367329
     7  H    3.877462   3.353085   2.123991   1.102126   4.208281
     8  H    2.573345   2.658864   2.148538   1.102202   3.757153
                    6          7          8
     6  H    0.000000
     7  H    2.434451   0.000000
     8  H    3.114709   1.877034   0.000000
 Stoichiometry    C3H4O
 Framework group  C1[X(C3H4O)]
 Deg. of freedom    18
 Full point group                 C1
 Largest Abelian subgroup         C1      NOp   1
 Largest concise Abelian subgroup C1      NOp   1
                         Standard orientation:                         
 ---------------------------------------------------------------------
 Center     Atomic     Atomic              Coordinates (Angstroms)
 Number     Number      Type              X           Y           Z
 ---------------------------------------------------------------------
    1          8      10081002        1.357345   -0.591975    0.000064
    2          6      10061000        0.750659    0.454511   -0.000181
    3          6      10061000       -0.597468    0.598308   -0.000126
    4          6      10061002       -1.417542   -0.463097    0.000050
    5          1      10011000        1.323291    1.410835    0.000492
    6          1      10011000       -1.035426    1.612576    0.000484
    7          1      10011000       -2.510835   -0.323844   -0.000003
    8          1      10011000       -1.049682   -1.502101    0.000057
 ---------------------------------------------------------------------
 Rotational constants (GHZ):     23.1642877      6.7503669      5.2271185
 Standard basis: Dummy (5D, 7F)
 There are     8 symmetry adapted basis functions of A   symmetry.
 Integral buffers will be    262144 words long.
 Raffenetti 1 integral format.
 Two-electron integral symmetry is turned on.
     8 basis functions,     8 primitive gaussians,     8 cartesian basis functions
     6 alpha electrons        6 beta electrons
       nuclear repulsion energy        17.5297334941 Hartrees.
 NAtoms=    8 NActive=    8 NUniq=    8 SFac= 7.50D-01 NAtFMM=   80 NAOKFM=F Big=F
 UFF calculation of energy and first derivatives.
 MO and density RWFs will be updated without deorthogonalization.
 NRF= 0 NRA=   0 NVA=   8 HaveQM=F
 Convergence limit is  0.750E-04 MaxStp=  5000 StMxLn= 1.00D-04 StpMin= 1.00D-06.
 Convergence criteria           0.00011250 0.00007500 0.00045000 0.00030000
  Step  NS  ND Rises OKQ   Scale  Max. Force  RMS Force Max. Disp.  RMS Disp.     Energy   Flag
     1   0   0   F    T  1.00D+00 0.07188265 0.01749724 0.07188265 0.01749724    0.0105206 ----
     2   0   0   F    F -3.15D-01 0.07188265 0.01749724 0.07188265 0.01749724    0.0085326 ----
     3   0   0   F    T  1.58D+00 0.02032268 0.00703889 0.02202408 0.00758711    0.0079986 ----
     4   0   0   F    F  4.15D-02 0.02032268 0.00703889 0.03481147 0.01199225    0.0070232 ----
     5   0   0   F    T  2.04D+00 0.01780216 0.00490901 0.01486998 0.00612659    0.0070216 ----
     6   0   0   F    F -1.89D-01 0.01780216 0.00490901 0.03031315 0.01248935    0.0065692 ----
     7   0   0   F    T  3.84D+00 0.00814709 0.00228554 0.00719805 0.00264038    0.0065431 ----
     8   0   0   T    F  2.66D-01 0.00814709 0.00228554 0.02761196 0.01012861    0.0069678 ----
     9   0   0   F    T  1.98D+00 0.00260940 0.00116835 0.00272007 0.00135578    0.0064793 ----
    10   0   0   F    F  6.99D-02 0.00260940 0.00116835 0.00539587 0.00268949    0.0064447 ----
    11   0   0   F    T  2.03D+00 0.00252611 0.00100403 0.00368863 0.00141718    0.0064445 ----
    12   0   0   F    F  1.49D-01 0.00252611 0.00100403 0.00748977 0.00287758    0.0064167 ----
    13   0   0   F    T  3.44D+00 0.00190102 0.00069049 0.00233953 0.00096055    0.0064163 ----
    14   0   0   T    F  4.10D-01 0.00190102 0.00069049 0.00805122 0.00330562    0.0064249 ----
    15   0   0   F    T  1.80D+00 0.00144854 0.00052045 0.00208720 0.00075361    0.0064082 ----
    16   0   0   F    F -2.16D-01 0.00144854 0.00052045 0.00375478 0.00135571    0.0064040 ----
    17   0   0   F    T  1.56D+00 0.00100455 0.00043447 0.00199677 0.00068141    0.0064036 ----
    18   0   0   F    F  8.76D-02 0.00100455 0.00043447 0.00311633 0.00106347    0.0063998 ----
    19   0   0   F    T  5.35D+00 0.00068039 0.00018104 0.00070623 0.00021635    0.0063998 ---+
    20   0   0   F    F -2.91D-01 0.00068039 0.00018104 0.00377573 0.00115666    0.0063985 ----
    21   0   0   F    T  4.80D+00 0.00032639 0.00012977 0.00043877 0.00017084    0.0063983 --++
    22   0   0   F    F -2.76D-01 0.00032639 0.00012977 0.00210512 0.00081964    0.0063977 ----
    23   0   0   F    T  1.54D+00 0.00054444 0.00018268 0.00095778 0.00038471    0.0063976 ----
    24   0   0   F    F -3.01D-01 0.00054444 0.00018268 0.00147644 0.00059303    0.0063972 ----
    25   0   0   F    T  6.95D+00 0.00012577 0.00005141 0.00012841 0.00005965    0.0063971 -+++
    26   0   0   T    F  2.59D-01 0.00012577 0.00005141 0.00089298 0.00041479    0.0063976 -+--
    27   0   0   F    T  1.00D+00 0.00015157 0.00006784 0.00031570 0.00012406    0.0063971 -+++
    28   0   0   F    F  1.74D+00 0.00015157 0.00006784 0.00031570 0.00012406    0.0063970 -+++
    29   0   0   F    T  1.02D+01 0.00007776 0.00002703 0.00009030 0.00003344    0.0063969 ====
 Energy=    0.006396935472 NIter=   0.
 Dipole moment=       0.000000       0.000000       0.000000
 ***** Axes restored to original set *****
 -------------------------------------------------------------------
 Center     Atomic                   Forces (Hartrees/Bohr)
 Number     Number              X              Y              Z
 -------------------------------------------------------------------
    1          8           0.000014008   -0.000001590    0.000001902
    2          6           0.000004599    0.000035516   -0.000002909
    3          6          -0.000049115   -0.000007328    0.000001624
    4          6           0.000075128   -0.000040684    0.000000183
    5          1           0.000005783   -0.000007919   -0.000000317
    6          1           0.000018844   -0.000005303    0.000000302
    7          1          -0.000071612    0.000001755    0.000000925
    8          1           0.000002366    0.000025554   -0.000001711
 -------------------------------------------------------------------
 Cartesian Forces:  Max     0.000075128 RMS     0.000027030

 GradGradGradGradGradGradGradGradGradGradGradGradGradGradGradGradGradGrad
 Berny optimization.
 Search for a local minimum.
 Step number   1 out of a maximum of   2
 All quantities printed in internal units (Hartrees-Bohrs-Radians)
 Second derivative matrix not updated -- unit matrix used.
 RFO step:  Lambda=-1.75346649D-08.
 Linear search not attempted -- first point.
 TrRot=  0.000000  0.000000  0.000000  0.000000  0.000000  0.000000
 Variable       Old X    -DE/DX   Delta X   Delta X   Delta X     New X
                                 (Linear)    (Quad)   (Total)
    X1       -2.64416   0.00001   0.00000   0.00001   0.00001  -2.64414
    Y1       -0.60310   0.00000   0.00000   0.00000   0.00000  -0.60310
    Z1        0.04085   0.00000   0.00000   0.00000   0.00000   0.04085
    X2       -0.55834   0.00000   0.00000   0.00000   0.00000  -0.55833
    Y2       -1.58624   0.00004   0.00000   0.00004   0.00004  -1.58620
    Z2        0.03615   0.00000   0.00000   0.00000   0.00000   0.03614
    X3        1.56788  -0.00005   0.00000  -0.00005  -0.00005   1.56783
    Y3       -0.21391  -0.00001   0.00000  -0.00001  -0.00001  -0.21392
    Z3       -0.01330   0.00000   0.00000   0.00000   0.00000  -0.01330
    X4        1.59637   0.00008   0.00000   0.00008   0.00008   1.59645
    Y4        2.31575  -0.00004   0.00000  -0.00004  -0.00004   2.31571
    Z4       -0.06107   0.00000   0.00000   0.00000   0.00000  -0.06107
    X5       -0.42688   0.00001   0.00000   0.00001   0.00001  -0.42687
    Y5       -3.62712  -0.00001   0.00000  -0.00001  -0.00001  -3.62713
    Z5        0.07303   0.00000   0.00000   0.00000   0.00000   0.07303
    X6        3.36048   0.00002   0.00000   0.00002   0.00002   3.36050
    Y6       -1.20262  -0.00001   0.00000  -0.00001  -0.00001  -1.20263
    Z6       -0.01473   0.00000   0.00000   0.00000   0.00000  -0.01473
    X7        3.38963  -0.00007   0.00000  -0.00007  -0.00007   3.38956
    Y7        3.31086   0.00000   0.00000   0.00000   0.00000   3.31086
    Z7       -0.09973   0.00000   0.00000   0.00000   0.00000  -0.09973
    X8       -0.13029   0.00000   0.00000   0.00000   0.00000  -0.13029
    Y8        3.42707   0.00003   0.00000   0.00003   0.00003   3.42710
    Z8       -0.06261   0.00000   0.00000   0.00000   0.00000  -0.06261
         Item               Value     Threshold  Converged?
 Maximum Force            0.000075     0.000450     YES
 RMS     Force            0.000027     0.000300     YES
 Maximum Displacement     0.000075     0.001800     YES
 RMS     Displacement     0.000027     0.001200     YES
 Predicted change in Energy=-8.767332D-09
 Optimization completed.
    -- Stationary point found.
 GradGradGradGradGradGradGradGradGradGradGradGradGradGradGradGradGradGrad

                          Input orientation:                          
 ---------------------------------------------------------------------
 Center     Atomic     Atomic              Coordinates (Angstroms)
 Number     Number      Type              X           Y           Z
 ---------------------------------------------------------------------
    1          8      10081002       -1.399227   -0.319147    0.021616
    2          6      10061000       -0.295459   -0.839401    0.019128
    3          6      10061000        0.829688   -0.113195   -0.007038
    4          6      10061002        0.844765    1.225442   -0.032315
    5          1      10011000       -0.225895   -1.919390    0.038645
    6          1      10011000        1.778291   -0.636401   -0.007794
    7          1      10011000        1.793718    1.752029   -0.052777
    8          1      10011000       -0.068946    1.813529   -0.033130
 ---------------------------------------------------------------------
                    Distance matrix (angstroms):
                    1          2          3          4          5
     1  O    0.000000
     2  C    1.220235   0.000000
     3  C    2.238593   1.339408   0.000000
     4  C    2.724732   2.359308   1.338961   0.000000
     5  H    1.984383   1.082404   2.092530   3.322848   0.000000
     6  H    3.193451   2.083836   1.083325   2.082915   2.380121
     7  H    3.806599   3.329465   2.100121   1.085460   4.191243
     8  H    2.514150   2.663095   2.126145   1.086607   3.736907
                    6          7          8
     6  H    0.000000
     7  H    2.388904   0.000000
     8  H    3.068401   1.863782   0.000000
 Stoichiometry    C3H4O
 Framework group  C1[X(C3H4O)]
 Deg. of freedom    18
 Full point group                 C1
 Largest Abelian subgroup         C1      NOp   1
 Largest concise Abelian subgroup C1      NOp   1
                         Standard orientation:                         
 ---------------------------------------------------------------------
 Center     Atomic     Atomic              Coordinates (Angstroms)
 Number     Number      Type              X           Y           Z
 ---------------------------------------------------------------------
    1          8      10081002        1.310042   -0.615978   -0.000013
    2          6      10061000        0.761561    0.474042    0.000015
    3          6      10061000       -0.572315    0.595645   -0.000008
    4          6      10061002       -1.409584   -0.449246    0.000003
    5          1      10011000        1.372692    1.367416    0.000039
    6          1      10011000       -0.996777    1.592352   -0.000028
    7          1      10011000       -2.481617   -0.279042   -0.000021
    8          1      10011000       -1.052605   -1.475542    0.000059
 ---------------------------------------------------------------------
 Rotational constants (GHZ):     22.9581073      6.9849925      5.3555647
 1|1|UNPC-UNK|FOpt|UFF|ZDO|C3H4O1|PCUSER|11-Mar-2008|0||# opt uff||acro
 lein-cis||0,1|O,-1.399226708,-0.3191466938,0.0216157828|C,-0.295459199
 4,-0.8394005163,0.0191278208|C,0.8296876995,-0.1131953802,-0.007038477
 9|C,0.8447649642,1.2254422226,-0.0323152166|H,-0.2258951411,-1.9193901
 54,0.0386446226|H,1.7782905329,-0.6364013694,-0.0077936559|H,1.7937175
 73,1.752029261,-0.0527772469|H,-0.0689463611,1.8135292702,-0.033130268
 9||Version=IA32W-G03RevD.01|HF=0.0063969|RMSD=0.000e+000|RMSF=2.703e-0
 05|Thermal=0.|Dipole=0.,0.,0.|PG=C01 [X(C3H4O1)]||@


 IT IS A SIMPLE TASK TO MAKE THINGS COMPLEX,
 BUT A COMPLEX TASK TO MAKE THEM SIMPLE.
 Job cpu time:  0 days  0 hours  0 minutes  2.0 seconds.
 File lengths (MBytes):  RWF=     11 Int=      0 D2E=      0 Chk=      4 Scr=      1
 Normal termination of Gaussian 03 at Tue Mar 11 14:04:57 2008.
