 Entering Link 1 = C:\G03W\l1.exe PID=      3388.
  
 Copyright (c) 1988,1990,1992,1993,1995,1998,2003,2004, Gaussian, Inc.
                  All Rights Reserved.
  
 This is the Gaussian(R) 03 program.  It is based on the
 the Gaussian(R) 98 system (copyright 1998, Gaussian, Inc.),
 the Gaussian(R) 94 system (copyright 1995, Gaussian, Inc.),
 the Gaussian 92(TM) system (copyright 1992, Gaussian, Inc.),
 the Gaussian 90(TM) system (copyright 1990, Gaussian, Inc.),
 the Gaussian 88(TM) system (copyright 1988, Gaussian, Inc.),
 the Gaussian 86(TM) system (copyright 1986, Carnegie Mellon
 University), and the Gaussian 82(TM) system (copyright 1983,
 Carnegie Mellon University). Gaussian is a federally registered
 trademark of Gaussian, Inc.
  
 This software contains proprietary and confidential information,
 including trade secrets, belonging to Gaussian, Inc.
  
 This software is provided under written license and may be
 used, copied, transmitted, or stored only in accord with that
 written license.
  
 The following legend is applicable only to US Government
 contracts under FAR:
  
                    RESTRICTED RIGHTS LEGEND
  
 Use, reproduction and disclosure by the US Government is
 subject to restrictions as set forth in subparagraphs (a)
 and (c) of the Commercial Computer Software - Restricted
 Rights clause in FAR 52.227-19.
  
 Gaussian, Inc.
 340 Quinnipiac St., Bldg. 40, Wallingford CT 06492
  
  
 ---------------------------------------------------------------
 Warning -- This program may not be used in any manner that
 competes with the business of Gaussian, Inc. or will provide
 assistance to any competitor of Gaussian, Inc.  The licensee
 of this program is prohibited from giving any competitor of
 Gaussian, Inc. access to this program.  By using this program,
 the user acknowledges that Gaussian, Inc. is engaged in the
 business of creating and licensing software in the field of
 computational chemistry and represents and warrants to the
 licensee that it is not a competitor of Gaussian, Inc. and that
 it will not use this program in any manner prohibited above.
 ---------------------------------------------------------------
  

 Cite this work as:
 Gaussian 03, Revision D.01,
 M. J. Frisch, G. W. Trucks, H. B. Schlegel, G. E. Scuseria, 
 M. A. Robb, J. R. Cheeseman, J. A. Montgomery, Jr., T. Vreven, 
 K. N. Kudin, J. C. Burant, J. M. Millam, S. S. Iyengar, J. Tomasi, 
 V. Barone, B. Mennucci, M. Cossi, G. Scalmani, N. Rega, 
 G. A. Petersson, H. Nakatsuji, M. Hada, M. Ehara, K. Toyota, 
 R. Fukuda, J. Hasegawa, M. Ishida, T. Nakajima, Y. Honda, O. Kitao, 
 H. Nakai, M. Klene, X. Li, J. E. Knox, H. P. Hratchian, J. B. Cross, 
 V. Bakken, C. Adamo, J. Jaramillo, R. Gomperts, R. E. Stratmann, 
 O. Yazyev, A. J. Austin, R. Cammi, C. Pomelli, J. W. Ochterski, 
 P. Y. Ayala, K. Morokuma, G. A. Voth, P. Salvador, J. J. Dannenberg, 
 V. G. Zakrzewski, S. Dapprich, A. D. Daniels, M. C. Strain, 
 O. Farkas, D. K. Malick, A. D. Rabuck, K. Raghavachari, 
 J. B. Foresman, J. V. Ortiz, Q. Cui, A. G. Baboul, S. Clifford, 
 J. Cioslowski, B. B. Stefanov, G. Liu, A. Liashenko, P. Piskorz, 
 I. Komaromi, R. L. Martin, D. J. Fox, T. Keith, M. A. Al-Laham, 
 C. Y. Peng, A. Nanayakkara, M. Challacombe, P. M. W. Gill, 
 B. Johnson, W. Chen, M. W. Wong, C. Gonzalez, and J. A. Pople, 
 Gaussian, Inc., Wallingford CT, 2004.
 
 ******************************************
 Gaussian 03:  IA32W-G03RevD.01 13-Oct-2005
                28-Mar-2008 
 ******************************************
 ---------
 # opt uff
 ---------
 1/6=10,10=10,14=-1,18=4000020,38=1,56=1,64=2/1,3;
 2/9=110,17=6,18=5,40=1/2;
 3/5=30,11=9,16=1,25=1,30=1/1;
 4/20=10,22=1001,24=3/2;
 7/44=-1/16;
 1/6=10,10=10,14=-1,18=4000020,64=2/3(2);
 2/9=110/2;
 99//99;
 2/9=110/2;
 3/5=30,11=9,16=1,25=1,30=1/1;
 4/16=2,20=10,22=1001,24=3/2;
 7/44=-1/16;
 1/6=10,10=10,14=-1,18=4000020,64=2/3(-4);
 2/9=110/2;
 99//99;
 ----------------------
 Dioxaphosphoriane-H-ax
 ----------------------
 Symbolic Z-matrix:
 Charge =  0 Multiplicity = 1
 O                    -1.10884  -0.62425  -0.84655 
 C                    -1.04984   0.77875  -0.72255 
 C                    -0.31684   1.21875   0.56445 
 P                     0.49016  -1.25825  -0.87055 
 C                     1.16216   0.77275   0.53145 
 O                     1.29316  -0.63025   0.51445 
 H                    -0.59384   1.21075  -1.64555 
 H                    -2.11184   1.11475  -0.69355 
 C                    -0.35484   2.76175   0.63945 
 C                    -1.02484   0.65075   1.81145 
 O                     0.44616  -2.87325  -0.80055 
 H                     1.72216   1.20475  -0.33255 
 H                     1.68516   1.10575   1.45745 
 H                    -1.40184   3.14175   0.66645 
 H                     0.14616   3.22275  -0.24255 
 H                     0.16016   3.13775   1.55245 
 H                    -1.03184  -0.46225   1.81845 
 H                    -2.08484   0.98775   1.86245 
 H                    -0.52184   0.98375   2.74745 
 H                     1.14116  -0.84825  -2.01655 
 
 I=    4 IAn= 15 Valence= 4.
          JB=  1 J=    1 IAn=  8 IBT= 1 Dist= 1.72D+00
          JB=  2 J=    6 IAn=  8 IBT= 1 Dist= 1.72D+00
          JB=  3 J=   11 IAn=  8 IBT= 1 Dist= 1.62D+00
          JB=  4 J=   20 IAn=  1 IBT= 1 Dist= 1.38D+00
 Include all MM classes
 MMInit generated parameter data with length LenPar=  2273.

 GradGradGradGradGradGradGradGradGradGradGradGradGradGradGradGradGradGrad
 Berny optimization.
 Initialization pass.
 No Z-matrix variables, so optimization will use Cartesian coordinates.
 Trust Radius=1.00D-01 FncErr=1.00D-07 GrdErr=1.00D-07
 Number of steps in this run=   2 maximum allowed number of steps=   2.
 GradGradGradGradGradGradGradGradGradGradGradGradGradGradGradGradGradGrad

                          Input orientation:                          
 ---------------------------------------------------------------------
 Center     Atomic     Atomic              Coordinates (Angstroms)
 Number     Number      Type              X           Y           Z
 ---------------------------------------------------------------------
    1          8      10081003       -1.108838   -0.624250   -0.846550
    2          6      10061003       -1.049838    0.778750   -0.722550
    3          6      10061003       -0.316838    1.218750    0.564450
    4         15      10151003        0.490163   -1.258250   -0.870550
    5          6      10061003        1.162163    0.772750    0.531450
    6          8      10081003        1.293163   -0.630250    0.514450
    7          1      10011000       -0.593838    1.210750   -1.645550
    8          1      10011000       -2.111838    1.114750   -0.693550
    9          6      10061003       -0.354838    2.761750    0.639450
   10          6      10061003       -1.024838    0.650750    1.811450
   11          8      10081000        0.446163   -2.873250   -0.800550
   12          1      10011000        1.722163    1.204750   -0.332550
   13          1      10011000        1.685163    1.105750    1.457450
   14          1      10011000       -1.401838    3.141750    0.666450
   15          1      10011000        0.146163    3.222750   -0.242550
   16          1      10011000        0.160163    3.137750    1.552450
   17          1      10011000       -1.031838   -0.462250    1.818450
   18          1      10011000       -2.084838    0.987750    1.862450
   19          1      10011000       -0.521838    0.983750    2.747450
   20          1      10011000        1.141163   -0.848250   -2.016550
 ---------------------------------------------------------------------
                    Distance matrix (angstroms):
                    1          2          3          4          5
     1  O    0.000000
     2  C    1.409704   0.000000
     3  C    2.452516   1.545075   0.000000
     4  P    1.720271   2.557904   2.974223   0.000000
     5  C    3.001322   2.542734   1.545136   2.557762   0.000000
     6  O    2.760790   3.000850   2.452224   1.719715   1.409205
     7  H    2.066604   1.116463   2.227306   2.805645   2.831026
     8  H    2.013340   1.114263   2.194403   3.526026   3.512359
     9  C    3.773819   2.504068   1.545289   4.376588   2.503812
    10  C    2.949177   2.537354   1.542367   3.623897   2.536977
    11  O    2.734619   3.947303   4.380623   1.617115   3.947176
    12  H    3.409398   2.831530   2.227628   2.806000   1.116566
    13  H    4.013446   3.512770   2.195045   3.526486   1.114403
    14  H    4.069124   2.763511   2.210330   5.030113   3.493491
    15  H    4.091363   2.762961   2.209442   4.537850   2.762939
    16  H    4.638772   3.493509   2.210483   5.030372   2.763995
    17  H    2.671029   2.827912   2.215740   3.190740   2.827584
    18  H    3.299970   2.792334   2.205445   4.375435   3.515792
    19  H    3.980838   3.515922   2.205162   4.375001   2.791242
    20  H    2.545894   3.020273   3.613836   1.380296   3.019998
                    6          7          8          9         10
     6  O    0.000000
     7  H    3.408174   0.000000
     8  H    4.012270   1.794392   0.000000
     9  C    3.773221   2.771993   2.752553   0.000000
    10  C    2.948948   3.528486   2.769818   2.505754   0.000000
    11  O    2.734535   4.298218   4.739088   5.870982   4.626550
    12  H    2.066077   2.662304   3.852009   2.771816   3.528408
    13  H    2.014103   3.851425   4.363954   2.751919   2.770639
    14  H    4.638331   3.118809   2.542131   1.114153   2.767352
    15  H    4.090754   2.562060   3.121799   1.114202   3.493614
    16  H    4.069270   3.809075   3.781406   1.113629   2.767034
    17  H    2.671004   3.871701   3.156497   3.498935   1.113044
    18  H    3.980692   3.818229   2.559296   2.763278   1.113450
    19  H    3.299320   4.399450   3.792854   2.762759   1.113550
    20  H    2.544914   2.717967   4.023146   4.724876   4.646734
                   11         12         13         14         15
    11  O    0.000000
    12  H    4.298521   0.000000
    13  H    4.739845   1.793117   0.000000
    14  H    6.461224   3.809114   3.781606   0.000000
    15  H    6.128832   2.562069   3.120931   1.796982   0.000000
    16  H    6.461465   3.119224   2.542376   1.795788   1.797066
    17  H    3.854422   3.871719   3.157694   3.801686   4.383450
    18  H    5.329620   4.399814   3.793527   2.556682   3.795209
    19  H    5.329332   3.817169   2.559264   3.124408   3.794660
    20  H    2.462175   2.718129   4.022776   5.439250   4.550840
                   16         17         18         19         20
    16  H    0.000000
    17  H    3.801529   0.000000
    18  H    3.123880   1.792553   0.000000
    19  H    2.555947   1.792779   1.796165   0.000000
    20  H    5.439515   4.424720   5.368856   5.368192   0.000000
 Stoichiometry    C5H11O3P
 Framework group  C1[X(C5H11O3P)]
 Deg. of freedom    54
 Full point group                 C1
 Largest Abelian subgroup         C1      NOp   1
 Largest concise Abelian subgroup C1      NOp   1
                         Standard orientation:                         
 ---------------------------------------------------------------------
 Center     Atomic     Atomic              Coordinates (Angstroms)
 Number     Number      Type              X           Y           Z
 ---------------------------------------------------------------------
    1          8      10081003       -0.645817    1.380655    0.112108
    2          6      10061003        0.643117    1.271298   -0.448210
    3          6      10061003        1.379643    0.000195    0.030418
    4         15      10151003       -1.573039   -0.000241   -0.326892
    5          6      10061003        0.643208   -1.271436   -0.447143
    6          8      10081003       -0.645537   -1.380135    0.112481
    7          1      10011000        0.566906    1.330356   -1.560502
    8          1      10011000        1.188064    2.181816   -0.108254
    9          6      10061003        2.795748   -0.000303   -0.588102
   10          6      10061003        1.516788    0.000431    1.566675
   11          8      10081000       -2.978586   -0.000012    0.472795
   12          1      10011000        0.567270   -1.331948   -1.559479
   13          1      10011000        1.188774   -2.182137   -0.108210
   14          1      10011000        3.375918    0.898246   -0.276094
   15          1      10011000        2.751626   -0.000543   -1.701430
   16          1      10011000        3.376386   -0.897542   -0.275067
   17          1      10011000        0.526840    0.000620    2.075467
   18          1      10011000        2.070814    0.898370    1.922388
   19          1      10011000        2.070671   -0.897795    1.922198
   20          1      10011000       -1.799195   -0.001004   -1.688535
 ---------------------------------------------------------------------
 Rotational constants (GHZ):      2.7389640      1.0133430      0.9246772
 Standard basis: Dummy (5D, 7F)
 There are    20 symmetry adapted basis functions of A   symmetry.
 Integral buffers will be    262144 words long.
 Raffenetti 1 integral format.
 Two-electron integral symmetry is turned on.
    20 basis functions,    20 primitive gaussians,    20 cartesian basis functions
    14 alpha electrons       14 beta electrons
       nuclear repulsion energy        75.2692410229 Hartrees.



 Warning!  P  atom    4 may be hypervalent but has no d functions.



 NAtoms=   20 NActive=   20 NUniq=   20 SFac= 7.50D-01 NAtFMM=   80 NAOKFM=F Big=F
 UFF calculation of energy and first derivatives.
 MO and density RWFs will be updated without deorthogonalization.
 NRF= 0 NRA=   0 NVA=  20 HaveQM=F
 Convergence limit is  0.750E-04 MaxStp=  5000 StMxLn= 1.00D-04 StpMin= 1.00D-06.
 Convergence criteria           0.00011250 0.00007500 0.00045000 0.00030000
  Step  NS  ND Rises OKQ   Scale  Max. Force  RMS Force Max. Disp.  RMS Disp.     Energy   Flag
     1   0   0   F    T  1.00D+00 0.10389569 0.02205503 0.10389569 0.02205503    0.1116313 ----
     2   0   0   F    F  3.37D-01 0.10389569 0.02205503 0.10389569 0.02205503    0.0932273 ----
     3   0   0   F    T  3.11D+00 0.04356130 0.00879869 0.04784969 0.00947302    0.0919608 ----
     4   0   0   F    F  1.39D-01 0.04356130 0.00879869 0.14895387 0.02948907    0.0837058 ----
     5   0   0   F    T  2.65D+00 0.02762914 0.00888784 0.07320932 0.01266652    0.0835771 ----
     6   0   0   F    F -1.73D-01 0.02762914 0.00888784 0.19411373 0.03358515    0.0786051 ----
     7   0   0   F    T  6.24D+00 0.01169032 0.00385427 0.01151063 0.00444913    0.0783771 ----
     8   0   0   T    F  2.80D-01 0.01169032 0.00385427 0.07185477 0.02777354    0.0827825 ----
     9   0   0   F    T  1.66D+00 0.01060956 0.00331635 0.01749470 0.00467132    0.0775988 ----
    10   0   0   F    F  4.55D-01 0.01060956 0.00331635 0.02908177 0.00776522    0.0768789 ----
    11   0   0   F    T  3.05D+00 0.00790977 0.00253821 0.01799356 0.00370025    0.0768009 ----
    12   0   0   F    F -4.61D-01 0.00790977 0.00253821 0.05492680 0.01129531    0.0767148 ----
    13   0   0   F    T  3.55D+00 0.00331910 0.00134946 0.00620373 0.00171431    0.0764836 ----
    14   0   0   F    T  4.01D+00 0.00277147 0.00106709 0.00335776 0.00151855    0.0762906 ----
    15   0   0   F    F -4.84D-01 0.00277147 0.00106709 0.01345546 0.00608524    0.0762823 ----
    16   0   0   F    T  2.87D+00 0.00316824 0.00076939 0.00227530 0.00109503    0.0762203 ----
    17   0   0   F    F -6.45D-02 0.00316824 0.00076939 0.00652141 0.00313853    0.0761729 ----
    18   0   0   F    T  2.17D+00 0.00239947 0.00077445 0.00290557 0.00135459    0.0761727 ----
    19   0   0   F    F -1.27D-01 0.00239947 0.00077445 0.00629775 0.00293605    0.0761393 ----
    20   0   0   F    T  3.16D+00 0.00200157 0.00052335 0.00207596 0.00080958    0.0761386 ----
    21   0   0   F    F -1.61D-01 0.00200157 0.00052335 0.00657024 0.00256225    0.0761176 ----
    22   0   0   F    T  2.78D+00 0.00126267 0.00045871 0.00219409 0.00077212    0.0761168 ----
    23   0   0   F    F -9.21D-02 0.00126267 0.00045871 0.00610640 0.00214890    0.0761010 ----
    24   0   0   F    T  2.15D+00 0.00120443 0.00046127 0.00304935 0.00090747    0.0761009 ----
    25   0   0   F    F  3.64D-01 0.00120443 0.00046127 0.00655586 0.00195098    0.0760835 ----
    26   0   0   F    T  3.07D+00 0.00158381 0.00042088 0.00328654 0.00086628    0.0760822 ----
    27   0   0   F    F -3.02D-01 0.00158381 0.00042088 0.01009336 0.00266045    0.0760729 ----
    28   0   0   F    T  3.71D+00 0.00073802 0.00028851 0.00207865 0.00050004    0.0760708 ----
    29   0   0   F    F -1.43D-01 0.00073802 0.00028851 0.00772102 0.00185738    0.0760630 ----
    30   0   0   F    T  2.05D+00 0.00124628 0.00034109 0.00330737 0.00077762    0.0760628 ----
    31   0   0   F    F  1.18D-01 0.00124628 0.00034109 0.00677387 0.00159266    0.0760549 ----
    32   0   0   F    T  5.03D+00 0.00058332 0.00020684 0.00153400 0.00035406    0.0760548 ----
    33   0   0   F    F -4.00D-01 0.00058332 0.00020684 0.00771248 0.00178013    0.0760527 ----
    34   0   0   F    T  2.14D+00 0.00076899 0.00023133 0.00207827 0.00049976    0.0760509 ----
    35   0   0   F    F  5.66D-02 0.00076899 0.00023133 0.00444313 0.00106844    0.0760473 ----
    36   0   0   F    T  3.61D+00 0.00058006 0.00016825 0.00107026 0.00031294    0.0760473 ----
    37   0   0   T    F  4.15D-01 0.00058006 0.00016825 0.00386087 0.00112891    0.0760486 ----
    38   0   0   F    T  2.98D+00 0.00023859 0.00010360 0.00054522 0.00015746    0.0760460 ---+
    39   0   0   F    F  6.41D-01 0.00023859 0.00010360 0.00162239 0.00046855    0.0760447 ----
    40   0   0   F    T  3.60D+00 0.00039390 0.00011138 0.00069393 0.00021339    0.0760445 ---+
    41   0   0   F    F -3.97D-01 0.00039390 0.00011138 0.00249977 0.00076872    0.0760440 ----
    42   0   0   F    T  3.25D+00 0.00019480 0.00008223 0.00039603 0.00014248    0.0760437 --++
    43   0   0   F    F  1.09D+00 0.00019480 0.00008223 0.00128811 0.00046341    0.0760427 ----
    44   0   0   F    T  1.78D+00 0.00060225 0.00015710 0.00149747 0.00054323    0.0760423 ----
    45   0   0   F    F  1.95D-01 0.00060225 0.00015710 0.00267102 0.00096894    0.0760408 ----
    46   0   0   F    T  4.57D+00 0.00026263 0.00010254 0.00070101 0.00025329    0.0760407 ---+
    47   0   0   T    F  3.56D-01 0.00026263 0.00010254 0.00320467 0.00115790    0.0760419 ----
    48   0   0   F    T  2.64D+00 0.00020406 0.00007531 0.00043248 0.00015608    0.0760402 --++
    49   0   0   F    F  1.10D+00 0.00020406 0.00007531 0.00114173 0.00041205    0.0760395 ----
    50   0   0   F    T  2.78D+00 0.00026630 0.00010327 0.00091552 0.00031110    0.0760393 ----
    51   0   0   F    F -1.31D-01 0.00026630 0.00010327 0.00254064 0.00086332    0.0760385 ----
    52   0   0   F    T  3.03D+00 0.00024697 0.00008894 0.00085222 0.00024720    0.0760385 ---+
    53   0   0   F    T  2.75D+00 0.00029137 0.00009163 0.00100965 0.00027283    0.0760377 ---+
    54   0   0   F    F  6.92D-01 0.00029137 0.00009163 0.00277627 0.00075021    0.0760367 ----
    55   0   0   F    T  2.10D+00 0.00041196 0.00013262 0.00228013 0.00060412    0.0760365 ----
    56   0   0   F    F  6.59D-01 0.00041196 0.00013262 0.00479125 0.00126944    0.0760350 ----
    57   0   0   F    T  3.31D+00 0.00050881 0.00013696 0.00239619 0.00063548    0.0760347 ----
    58   0   0   T    F  4.42D-01 0.00050881 0.00013696 0.00794301 0.00210651    0.0760352 ----
    59   0   0   F    T  3.60D+00 0.00024826 0.00008487 0.00096034 0.00025864    0.0760339 ---+
    60   0   0   F    F -8.64D-02 0.00024826 0.00008487 0.00345592 0.00093074    0.0760332 ----
    61   0   0   F    T  4.00D+00 0.00018390 0.00007447 0.00079521 0.00021251    0.0760332 -+-+
    62   0   0   F    F -1.65D-01 0.00018390 0.00007447 0.00318198 0.00085035    0.0760326 -+--
    63   0   0   F    T  2.43D+00 0.00038685 0.00008546 0.00111753 0.00029237    0.0760326 ---+
    64   0   0   F    F  1.05D+00 0.00038685 0.00008546 0.00271415 0.00071008    0.0760318 ----
    65   0   0   F    T  3.44D+00 0.00032561 0.00010125 0.00158251 0.00042231    0.0760315 ----
    66   0   0   T    F  3.74D-01 0.00032561 0.00010125 0.00544790 0.00145383    0.0760322 ----
    67   0   0   F    T  5.61D+00 0.00012067 0.00004551 0.00030971 0.00009693    0.0760311 -+++
    68   0   0   T    F  4.26D-01 0.00012067 0.00004551 0.00173745 0.00054376    0.0760312 -+--
    69   0   0   F    T  2.14D+00 0.00013792 0.00004575 0.00031593 0.00010813    0.0760310 -+++
    70   0   0   F    F  7.50D-01 0.00013792 0.00004575 0.00067753 0.00023189    0.0760308 -+-+
    71   0   0   F    T  3.91D+00 0.00014670 0.00004278 0.00031850 0.00010374    0.0760307 -+++
    72   0   0   F    F -4.63D-01 0.00014670 0.00004278 0.00124557 0.00040571    0.0760307 -+--
    73   0   0   F    T  2.94D+00 0.00008888 0.00003407 0.00022894 0.00007408    0.0760306 ====
 Energy=    0.076030628361 NIter=   0.
 Dipole moment=       0.000000       0.000000       0.000000
 ***** Axes restored to original set *****
 -------------------------------------------------------------------
 Center     Atomic                   Forces (Hartrees/Bohr)
 Number     Number              X              Y              Z
 -------------------------------------------------------------------
    1          8           0.000002636   -0.000039079   -0.000009669
    2          6          -0.000001894   -0.000017103   -0.000077864
    3          6           0.000067392   -0.000046177    0.000042833
    4         15          -0.000031656    0.000033334    0.000035828
    5          6           0.000021268    0.000060537   -0.000067309
    6          8           0.000017556   -0.000070089    0.000006642
    7          1           0.000019363   -0.000012050   -0.000001000
    8          1          -0.000005632   -0.000000880    0.000012004
    9          6          -0.000023815    0.000024163    0.000023487
   10          6          -0.000002774    0.000083835   -0.000021398
   11          8           0.000009444    0.000005676   -0.000015018
   12          1          -0.000017843   -0.000028428    0.000001840
   13          1          -0.000014878   -0.000010509    0.000002701
   14          1          -0.000033890    0.000009765    0.000012517
   15          1           0.000021973    0.000054461   -0.000037422
   16          1           0.000005999    0.000002721    0.000035084
   17          1          -0.000024114   -0.000098567    0.000041657
   18          1          -0.000043403    0.000018789   -0.000008844
   19          1           0.000032461    0.000020584    0.000026250
   20          1           0.000001807    0.000009019   -0.000002321
 -------------------------------------------------------------------
 Cartesian Forces:  Max     0.000098567 RMS     0.000034069

 GradGradGradGradGradGradGradGradGradGradGradGradGradGradGradGradGradGrad
 Berny optimization.
 Search for a local minimum.
 Step number   1 out of a maximum of   2
 All quantities printed in internal units (Hartrees-Bohrs-Radians)
 Second derivative matrix not updated -- unit matrix used.
 RFO step:  Lambda=-6.96425359D-08.
 Linear search not attempted -- first point.
 TrRot=  0.000000  0.000000  0.000000  0.000000  0.000000  0.000000
 Variable       Old X    -DE/DX   Delta X   Delta X   Delta X     New X
                                 (Linear)    (Quad)   (Total)
    X1       -2.03705   0.00000   0.00000   0.00000   0.00000  -2.03704
    Y1       -1.24285  -0.00004   0.00000  -0.00004  -0.00004  -1.24289
    Z1       -1.51665  -0.00001   0.00000  -0.00001  -0.00001  -1.51666
    X2       -1.99833   0.00000   0.00000   0.00000   0.00000  -1.99833
    Y2        1.41022  -0.00002   0.00000  -0.00002  -0.00002   1.41020
    Z2       -1.31641  -0.00008   0.00000  -0.00008  -0.00008  -1.31649
    X3       -0.62207   0.00007   0.00000   0.00007   0.00007  -0.62201
    Y3        2.31197  -0.00005   0.00000  -0.00005  -0.00005   2.31192
    Z3        1.10842   0.00004   0.00000   0.00004   0.00004   1.10846
    X4        1.07807  -0.00003   0.00000  -0.00003  -0.00003   1.07803
    Y4       -2.25389   0.00003   0.00000   0.00003   0.00003  -2.25385
    Z4       -1.91209   0.00004   0.00000   0.00004   0.00004  -1.91206
    X5        2.16196   0.00002   0.00000   0.00002   0.00002   2.16198
    Y5        1.39939   0.00006   0.00000   0.00006   0.00006   1.39945
    Z5        1.04139  -0.00007   0.00000  -0.00007  -0.00007   1.04132
    X6        2.34325   0.00002   0.00000   0.00002   0.00002   2.34327
    Y6       -1.25419  -0.00007   0.00000  -0.00007  -0.00007  -1.25426
    Z6        0.96579   0.00001   0.00000   0.00001   0.00001   0.96580
    X7       -1.13481   0.00002   0.00000   0.00002   0.00002  -1.13479
    Y7        2.26579  -0.00001   0.00000  -0.00001  -0.00001   2.26577
    Z7       -3.03740   0.00000   0.00000   0.00000   0.00000  -3.03740
    X8       -3.98855  -0.00001   0.00000  -0.00001  -0.00001  -3.98855
    Y8        2.07973   0.00000   0.00000   0.00000   0.00000   2.07973
    Z8       -1.27050   0.00001   0.00000   0.00001   0.00001  -1.27049
    X9       -0.66592  -0.00002   0.00000  -0.00002  -0.00002  -0.66595
    Y9        5.22249   0.00002   0.00000   0.00002   0.00002   5.22252
    Z9        1.19927   0.00002   0.00000   0.00002   0.00002   1.19929
   X10       -1.96694   0.00000   0.00000   0.00000   0.00000  -1.96694
   Y10        1.26964   0.00008   0.00000   0.00008   0.00008   1.26973
   Z10        3.47688  -0.00002   0.00000  -0.00002  -0.00002   3.47686
   X11        0.73078   0.00001   0.00000   0.00001   0.00001   0.73079
   Y11       -5.50076   0.00001   0.00000   0.00001   0.00001  -5.50076
   Z11       -1.31418  -0.00002   0.00000  -0.00002  -0.00002  -1.31419
   X12        3.19813  -0.00002   0.00000  -0.00002  -0.00002   3.19811
   Y12        2.25462  -0.00003   0.00000  -0.00003  -0.00003   2.25459
   Z12       -0.58181   0.00000   0.00000   0.00000   0.00000  -0.58181
   X13        3.14774  -0.00001   0.00000  -0.00001  -0.00001   3.14772
   Y13        2.06126  -0.00001   0.00000  -0.00001  -0.00001   2.06125
   Z13        2.77392   0.00000   0.00000   0.00000   0.00000   2.77393
   X14       -2.64199  -0.00003   0.00000  -0.00003  -0.00003  -2.64202
   Y14        5.93335   0.00001   0.00000   0.00001   0.00001   5.93336
   Z14        1.23702   0.00001   0.00000   0.00001   0.00001   1.23703
   X15        0.29123   0.00002   0.00000   0.00002   0.00002   0.29125
   Y15        6.03148   0.00005   0.00000   0.00005   0.00005   6.03153
   Z15       -0.48614  -0.00004   0.00000  -0.00004  -0.00004  -0.48618
   X16        0.31991   0.00001   0.00000   0.00001   0.00001   0.31992
   Y16        5.92572   0.00000   0.00000   0.00000   0.00000   5.92573
   Z16        2.91543   0.00004   0.00000   0.00004   0.00004   2.91547
   X17       -1.97341  -0.00002   0.00000  -0.00002  -0.00002  -1.97343
   Y17       -0.82914  -0.00010   0.00000  -0.00010  -0.00010  -0.82924
   Z17        3.47876   0.00004   0.00000   0.00004   0.00004   3.47881
   X18       -3.95972  -0.00004   0.00000  -0.00004  -0.00004  -3.95977
   Y18        1.92887   0.00002   0.00000   0.00002   0.00002   1.92889
   Z18        3.54366  -0.00001   0.00000  -0.00001  -0.00001   3.54365
   X19       -0.99784   0.00003   0.00000   0.00003   0.00003  -0.99781
   Y19        1.92125   0.00002   0.00000   0.00002   0.00002   1.92127
   Z19        5.22231   0.00003   0.00000   0.00003   0.00003   5.22234
   X20        2.37600   0.00000   0.00000   0.00000   0.00000   2.37600
   Y20       -1.46277   0.00001   0.00000   0.00001   0.00001  -1.46276
   Z20       -4.19876   0.00000   0.00000   0.00000   0.00000  -4.19876
         Item               Value     Threshold  Converged?
 Maximum Force            0.000099     0.000450     YES
 RMS     Force            0.000034     0.000300     YES
 Maximum Displacement     0.000099     0.001800     YES
 RMS     Displacement     0.000034     0.001200     YES
 Predicted change in Energy=-3.482126D-08
 Optimization completed.
    -- Stationary point found.
 GradGradGradGradGradGradGradGradGradGradGradGradGradGradGradGradGradGrad

                          Input orientation:                          
 ---------------------------------------------------------------------
 Center     Atomic     Atomic              Coordinates (Angstroms)
 Number     Number      Type              X           Y           Z
 ---------------------------------------------------------------------
    1          8      10081003       -1.077958   -0.657690   -0.802576
    2          6      10061003       -1.057471    0.746255   -0.696615
    3          6      10061003       -0.329187    1.223441    0.586550
    4         15      10151003        0.570488   -1.192706   -1.011836
    5          6      10061003        1.144061    0.740523    0.551080
    6          8      10081003        1.239994   -0.663688    0.511074
    7          1      10011000       -0.600514    1.199002   -1.607324
    8          1      10011000       -2.110648    1.100544   -0.672322
    9          6      10061003       -0.352392    2.763625    0.634627
   10          6      10061003       -1.040860    0.671866    1.839886
   11          8      10081000        0.386715   -2.910878   -0.695434
   12          1      10011000        1.692378    1.193091   -0.307880
   13          1      10011000        1.665710    1.090773    1.467897
   14          1      10011000       -1.398080    3.139796    0.654600
   15          1      10011000        0.154111    3.191721   -0.257255
   16          1      10011000        0.169291    3.135758    1.542779
   17          1      10011000       -1.044283   -0.438764    1.840882
   18          1      10011000       -2.095396    1.020713    1.875226
   19          1      10011000       -0.528033    1.016681    2.763528
   20          1      10011000        1.257323   -0.774063   -2.221887
 ---------------------------------------------------------------------
                    Distance matrix (angstroms):
                    1          2          3          4          5
     1  O    0.000000
     2  C    1.408087   0.000000
     3  C    2.455399   1.550683   0.000000
     4  P    1.745683   2.551311   3.033484   0.000000
     5  C    2.953770   2.530518   1.550783   2.551288   0.000000
     6  O    2.664323   2.953777   2.455460   1.745667   1.408053
     7  H    2.079153   1.114979   2.210723   2.728758   2.812908
     8  H    2.043233   1.111437   2.184826   3.544398   3.495635
     9  C    3.781190   2.517761   1.541109   4.383504   2.517796
    10  C    2.958328   2.537646   1.543232   3.769004   2.537640
    11  O    2.689536   3.931959   4.387322   1.756701   3.931933
    12  H    3.368216   2.812907   2.210803   2.728777   1.115025
    13  H    3.967353   3.495643   2.184946   3.544413   1.111461
    14  H    4.080041   2.769627   2.195353   5.042107   3.497100
    15  H    4.078398   2.764285   2.195384   4.468329   2.764377
    16  H    4.631044   3.497078   2.195407   5.042085   2.769620
    17  H    2.652722   2.800596   2.201735   3.363617   2.800564
    18  H    3.320066   2.786931   2.195741   4.510132   3.510834
    19  H    3.977818   3.510844   2.195796   4.510157   2.786949
    20  H    2.735238   3.161659   3.793989   1.453006   3.161668
                    6          7          8          9         10
     6  O    0.000000
     7  H    3.368189   0.000000
     8  H    3.967335   1.778884   0.000000
     9  C    3.781195   2.745169   2.750530   0.000000
    10  C    2.958335   3.514973   2.763947   2.510397   0.000000
    11  O    2.689537   4.324035   4.725343   5.874974   4.615395
    12  H    2.079174   2.635515   3.821569   2.745174   3.514991
    13  H    2.043252   3.821579   4.340681   2.750547   2.763944
    14  H    4.631039   3.085302   2.535157   1.111470   2.761011
    15  H    4.078438   2.522513   3.110375   1.111425   3.489359
    16  H    4.080026   3.777138   3.774505   1.111475   2.761069
    17  H    2.652716   3.843089   3.134135   3.491283   1.110636
    18  H    3.977807   3.794023   2.548844   2.759509   1.111300
    19  H    3.320107   4.375253   3.783750   2.759507   1.111307
    20  H    2.735244   2.778890   4.154339   4.823493   4.885730
                   11         12         13         14         15
    11  O    0.000000
    12  H    4.324063   0.000000
    13  H    4.725361   1.778922   0.000000
    14  H    6.451258   3.777162   3.774487   0.000000
    15  H    6.122730   2.522568   3.110477   1.800964   0.000000
    16  H    6.451254   3.085237   2.535122   1.801535   1.800968
    17  H    3.819948   3.843103   3.134113   3.786625   4.361049
    18  H    5.312868   4.375260   3.783748   2.542969   3.784314
    19  H    5.312899   3.794060   2.548854   3.116435   3.784342
    20  H    2.766586   2.778919   4.154383   5.535669   4.561173
                   16         17         18         19         20
    16  H    0.000000
    17  H    3.786665   0.000000
    18  H    3.116528   1.798914   0.000000
    19  H    2.543024   1.798919   1.801589   0.000000
    20  H    5.535632   4.681443   5.590016   5.590046   0.000000
 Stoichiometry    C5H11O3P
 Framework group  C1[X(C5H11O3P)]
 Deg. of freedom    54
 Full point group                 C1
 Largest Abelian subgroup         C1      NOp   1
 Largest concise Abelian subgroup C1      NOp   1
                         Standard orientation:                         
 ---------------------------------------------------------------------
 Center     Atomic     Atomic              Coordinates (Angstroms)
 Number     Number      Type              X           Y           Z
 ---------------------------------------------------------------------
    1          8      10081003        0.659604   -1.332161    0.163944
    2          6      10061003       -0.623474   -1.265251   -0.412202
    3          6      10061003       -1.399147   -0.000044    0.037467
    4         15      10151003        1.591183    0.000000   -0.472388
    5          6      10061003       -0.623438    1.265267   -0.412190
    6          8      10081003        0.659620    1.332163    0.163919
    7          1      10011000       -0.554546   -1.317756   -1.523809
    8          1      10011000       -1.185615   -2.170325   -0.095767
    9          6      10061003       -2.789589    0.000006   -0.627129
   10          6      10061003       -1.576141    0.000019    1.570515
   11          8      10081000        2.945744   -0.000009    0.646166
   12          1      10011000       -0.554549    1.317759   -1.523847
   13          1      10011000       -1.185610    2.170356   -0.095770
   14          1      10011000       -3.367699   -0.900732   -0.327419
   15          1      10011000       -2.695184   -0.000057   -1.734537
   16          1      10011000       -3.367667    0.900804   -0.327518
   17          1      10011000       -0.592424    0.000032    2.086084
   18          1      10011000       -2.138216   -0.900778    1.898577
   19          1      10011000       -2.138240    0.900811    1.898574
   20          1      10011000        1.862995   -0.000032   -1.899744
 ---------------------------------------------------------------------
 Rotational constants (GHZ):      2.6950953      0.9949629      0.9301429
 1|1|UNPC-UNK|FOpt|UFF|ZDO|C5H11O3P1|PCUSER|28-Mar-2008|0||# opt uff||D
 ioxaphosphoriane-H-ax||0,1|O,-1.0779582921,-0.6576898761,-0.8025762622
 |C,-1.0574708277,0.7462553072,-0.6966154477|C,-0.3291870115,1.22344105
 16,0.5865502902|P,0.5704880004,-1.1927062563,-1.0118363855|C,1.1440614
 249,0.7405229939,0.5510801329|O,1.2399944633,-0.6636883651,0.511073879
 1|H,-0.6005135475,1.1990023455,-1.6073236517|H,-2.1106479178,1.1005441
 335,-0.6723220814|C,-0.3523921839,2.7636249095,0.6346269235|C,-1.04086
 02625,0.6718660783,1.8398860827|O,0.3867145758,-2.9108781523,-0.695433
 5065|H,1.6923778771,1.1930912714,-0.3078798257|H,1.6657104338,1.090772
 7675,1.4678969378|H,-1.398079655,3.1397955475,0.6546002957|H,0.1541107
 517,3.1917210979,-0.2572553547|H,0.1692909394,3.1357579732,1.542779221
 5|H,-1.0442826281,-0.4387641226,1.8408823697|H,-2.095396091,1.02071254
 47,1.8752258478|H,-0.5280330932,1.016681295,2.7635275817|H,1.257323043
 8,-0.7740625444,-2.2218870475||Version=IA32W-G03RevD.01|HF=0.0760306|R
 MSD=0.000e+000|RMSF=3.407e-005|Thermal=0.|Dipole=0.,0.,0.|PG=C01 [X(C5
 H11O3P1)]||@


 A MAN SHOULD NEVER BE ASHAMED TO OWN HE HAS BEEN IN THE WRONG
 WHICH IS BUT SAYING IN OTHER WORDS,
 THAT HE IS WISER TODAY THAN HE WAS YESTERDAY.

                          -- JONATHAN SWIFT
 Job cpu time:  0 days  0 hours  0 minutes  2.0 seconds.
 File lengths (MBytes):  RWF=     11 Int=      0 D2E=      0 Chk=      4 Scr=      1
 Normal termination of Gaussian 03 at Fri Mar 28 18:35:48 2008.
