 Entering Link 1 = C:\G03W\l1.exe PID=      1492.
  
 Copyright (c) 1988,1990,1992,1993,1995,1998,2003,2004, Gaussian, Inc.
                  All Rights Reserved.
  
 This is the Gaussian(R) 03 program.  It is based on the
 the Gaussian(R) 98 system (copyright 1998, Gaussian, Inc.),
 the Gaussian(R) 94 system (copyright 1995, Gaussian, Inc.),
 the Gaussian 92(TM) system (copyright 1992, Gaussian, Inc.),
 the Gaussian 90(TM) system (copyright 1990, Gaussian, Inc.),
 the Gaussian 88(TM) system (copyright 1988, Gaussian, Inc.),
 the Gaussian 86(TM) system (copyright 1986, Carnegie Mellon
 University), and the Gaussian 82(TM) system (copyright 1983,
 Carnegie Mellon University). Gaussian is a federally registered
 trademark of Gaussian, Inc.
  
 This software contains proprietary and confidential information,
 including trade secrets, belonging to Gaussian, Inc.
  
 This software is provided under written license and may be
 used, copied, transmitted, or stored only in accord with that
 written license.
  
 The following legend is applicable only to US Government
 contracts under FAR:
  
                    RESTRICTED RIGHTS LEGEND
  
 Use, reproduction and disclosure by the US Government is
 subject to restrictions as set forth in subparagraphs (a)
 and (c) of the Commercial Computer Software - Restricted
 Rights clause in FAR 52.227-19.
  
 Gaussian, Inc.
 340 Quinnipiac St., Bldg. 40, Wallingford CT 06492
  
  
 ---------------------------------------------------------------
 Warning -- This program may not be used in any manner that
 competes with the business of Gaussian, Inc. or will provide
 assistance to any competitor of Gaussian, Inc.  The licensee
 of this program is prohibited from giving any competitor of
 Gaussian, Inc. access to this program.  By using this program,
 the user acknowledges that Gaussian, Inc. is engaged in the
 business of creating and licensing software in the field of
 computational chemistry and represents and warrants to the
 licensee that it is not a competitor of Gaussian, Inc. and that
 it will not use this program in any manner prohibited above.
 ---------------------------------------------------------------
  

 Cite this work as:
 Gaussian 03, Revision D.01,
 M. J. Frisch, G. W. Trucks, H. B. Schlegel, G. E. Scuseria, 
 M. A. Robb, J. R. Cheeseman, J. A. Montgomery, Jr., T. Vreven, 
 K. N. Kudin, J. C. Burant, J. M. Millam, S. S. Iyengar, J. Tomasi, 
 V. Barone, B. Mennucci, M. Cossi, G. Scalmani, N. Rega, 
 G. A. Petersson, H. Nakatsuji, M. Hada, M. Ehara, K. Toyota, 
 R. Fukuda, J. Hasegawa, M. Ishida, T. Nakajima, Y. Honda, O. Kitao, 
 H. Nakai, M. Klene, X. Li, J. E. Knox, H. P. Hratchian, J. B. Cross, 
 V. Bakken, C. Adamo, J. Jaramillo, R. Gomperts, R. E. Stratmann, 
 O. Yazyev, A. J. Austin, R. Cammi, C. Pomelli, J. W. Ochterski, 
 P. Y. Ayala, K. Morokuma, G. A. Voth, P. Salvador, J. J. Dannenberg, 
 V. G. Zakrzewski, S. Dapprich, A. D. Daniels, M. C. Strain, 
 O. Farkas, D. K. Malick, A. D. Rabuck, K. Raghavachari, 
 J. B. Foresman, J. V. Ortiz, Q. Cui, A. G. Baboul, S. Clifford, 
 J. Cioslowski, B. B. Stefanov, G. Liu, A. Liashenko, P. Piskorz, 
 I. Komaromi, R. L. Martin, D. J. Fox, T. Keith, M. A. Al-Laham, 
 C. Y. Peng, A. Nanayakkara, M. Challacombe, P. M. W. Gill, 
 B. Johnson, W. Chen, M. W. Wong, C. Gonzalez, and J. A. Pople, 
 Gaussian, Inc., Wallingford CT, 2004.
 
 ******************************************
 Gaussian 03:  IA32W-G03RevD.01 13-Oct-2005
                13-Dec-2007 
 ******************************************
 ---------
 # opt uff
 ---------
 1/6=10,10=10,14=-1,18=4000020,38=1,56=1,64=2/1,3;
 2/9=110,17=6,18=5,40=1/2;
 3/5=30,11=9,16=1,25=1,30=1/1;
 4/20=10,22=1001,24=3/2;
 7/44=-1/16;
 1/6=10,10=10,14=-1,18=4000020,64=2/3(2);
 2/9=110/2;
 99//99;
 2/9=110/2;
 3/5=30,11=9,16=1,25=1,30=1/1;
 4/16=2,20=10,22=1001,24=3/2;
 7/44=-1/16;
 1/6=10,10=10,14=-1,18=4000020,64=2/3(-4);
 2/9=110/2;
 99//99;
 --------------------
 2,3-dimethylbutane-g
 --------------------
 Symbolic Z-matrix:
 Charge =  0 Multiplicity = 1
 C                     1.33806  -0.21778   1.51716 
 C                     0.60706  -0.57578   0.21016 
 C                    -0.84094  -0.02978   0.18716 
 C                    -0.93094   1.50322   0.10416 
 C                     1.45806  -0.14378  -0.99584 
 C                    -1.67894  -0.65978  -0.94184 
 H                     2.32906  -0.72478   1.57316 
 H                     1.52506   0.87622   1.60016 
 H                     0.75506  -0.53578   2.41216 
 H                     0.53606  -1.69178   0.18316 
 H                    -1.32394  -0.33878   1.14816 
 H                    -1.98994   1.84522   0.17616 
 H                    -0.37594   1.99922   0.93216 
 H                    -0.52994   1.88822  -0.86084 
 H                     0.98606  -0.42578  -1.96284 
 H                     1.63206   0.95622  -1.00384 
 H                     2.46006  -0.63178  -0.97084 
 H                    -2.74794  -0.35578  -0.86584 
 H                    -1.31994  -0.34578  -1.94784 
 H                    -1.64994  -1.77278  -0.89884 
 
 Include all MM classes
 MMInit generated parameter data with length LenPar=  2154.

 GradGradGradGradGradGradGradGradGradGradGradGradGradGradGradGradGradGrad
 Berny optimization.
 Initialization pass.
 No Z-matrix variables, so optimization will use Cartesian coordinates.
 Trust Radius=1.00D-01 FncErr=1.00D-07 GrdErr=1.00D-07
 Number of steps in this run=   2 maximum allowed number of steps=   2.
 GradGradGradGradGradGradGradGradGradGradGradGradGradGradGradGradGradGrad

                          Input orientation:                          
 ---------------------------------------------------------------------
 Center     Atomic     Atomic              Coordinates (Angstroms)
 Number     Number      Type              X           Y           Z
 ---------------------------------------------------------------------
    1          6      10061003        1.338060   -0.217780    1.517160
    2          6      10061003        0.607060   -0.575780    0.210160
    3          6      10061003       -0.840940   -0.029780    0.187160
    4          6      10061003       -0.930940    1.503220    0.104160
    5          6      10061003        1.458060   -0.143780   -0.995840
    6          6      10061003       -1.678940   -0.659780   -0.941840
    7          1      10011000        2.329060   -0.724780    1.573160
    8          1      10011000        1.525060    0.876220    1.600160
    9          1      10011000        0.755060   -0.535780    2.412160
   10          1      10011000        0.536060   -1.691780    0.183160
   11          1      10011000       -1.323940   -0.338780    1.148160
   12          1      10011000       -1.989940    1.845220    0.176160
   13          1      10011000       -0.375940    1.999220    0.932160
   14          1      10011000       -0.529940    1.888220   -0.860840
   15          1      10011000        0.986060   -0.425780   -1.962840
   16          1      10011000        1.632060    0.956220   -1.003840
   17          1      10011000        2.460060   -0.631780   -0.970840
   18          1      10011000       -2.747940   -0.355780   -0.865840
   19          1      10011000       -1.319940   -0.345780   -1.947840
   20          1      10011000       -1.649940   -1.772780   -0.898840
 ---------------------------------------------------------------------
                    Distance matrix (angstroms):
                    1          2          3          4          5
     1  C    0.000000
     2  C    1.539732   0.000000
     3  C    2.559743   1.547692   0.000000
     4  C    3.179115   2.588227   1.537881   0.000000
     5  C    2.516952   1.537941   2.588027   3.103213   0.000000
     6  C    3.917184   2.561241   1.540709   2.516384   3.179613
     7  H    1.114570   2.201194   3.528870   4.213021   2.774160
     8  H    1.112966   2.209780   2.900924   2.943311   2.790001
     9  H    1.114468   2.207331   2.784578   3.510980   3.501762
    10  H    2.143697   1.118582   2.158330   3.516583   2.153237
    11  H    2.690176   2.159809   1.119058   2.153450   3.517710
    12  H    4.138820   3.550606   2.199079   1.115181   4.149507
    13  H    2.862710   2.849245   2.210903   1.113384   3.416605
    14  H    3.685043   2.917380   2.207657   1.113666   2.845943
    15  H    3.503936   2.210898   2.849078   3.415907   1.112383
    16  H    2.796454   2.207135   2.916574   2.845319   1.113706
    17  H    2.760512   2.198069   3.549644   4.148823   1.114797
    18  H    4.732138   3.530184   2.202665   2.774576   4.213345
    19  H    4.368933   2.902274   2.210774   2.789413   2.943534
    20  H    4.145265   2.785092   2.207244   3.500735   3.510372
                    6          7          8          9         10
     6  C    0.000000
     7  H    4.732179   0.000000
     8  H    4.368830   1.791744   0.000000
     9  H    4.145968   1.793633   1.801663   0.000000
    10  H    2.690144   2.466179   3.095260   2.520464   0.000000
    11  H    2.144100   3.697841   3.130069   2.441054   2.494280
    12  H    2.760737   5.216346   3.914328   4.266601   4.346389
    13  H    3.504278   3.892054   2.306763   3.145757   3.875078
    14  H    2.796259   4.574495   3.362096   4.270776   3.878491
    15  H    2.863463   3.794252   3.831539   4.382475   2.531911
    16  H    3.684837   3.154758   2.607425   3.829393   3.101949
    17  H    4.139196   2.549068   3.123833   3.789582   2.481349
    18  H    1.113981   5.644538   5.085028   4.800905   3.697290
    19  H    1.113334   5.084907   4.709099   4.832321   3.130114
    20  H    1.114208   4.800159   4.831442   4.275151   2.440467
                   11         12         13         14         15
    11  H    0.000000
    12  H    2.481571   0.000000
    13  H    2.532115   1.788924   0.000000
    14  H    3.102587   1.791317   1.803021   0.000000
    15  H    3.875821   4.311535   4.014560   2.977794   0.000000
    16  H    3.878926   3.911727   2.977920   2.358668   1.801921
    17  H    4.346800   5.220502   4.311202   3.911854   1.788624
    18  H    2.466629   2.550437   3.795420   3.155168   3.892437
    19  H    3.096010   3.124221   3.832044   2.606995   2.307436
    20  H    2.520484   3.789611   4.382194   3.828677   3.145632
                   16         17         18         19         20
    16  H    0.000000
    17  H    1.791205   0.000000
    18  H    4.574362   5.216365   0.000000
    19  H    3.361643   3.914681   1.791650   0.000000
    20  H    4.269659   4.266048   1.792926   1.801563   0.000000
 Stoichiometry    C6H14
 Framework group  C1[X(C6H14)]
 Deg. of freedom    54
 Full point group                 C1
 Largest Abelian subgroup         C1      NOp   1
 Largest concise Abelian subgroup C1      NOp   1
                         Standard orientation:                         
 ---------------------------------------------------------------------
 Center     Atomic     Atomic              Coordinates (Angstroms)
 Number     Number      Type              X           Y           Z
 ---------------------------------------------------------------------
    1          6      10061003        1.813775   -0.738825   -0.551332
    2          6      10061003        0.706264    0.317127   -0.380570
    3          6      10061003       -0.705288   -0.317594   -0.380525
    4          6      10061003       -1.002427   -1.183744    0.855020
    5          6      10061003        1.002253    1.185050    0.854080
    6          6      10061003       -1.814328    0.738065   -0.551982
    7          1      10011000        2.810451   -0.256389   -0.678447
    8          1      10011000        1.885523   -1.409788    0.333741
    9          1      10011000        1.638652   -1.373460   -1.450558
   10          1      10011000        0.764676    0.984215   -1.276565
   11          1      10011000       -0.765114   -0.985855   -1.276147
   12          1      10011000       -1.995610   -1.682520    0.763151
   13          1      10011000       -0.248183   -1.991628    0.989423
   14          1      10011000       -1.028923   -0.576099    1.787927
   15          1      10011000        0.248499    1.992089    0.988015
   16          1      10011000        1.028192    0.577848    1.787340
   17          1      10011000        1.995545    1.682643    0.761633
   18          1      10011000       -2.810739    0.256485   -0.679262
   19          1      10011000       -1.886016    1.409983    0.332834
   20          1      10011000       -1.638446    1.371999   -1.451233
 ---------------------------------------------------------------------
 Rotational constants (GHZ):      4.2118772      2.5071056      2.2122023
 Standard basis: Dummy (5D, 7F)
 There are    20 symmetry adapted basis functions of A   symmetry.
 Integral buffers will be    262144 words long.
 Raffenetti 1 integral format.
 Two-electron integral symmetry is turned on.
    20 basis functions,    20 primitive gaussians,    20 cartesian basis functions
    13 alpha electrons       13 beta electrons
       nuclear repulsion energy        68.8685175314 Hartrees.
 NAtoms=   20 NActive=   20 NUniq=   20 SFac= 7.50D-01 NAtFMM=   80 NAOKFM=F Big=F
 UFF calculation of energy and first derivatives.
 MO and density RWFs will be updated without deorthogonalization.
 NRF= 0 NRA=   0 NVA=  20 HaveQM=F
 Convergence limit is  0.750E-04 MaxStp=  5000 StMxLn= 1.00D-04 StpMin= 1.00D-06.
 Convergence criteria           0.00011250 0.00007500 0.00045000 0.00030000
  Step  NS  ND Rises OKQ   Scale  Max. Force  RMS Force Max. Disp.  RMS Disp.     Energy   Flag
     1   0   0   F    T  1.00D+00 0.00912542 0.00331958 0.00912542 0.00331958    0.0151194 ----
     2   0   0   F    F  3.65D-01 0.00912542 0.00331958 0.00912542 0.00331958    0.0147008 ----
     3   0   0   F    T  3.51D+00 0.00299362 0.00121381 0.00254820 0.00129241    0.0146686 ----
     4   0   0   F    F -2.52D-01 0.00299362 0.00121381 0.00893233 0.00453035    0.0145658 ----
     5   0   0   F    T  2.01D+00 0.00300516 0.00117243 0.00383141 0.00168455    0.0145527 ----
     6   0   0   F    F  8.17D-01 0.00300516 0.00117243 0.00771206 0.00339076    0.0144324 ----
     7   0   0   F    T  2.89D+00 0.00384603 0.00119922 0.00468002 0.00213285    0.0144018 ----
     8   0   0   F    F -3.68D-01 0.00384603 0.00119922 0.01351570 0.00615959    0.0143497 ----
     9   0   0   F    T  7.68D+00 0.00100057 0.00042925 0.00118252 0.00050687    0.0143231 ----
    10   0   0   T    F  3.15D-01 0.00100057 0.00042925 0.00908527 0.00389430    0.0143731 ----
    11   0   0   F    T  2.63D+00 0.00086664 0.00034040 0.00117228 0.00046642    0.0143097 ----
    12   0   0   F    F  4.95D-01 0.00086664 0.00034040 0.00308020 0.00122554    0.0142976 ----
    13   0   0   F    T  5.44D+00 0.00058952 0.00024156 0.00095912 0.00033689    0.0142961 ----
    14   0   0   T    F  3.62D-01 0.00058952 0.00024156 0.00521645 0.00183227    0.0143033 ----
    15   0   0   F    T  2.13D+00 0.00058330 0.00020268 0.00102915 0.00031199    0.0142926 ----
    16   0   0   F    F  8.00D-01 0.00058330 0.00020268 0.00218933 0.00066370    0.0142888 ----
    17   0   0   F    T  3.16D+00 0.00053059 0.00020459 0.00125982 0.00037782    0.0142879 ----
    18   0   0   F    F  1.79D-01 0.00053059 0.00020459 0.00398414 0.00119483    0.0142833 ----
    19   0   0   F    T  3.18D+00 0.00052865 0.00020830 0.00124993 0.00044292    0.0142832 ----
    20   0   0   F    F  4.69D-01 0.00052865 0.00020830 0.00397568 0.00140882    0.0142778 ----
    21   0   0   F    T  4.53D+00 0.00055418 0.00020076 0.00150504 0.00045676    0.0142771 ----
    22   0   0   F    F  2.85D-01 0.00055418 0.00020076 0.00681730 0.00206897    0.0142704 ----
    23   0   0   F    T  3.64D+00 0.00064060 0.00024612 0.00263775 0.00072950    0.0142701 ----
    24   0   0   T    F  4.63D-01 0.00064060 0.00024612 0.00960996 0.00265773    0.0142712 ----
    25   0   0   F    T  4.63D+00 0.00033320 0.00013734 0.00113024 0.00026586    0.0142670 ---+
    26   0   0   F    F  6.30D-01 0.00033320 0.00013734 0.00523387 0.00123113    0.0142634 ----
    27   0   0   F    T  2.12D+00 0.00082248 0.00025427 0.00396653 0.00094646    0.0142628 ----
    28   0   0   F    F  1.33D-01 0.00082248 0.00025427 0.00841009 0.00200673    0.0142582 ----
    29   0   0   F    T  5.37D+00 0.00082366 0.00016307 0.00159439 0.00042290    0.0142581 ----
    30   0   0   F    F -3.72D-01 0.00082366 0.00016307 0.00856944 0.00227300    0.0142564 ----
    31   0   0   F    T  3.73D+00 0.00039891 0.00014877 0.00123965 0.00038239    0.0142554 ----
    32   0   0   F    F -2.95D-01 0.00039891 0.00014877 0.00462974 0.00142812    0.0142540 ----
    33   0   0   F    T  2.40D+00 0.00050584 0.00015047 0.00130219 0.00041899    0.0142537 ----
    34   0   0   F    F  1.19D+00 0.00050584 0.00015047 0.00313085 0.00100737    0.0142511 ----
    35   0   0   F    T  3.24D+00 0.00060805 0.00018794 0.00207881 0.00067984    0.0142501 ----
    36   0   0   F    F -3.39D-01 0.00060805 0.00018794 0.00674156 0.00220471    0.0142484 ----
    37   0   0   F    T  9.60D+00 0.00022544 0.00008157 0.00033374 0.00015191    0.0142478 --++
    38   0   0   T    F  3.68D-01 0.00022544 0.00008157 0.00320347 0.00145812    0.0142492 ----
    39   0   0   F    T  3.72D+00 0.00025056 0.00007373 0.00042899 0.00014447    0.0142471 -+++
    40   0   0   F    F  7.29D-01 0.00025056 0.00007373 0.00159508 0.00053719    0.0142463 -+--
    41   0   0   F    T  4.22D+00 0.00026413 0.00008720 0.00064258 0.00022023    0.0142461 ---+
    42   0   0   F    F -4.64D-01 0.00026413 0.00008720 0.00270993 0.00092876    0.0142459 ----
    43   0   0   F    T  3.18D+00 0.00021014 0.00006957 0.00040831 0.00015643    0.0142455 -+++
    44   0   0   F    F  2.54D-01 0.00021014 0.00006957 0.00129829 0.00049739    0.0142450 -+--
    45   0   0   F    T  2.82D+00 0.00024365 0.00007985 0.00051544 0.00022096    0.0142450 ---+
    46   0   0   F    F -1.74D-01 0.00024365 0.00007985 0.00145484 0.00062366    0.0142445 ----
    47   0   0   F    T  3.80D+00 0.00016812 0.00005932 0.00036209 0.00013557    0.0142445 -+++
    48   0   0   F    F  1.30D-01 0.00016812 0.00005932 0.00137552 0.00051502    0.0142441 -+--
    49   0   0   F    T  4.46D+00 0.00014890 0.00005538 0.00033347 0.00013053    0.0142441 -+++
    50   0   0   F    T  2.34D+00 0.00025163 0.00007364 0.00064513 0.00024911    0.0142437 -+-+
    51   0   0   F    F  1.45D-01 0.00025163 0.00007364 0.00150709 0.00058194    0.0142433 -+--
    52   0   0   F    T  7.29D+00 0.00013243 0.00004972 0.00020839 0.00009136    0.0142433 -+++
    53   0   0   T    F  2.33D-01 0.00013243 0.00004972 0.00151973 0.00066622    0.0142445 -+--
    54   0   0   F    T  3.11D+00 0.00008084 0.00003189 0.00014280 0.00004993    0.0142432 ====
 Energy=    0.014243157537 NIter=   0.
 Dipole moment=       0.000000       0.000000       0.000000
 ***** Axes restored to original set *****
 -------------------------------------------------------------------
 Center     Atomic                   Forces (Hartrees/Bohr)
 Number     Number              X              Y              Z
 -------------------------------------------------------------------
    1          6           0.000035399   -0.000016190   -0.000018578
    2          6          -0.000032567    0.000006523    0.000034059
    3          6           0.000007343   -0.000051545   -0.000003090
    4          6          -0.000051788    0.000056787   -0.000034080
    5          6           0.000093486    0.000012005   -0.000011231
    6          6          -0.000031899    0.000026003   -0.000010344
    7          1           0.000033494   -0.000009554    0.000025956
    8          1          -0.000017532    0.000015489    0.000042075
    9          1          -0.000031108   -0.000019770   -0.000020927
   10          1          -0.000026013    0.000052548    0.000004593
   11          1           0.000045572   -0.000006235   -0.000024842
   12          1           0.000006099    0.000008774    0.000063585
   13          1           0.000005653   -0.000029061   -0.000026775
   14          1          -0.000046034    0.000027301   -0.000025783
   15          1          -0.000008986    0.000019638    0.000036300
   16          1           0.000057232   -0.000006227    0.000003171
   17          1          -0.000030712   -0.000040045   -0.000039894
   18          1          -0.000035887   -0.000006761   -0.000011377
   19          1           0.000006378   -0.000038279   -0.000022842
   20          1           0.000021870   -0.000001400    0.000040024
 -------------------------------------------------------------------
 Cartesian Forces:  Max     0.000093486 RMS     0.000031889

 GradGradGradGradGradGradGradGradGradGradGradGradGradGradGradGradGradGrad
 Berny optimization.
 Search for a local minimum.
 Step number   1 out of a maximum of   2
 All quantities printed in internal units (Hartrees-Bohrs-Radians)
 Second derivative matrix not updated -- unit matrix used.
 RFO step:  Lambda=-6.10150409D-08.
 Linear search not attempted -- first point.
 TrRot=  0.000000  0.000000  0.000000  0.000000  0.000000  0.000000
 Variable       Old X    -DE/DX   Delta X   Delta X   Delta X     New X
                                 (Linear)    (Quad)   (Total)
    X1        2.52202   0.00004   0.00000   0.00004   0.00004   2.52206
    Y1       -0.42021  -0.00002   0.00000  -0.00002  -0.00002  -0.42022
    Z1        2.86817  -0.00002   0.00000  -0.00002  -0.00002   2.86816
    X2        1.16078  -0.00003   0.00000  -0.00003  -0.00003   1.16075
    Y2       -1.08273   0.00001   0.00000   0.00001   0.00001  -1.08272
    Z2        0.39034   0.00003   0.00000   0.00003   0.00003   0.39038
    X3       -1.59706   0.00001   0.00000   0.00001   0.00001  -1.59706
    Y3       -0.04209  -0.00005   0.00000  -0.00005  -0.00005  -0.04215
    Z3        0.34690   0.00000   0.00000   0.00000   0.00000   0.34690
    X4       -1.75461  -0.00005   0.00000  -0.00005  -0.00005  -1.75466
    Y4        2.85508   0.00006   0.00000   0.00006   0.00006   2.85514
    Z4        0.17200  -0.00003   0.00000  -0.00003  -0.00003   0.17197
    X5        2.76638   0.00009   0.00000   0.00009   0.00009   2.76647
    Y5       -0.24419   0.00001   0.00000   0.00001   0.00001  -0.24417
    Z5       -1.88298  -0.00001   0.00000  -0.00001  -0.00001  -1.88299
    X6       -3.17118  -0.00003   0.00000  -0.00003  -0.00003  -3.17121
    Y6       -1.25371   0.00003   0.00000   0.00003   0.00003  -1.25368
    Z6       -1.77102  -0.00001   0.00000  -0.00001  -0.00001  -1.77103
    X7        4.35211   0.00003   0.00000   0.00003   0.00003   4.35214
    Y7       -1.44379  -0.00001   0.00000  -0.00001  -0.00001  -1.44380
    Z7        2.97390   0.00003   0.00000   0.00003   0.00003   2.97392
    X8        2.91565  -0.00002   0.00000  -0.00002  -0.00002   2.91563
    Y8        1.63609   0.00002   0.00000   0.00002   0.00002   1.63610
    Z8        2.99358   0.00004   0.00000   0.00004   0.00004   2.99362
    X9        1.36457  -0.00003   0.00000  -0.00003  -0.00003   1.36454
    Y9       -0.99869  -0.00002   0.00000  -0.00002  -0.00002  -0.99871
    Z9        4.52083  -0.00002   0.00000  -0.00002  -0.00002   4.52081
   X10        1.04744  -0.00003   0.00000  -0.00003  -0.00003   1.04741
   Y10       -3.18242   0.00005   0.00000   0.00005   0.00005  -3.18237
   Z10        0.32655   0.00000   0.00000   0.00000   0.00000   0.32655
   X11       -2.51524   0.00005   0.00000   0.00005   0.00005  -2.51519
   Y11       -0.60330  -0.00001   0.00000  -0.00001  -0.00001  -0.60331
   Z11        2.15451  -0.00002   0.00000  -0.00002  -0.00002   2.15449
   X12       -3.75684   0.00001   0.00000   0.00001   0.00001  -3.75683
   Y12        3.46808   0.00001   0.00000   0.00001   0.00001   3.46808
   Z12        0.32451   0.00006   0.00000   0.00006   0.00006   0.32457
   X13       -0.69873   0.00001   0.00000   0.00001   0.00001  -0.69872
   Y13        3.76091  -0.00003   0.00000  -0.00003  -0.00003   3.76088
   Z13        1.73895  -0.00003   0.00000  -0.00003  -0.00003   1.73892
   X14       -1.00290  -0.00005   0.00000  -0.00005  -0.00005  -1.00295
   Y14        3.54626   0.00003   0.00000   0.00003   0.00003   3.54629
   Z14       -1.66028  -0.00003   0.00000  -0.00003  -0.00003  -1.66030
   X15        1.85194  -0.00001   0.00000  -0.00001  -0.00001   1.85193
   Y15       -0.78517   0.00002   0.00000   0.00002   0.00002  -0.78515
   Z15       -3.68906   0.00004   0.00000   0.00004   0.00004  -3.68902
   X16        3.08617   0.00006   0.00000   0.00006   0.00006   3.08622
   Y16        1.82887  -0.00001   0.00000  -0.00001  -0.00001   1.82886
   Z16       -1.86223   0.00000   0.00000   0.00000   0.00000  -1.86222
   X17        4.63953  -0.00003   0.00000  -0.00003  -0.00003   4.63950
   Y17       -1.19028  -0.00004   0.00000  -0.00004  -0.00004  -1.19032
   Z17       -1.81719  -0.00004   0.00000  -0.00004  -0.00004  -1.81723
   X18       -5.18947  -0.00004   0.00000  -0.00004  -0.00004  -5.18950
   Y18       -0.71560  -0.00001   0.00000  -0.00001  -0.00001  -0.71561
   Z18       -1.55865  -0.00001   0.00000  -0.00001  -0.00001  -1.55866
   X19       -2.52110   0.00001   0.00000   0.00001   0.00001  -2.52110
   Y19       -0.61765  -0.00004   0.00000  -0.00004  -0.00004  -0.61769
   Z19       -3.66097  -0.00002   0.00000  -0.00002  -0.00002  -3.66099
   X20       -3.04932   0.00002   0.00000   0.00002   0.00002  -3.04930
   Y20       -3.34683   0.00000   0.00000   0.00000   0.00000  -3.34683
   Z20       -1.67284   0.00004   0.00000   0.00004   0.00004  -1.67280
         Item               Value     Threshold  Converged?
 Maximum Force            0.000093     0.000450     YES
 RMS     Force            0.000032     0.000300     YES
 Maximum Displacement     0.000093     0.001800     YES
 RMS     Displacement     0.000032     0.001200     YES
 Predicted change in Energy=-3.050752D-08
 Optimization completed.
    -- Stationary point found.
 GradGradGradGradGradGradGradGradGradGradGradGradGradGradGradGradGradGrad

                          Input orientation:                          
 ---------------------------------------------------------------------
 Center     Atomic     Atomic              Coordinates (Angstroms)
 Number     Number      Type              X           Y           Z
 ---------------------------------------------------------------------
    1          6      10061003        1.334598   -0.222364    1.517772
    2          6      10061003        0.614259   -0.572957    0.206561
    3          6      10061003       -0.845130   -0.022275    0.183574
    4          6      10061003       -0.928501    1.510843    0.091021
    5          6      10061003        1.463906   -0.129218   -0.996429
    6          6      10061003       -1.678114   -0.663434   -0.937185
    7          1      10011000        2.303036   -0.764021    1.573718
    8          1      10011000        1.542895    0.865780    1.584133
    9          1      10011000        0.722100   -0.528485    2.392323
   10          1      10011000        0.554279   -1.684065    0.172802
   11          1      10011000       -1.331006   -0.319255    1.140120
   12          1      10011000       -1.988034    1.835226    0.171723
   13          1      10011000       -0.369750    1.990189    0.920213
   14          1      10011000       -0.530714    1.876601   -0.878582
   15          1      10011000        0.980006   -0.415496   -1.952165
   16          1      10011000        1.633128    0.967794   -0.985448
   17          1      10011000        2.455132   -0.629871   -0.961618
   18          1      10011000       -2.746147   -0.378679   -0.824803
   19          1      10011000       -1.334110   -0.326846   -1.937301
   20          1      10011000       -1.613633   -1.771067   -0.885229
 ---------------------------------------------------------------------
                    Distance matrix (angstroms):
                    1          2          3          4          5
     1  C    0.000000
     2  C    1.536580   0.000000
     3  C    2.563461   1.559998   0.000000
     4  C    3.187670   2.595318   1.538170   0.000000
     5  C    2.519247   1.538177   2.595282   3.097734   0.000000
     6  C    3.911239   2.563458   1.536571   2.519247   3.187661
     7  H    1.111033   2.181190   3.520459   4.220927   2.777187
     8  H    1.109886   2.197733   2.907381   2.958595   2.766868
     9  H    1.110722   2.188873   2.755182   3.489889   3.491895
    10  H    2.134107   1.113238   2.172557   3.523174   2.147573
    11  H    2.693966   2.172545   1.113217   2.147528   3.523136
    12  H    4.133450   3.545771   2.180982   1.111013   4.139989
    13  H    2.856094   2.836775   2.195139   1.108844   3.395246
    14  H    3.691551   2.913559   2.198354   1.110019   2.831202
    15  H    3.493351   2.195145   2.836746   3.395259   1.108849
    16  H    2.787779   2.198384   2.913522   2.831189   1.110042
    17  H    2.751188   2.180985   3.545753   4.140009   1.111034
    18  H    4.707926   3.520480   2.181218   2.777204   4.220927
    19  H    4.366972   2.907379   2.197720   2.766895   2.958579
    20  H    4.106697   2.755173   2.188884   3.491905   3.489882
                    6          7          8          9         10
     6  C    0.000000
     7  H    4.707898   0.000000
     8  H    4.366971   1.798381   0.000000
     9  H    4.106685   1.795815   1.808549   0.000000
    10  H    2.693945   2.422230   3.077486   2.507948   0.000000
    11  H    2.134043   3.686744   3.140185   2.413924   2.520458
    12  H    2.751187   5.209122   3.924562   4.226466   4.341517
    13  H    3.493345   3.893139   2.315879   3.114958   3.861683
    14  H    2.787784   4.584407   3.374400   4.248858   3.867939
    15  H    2.856092   3.782027   3.803145   4.353603   2.511174
    16  H    3.691553   3.161849   2.573188   3.805018   3.088335
    17  H    4.133455   2.543434   3.090307   3.776585   2.451831
    18  H    1.111039   5.603181   5.074202   4.732977   3.686741
    19  H    1.109892   5.074170   4.701064   4.797322   3.140158
    20  H    1.110724   4.732954   4.797330   4.212126   2.413885
                   11         12         13         14         15
    11  H    0.000000
    12  H    2.451789   0.000000
    13  H    2.511156   1.789719   0.000000
    14  H    3.088269   1.796840   1.809551   0.000000
    15  H    3.861640   4.287880   3.982426   2.947637   0.000000
    16  H    3.867897   3.899269   2.947602   2.349375   1.809586
    17  H    4.341500   5.206044   4.287886   3.899304   1.789731
    18  H    2.422205   2.543457   3.782047   3.161854   3.893137
    19  H    3.077432   3.090332   3.803160   2.573229   2.315861
    20  H    2.507923   3.776596   4.353610   3.805028   3.114946
                   16         17         18         19         20
    16  H    0.000000
    17  H    1.796884   0.000000
    18  H    4.584413   5.209138   0.000000
    19  H    3.374407   3.924556   1.798384   0.000000
    20  H    4.248866   4.226466   1.795824   1.808525   0.000000
 Stoichiometry    C6H14
 Framework group  C1[X(C6H14)]
 Deg. of freedom    54
 Full point group                 C1
 Largest Abelian subgroup         C1      NOp   1
 Largest concise Abelian subgroup C1      NOp   1
                         Standard orientation:                         
 ---------------------------------------------------------------------
 Center     Atomic     Atomic              Coordinates (Angstroms)
 Number     Number      Type              X           Y           Z
 ---------------------------------------------------------------------
    1          6      10061003       -1.807129    0.747485   -0.559739
    2          6      10061003       -0.713147   -0.315968   -0.377121
    3          6      10061003        0.713138    0.315939   -0.377110
    4          6      10061003        1.012537    1.172103    0.865190
    5          6      10061003       -1.012527   -1.172054    0.865246
    6          6      10061003        1.807122   -0.747501   -0.559718
    7          1      10011000       -2.789940    0.255127   -0.721173
    8          1      10011000       -1.889488    1.398161    0.335631
    9          1      10011000       -1.592246    1.378465   -1.448216
   10          1      10011000       -0.782538   -0.987862   -1.262018
   11          1      10011000        0.782565    0.987780   -1.262018
   12          1      10011000        2.003768    1.661528    0.754413
   13          1      10011000        0.256994    1.974580    0.986517
   14          1      10011000        1.037773    0.550450    1.784459
   15          1      10011000       -0.256988   -1.974539    0.986596
   16          1      10011000       -1.037759   -0.550336    1.784496
   17          1      10011000       -2.003776   -1.661496    0.754482
   18          1      10011000        2.789955   -0.255176   -0.721165
   19          1      10011000        1.889474   -1.398168    0.335665
   20          1      10011000        1.592239   -1.378537   -1.448159
 ---------------------------------------------------------------------
 Rotational constants (GHZ):      4.2184113      2.5024665      2.2215089
 1|1|UNPC-UNK|FOpt|UFF|ZDO|C6H14|PCUSER|13-Dec-2007|0||# opt uff||2,3-d
 imethylbutane-g||0,1|C,1.3345978283,-0.2223639474,1.5177723719|C,0.614
 2590559,-0.5729567601,0.2065606671|C,-0.8451296624,-0.0222752678,0.183
 5741804|C,-0.9285007085,1.5108425382,0.0910208859|C,1.4639056396,-0.12
 92179472,-0.9964289663|C,-1.6781142728,-0.663433953,-0.9371852178|H,2.
 3030356513,-0.7640210579,1.5737179516|H,1.5428947114,0.8657797571,1.58
 41326443|H,0.7220995885,-0.5284846689,2.3923226977|H,0.5542791519,-1.6
 840648133,0.1728018353|H,-1.3310057761,-0.3192551416,1.1401200694|H,-1
 .9880342275,1.835226262,0.1717230306|H,-0.3697502872,1.9901894811,0.92
 02129477|H,-0.5307136731,1.8766006187,-0.8785817076|H,0.9800061254,-0.
 4154957082,-1.9521652255|H,1.6331282708,0.9677941152,-0.9854480774|H,2
 .4551323201,-0.6298714632,-0.9616177008|H,-2.7461466842,-0.3786788419,
 -0.8248026272|H,-1.33411021,-0.3268459343,-1.9373006422|H,-1.613632841
 6,-1.7710672675,-0.885229117||Version=IA32W-G03RevD.01|HF=0.0142432|RM
 SD=0.000e+000|RMSF=3.189e-005|Thermal=0.|Dipole=0.,0.,0.|PG=C01 [X(C6H
 14)]||@


 Money is a good servant but a bad master.
                        -- French Proverb
 Job cpu time:  0 days  0 hours  0 minutes  3.0 seconds.
 File lengths (MBytes):  RWF=     11 Int=      0 D2E=      0 Chk=      4 Scr=      1
 Normal termination of Gaussian 03 at Thu Dec 13 15:39:41 2007.
