 Entering Gaussian System, Link 0=g09
 Input=Et_P_Me2_a.gjf
 Output=Et_P_Me2_a.out
 Initial command:
 /usr/local/g09/l1.exe /home/scratch/stylianakis/Gau-19295.inp -scrdir=/home/scratch/stylianakis/
 Entering Link 1 = /usr/local/g09/l1.exe PID=     19296.
  
 Copyright (c) 1988,1990,1992,1993,1995,1998,2003,2009, Gaussian, Inc.
                  All Rights Reserved.
  
 This is part of the Gaussian(R) 09 program.  It is based on
 the Gaussian(R) 03 system (copyright 2003, Gaussian, Inc.),
 the Gaussian(R) 98 system (copyright 1998, Gaussian, Inc.),
 the Gaussian(R) 94 system (copyright 1995, Gaussian, Inc.),
 the Gaussian 92(TM) system (copyright 1992, Gaussian, Inc.),
 the Gaussian 90(TM) system (copyright 1990, Gaussian, Inc.),
 the Gaussian 88(TM) system (copyright 1988, Gaussian, Inc.),
 the Gaussian 86(TM) system (copyright 1986, Carnegie Mellon
 University), and the Gaussian 82(TM) system (copyright 1983,
 Carnegie Mellon University). Gaussian is a federally registered
 trademark of Gaussian, Inc.
  
 This software contains proprietary and confidential information,
 including trade secrets, belonging to Gaussian, Inc.
  
 This software is provided under written license and may be
 used, copied, transmitted, or stored only in accord with that
 written license.
  
 The following legend is applicable only to US Government
 contracts under FAR:
  
                    RESTRICTED RIGHTS LEGEND
  
 Use, reproduction and disclosure by the US Government is
 subject to restrictions as set forth in subparagraphs (a)
 and (c) of the Commercial Computer Software - Restricted
 Rights clause in FAR 52.227-19.
  
 Gaussian, Inc.
 340 Quinnipiac St., Bldg. 40, Wallingford CT 06492
  
  
 ---------------------------------------------------------------
 Warning -- This program may not be used in any manner that
 competes with the business of Gaussian, Inc. or will provide
 assistance to any competitor of Gaussian, Inc.  The licensee
 of this program is prohibited from giving any competitor of
 Gaussian, Inc. access to this program.  By using this program,
 the user acknowledges that Gaussian, Inc. is engaged in the
 business of creating and licensing software in the field of
 computational chemistry and represents and warrants to the
 licensee that it is not a competitor of Gaussian, Inc. and that
 it will not use this program in any manner prohibited above.
 ---------------------------------------------------------------
  

 Cite this work as:
 Gaussian 09, Revision A.01,
 M. J. Frisch, G. W. Trucks, H. B. Schlegel, G. E. Scuseria, 
 M. A. Robb, J. R. Cheeseman, G. Scalmani, V. Barone, B. Mennucci, 
 G. A. Petersson, H. Nakatsuji, M. Caricato, X. Li, H. P. Hratchian, 
 A. F. Izmaylov, J. Bloino, G. Zheng, J. L. Sonnenberg, M. Hada, 
 M. Ehara, K. Toyota, R. Fukuda, J. Hasegawa, M. Ishida, T. Nakajima, 
 Y. Honda, O. Kitao, H. Nakai, T. Vreven, J. A. Montgomery, Jr., 
 J. E. Peralta, F. Ogliaro, M. Bearpark, J. J. Heyd, E. Brothers, 
 K. N. Kudin, V. N. Staroverov, R. Kobayashi, J. Normand, 
 K. Raghavachari, A. Rendell, J. C. Burant, S. S. Iyengar, J. Tomasi, 
 M. Cossi, N. Rega, J. M. Millam, M. Klene, J. E. Knox, J. B. Cross, 
 V. Bakken, C. Adamo, J. Jaramillo, R. Gomperts, R. E. Stratmann, 
 O. Yazyev, A. J. Austin, R. Cammi, C. Pomelli, J. W. Ochterski, 
 R. L. Martin, K. Morokuma, V. G. Zakrzewski, G. A. Voth, 
 P. Salvador, J. J. Dannenberg, S. Dapprich, A. D. Daniels, 
 O. Farkas, J. B. Foresman, J. V. Ortiz, J. Cioslowski, 
 and D. J. Fox, Gaussian, Inc., Wallingford CT, 2009.
 
 ******************************************
 Gaussian 09:  EM64L-G09RevA.01  8-May-2009
                14-Mar-2016 
 ******************************************
 %mem=16000Mb
 %nproc=8
 Will use up to    8 processors via shared memory.
 -------------
 # mp2/cc-pVTZ
 -------------
 1/38=1/1;
 2/12=2,17=6,18=5,40=1/2;
 3/5=16,6=1,11=9,16=1,25=1,30=1/1,2,3;
 4//1;
 5/5=2,38=5/2;
 8/10=1/1;
 9/16=-3/6;
 6/7=2,8=2,9=2,10=2/1;
 99/5=1,9=1/99;
 -----------------------
 Et_P_Me2_a_single_point
 -----------------------
 Symbolic Z-matrix:
 Charge =  0 Multiplicity = 1
 c
 p                    1    pc2
 c                    2    cp3      1    cpc3
 c                    2    cp4      3    cpc4     1    dih4     0
 c                    4    cc5      2    ccp5     3    dih5     0
 h                    4    hc6      2    hcp6     1    dih6     0
 h                    4    hc7      2    hcp7     1    dih7     0
 h                    5    hc8      4    hcc8     2    dih8     0
 h                    5    hc9      4    hcc9     2    dih9     0
 h                    5    hc10     4    hcc10    2    dih10    0
 h                    1    hc11     2    hcp11    4    dih11    0
 h                    1    hc12     2    hcp12    4    dih12    0
 h                    1    hc13     2    hcp13    4    dih13    0
 h                    3    hc14     2    hcp14    4    dih14    0
 h                    3    hc15     2    hcp15    4    dih15    0
 h                    3    hc16     2    hcp16    4    dih16    0
       Variables:
  pc2                   1.86763                  
  cp3                   1.86762                  
  cpc3                 99.652                    
  cp4                   1.8802                   
  cpc4                101.688                    
  dih4               -104.183                    
  cc5                   1.53386                  
  ccp5                119.574                    
  dih5                 51.286                    
  hc6                   1.0978                   
  hcp6                105.393                    
  dih6                 73.086                    
  hc7                   1.0978                   
  hcp7                105.393                    
  dih7               -175.654                    
  hc8                   1.09649                  
  hcc8                110.507                    
  dih8               -179.998                    
  hc9                   1.09487                  
  hcc9                111.912                    
  dih9                -60.554                    
  hc10                  1.09487                  
  hcc10               111.912                    
  dih10                60.558                    
  hc11                  1.09476                  
  hcp11               108.694                    
  dih11               176.477                    
  hc12                  1.095                    
  hcp12               109.531                    
  dih12               -66.364                    
  hc13                  1.09555                  
  hcp13               113.694                    
  dih13                55.642                    
  hc14                  1.09476                  
  hcp14               108.693                    
  dih14              -176.465                    
  hc15                  1.09555                  
  hcp15               113.694                    
  dih15               -55.63                     
  hc16                  1.095                    
  hcp16               109.531                    
  dih16                66.376                    
 
                          Input orientation:                          
 ---------------------------------------------------------------------
 Center     Atomic      Atomic             Coordinates (Angstroms)
 Number     Number       Type             X           Y           Z
 ---------------------------------------------------------------------
      1          6           0        0.000000    0.000000    0.000000
      2         15           0        0.000000    0.000000    1.867625
      3          6           0        1.841186    0.000000    2.180757
      4          6           0       -0.451142    1.785093    2.248511
      5          6           0        0.334951    2.922746    1.584788
      6          1           0       -1.518113    1.874109    2.005994
      7          1           0       -0.390915    1.874125    3.341036
      8          1           0       -0.050185    3.896503    1.910000
      9          1           0        1.397990    2.890860    1.844926
     10          1           0        0.256638    2.890886    0.493186
     11          1           0        0.315391   -0.987878   -0.350885
     12          1           0       -1.017984    0.169489   -0.366078
     13          1           0        0.664200    0.751832   -0.440249
     14          1           0        2.240000   -0.987819    1.928457
     15          1           0        2.386539    0.751967    1.599926
     16          1           0        2.031398    0.169280    3.245744
 ---------------------------------------------------------------------
                    Distance matrix (angstroms):
                    1          2          3          4          5
     1  C    0.000000
     2  P    1.867625   0.000000
     3  C    2.854062   1.867624   0.000000
     4  C    2.906181   1.880202   2.906186   0.000000
     5  C    3.341585   2.955441   3.341612   1.533860   0.000000
     6  H    3.137031   2.415802   3.850678   1.097800   2.170461
     7  H    3.850673   2.415802   3.137016   1.097800   2.170460
     8  H    4.339741   3.897056   4.339738   2.175640   1.096492
     9  H    3.703404   3.211225   2.943854   2.192007   1.094870
    10  H    2.943861   3.211256   3.703500   2.192008   1.094871
    11  H    1.094758   2.448910   3.116596   3.877345   4.363507
    12  H    1.095003   2.460579   3.832748   3.125309   3.635483
    13  H    1.095551   2.516485   2.969886   3.088859   2.986980
    14  H    3.116462   2.448896   1.094758   3.877335   4.363467
    15  H    2.969981   2.516483   1.095550   3.088762   2.986892
    16  H    3.832764   2.460578   1.095003   3.125432   3.635695
                    6          7          8          9         10
     6  H    0.000000
     7  H    1.747258   0.000000
     8  H    2.500820   2.500794   0.000000
     9  H    3.092472   2.544067   1.764302   0.000000
    10  H    2.544045   3.092471   1.764303   1.769148   0.000000
    11  H    4.136132   4.724427   5.394666   4.586744   3.969978
    12  H    2.963542   4.128158   4.473007   4.258090   3.125540
    13  H    3.464983   4.083005   3.990360   3.214952   2.369169
    14  H    4.724412   4.136160   5.394617   3.969901   4.586729
    15  H    4.082941   3.464817   3.990222   2.368991   3.215016
    16  H    4.128250   2.963642   4.473185   3.125778   4.258342
                   11         12         13         14         15
    11  H    0.000000
    12  H    1.765678   0.000000
    13  H    1.776582   1.781676   0.000000
    14  H    2.983207   4.149544   3.334712   0.000000
    15  H    3.335024   3.974322   2.669975   1.776588   0.000000
    16  H    4.149630   4.726942   3.974310   1.765684   1.781675
                   16
    16  H    0.000000
 Stoichiometry    C4H11P
 Framework group  C1[X(C4H11P)]
 Deg. of freedom    42
 Full point group                 C1      NOp   1
 Largest Abelian subgroup         C1      NOp   1
 Largest concise Abelian subgroup C1      NOp   1
                         Standard orientation:                         
 ---------------------------------------------------------------------
 Center     Atomic      Atomic             Coordinates (Angstroms)
 Number     Number       Type             X           Y           Z
 ---------------------------------------------------------------------
      1          6           0        1.017069    1.427046    0.496507
      2         15           0        0.669812   -0.000002   -0.657170
      3          6           0        1.017118   -1.427016    0.496533
      4          6           0       -1.209702   -0.000029   -0.707999
      5          6           0       -2.002522   -0.000004    0.605074
      6          1           0       -1.484852    0.873580   -1.313198
      7          1           0       -1.484829   -0.873678   -1.313149
      8          1           0       -3.080246   -0.000060    0.403070
      9          1           0       -1.786220   -0.884541    1.212979
     10          1           0       -1.786297    0.884607    1.212901
     11          1           0        2.097727    1.491712    0.659270
     12          1           0        0.698625    2.363465    0.026672
     13          1           0        0.525296    1.334954    1.471141
     14          1           0        2.097763   -1.491495    0.659453
     15          1           0        0.525178   -1.335021    1.471090
     16          1           0        0.698899   -2.363477    0.026630
 ---------------------------------------------------------------------
 Rotational constants (GHZ):      4.4925133      2.8655369      2.4470873
 Standard basis: CC-pVTZ (5D, 7F)
 There are   308 symmetry adapted basis functions of A   symmetry.
 Integral buffers will be    131072 words long.
 Raffenetti 1 integral format.
 Two-electron integral symmetry is turned on.
   308 basis functions,   490 primitive gaussians,   344 cartesian basis functions
    25 alpha electrons       25 beta electrons
       nuclear repulsion energy       243.6156656943 Hartrees.
 NAtoms=   16 NActive=   16 NUniq=   16 SFac= 7.50D-01 NAtFMM=   80 NAOKFM=F Big=F
 One-electron integrals computed using PRISM.
 NBasis=   308 RedAO= T  NBF=   308
 NBsUse=   308 1.00D-06 NBFU=   308
 Harris functional with IExCor=  205 diagonalized for initial guess.
 ExpMin= 9.71D-02 ExpMax= 3.12D+05 ExpMxC= 9.87D+02 IAcc=2 IRadAn=         0 AccDes= 0.00D+00
 HarFok:  IExCor=  205 AccDes= 0.00D+00 IRadAn=         0 IDoV= 1
 ScaDFX=  1.000000  1.000000  1.000000  1.000000
 FoFCou: FMM=F IPFlag=           0 FMFlag=      100000 FMFlg1=           0
         NFxFlg=           0 DoJE=T BraDBF=F KetDBF=T FulRan=T
         Omega=  0.000000  0.000000  1.000000  0.000000  0.000000 ICntrl=     500 IOpCl=  0
         NMat0=    1 NMatS0=    1 NMatT0=    0 NMatD0=    1 NMtDS0=    0 NMtDT0=    0
         I1Cent=           4 NGrid=           0.
 Petite list used in FoFCou.
 Initial guess orbital symmetries:
       Occupied  (A) (A) (A) (A) (A) (A) (A) (A) (A) (A) (A) (A)
                 (A) (A) (A) (A) (A) (A) (A) (A) (A) (A) (A) (A)
                 (A)
       Virtual   (A) (A) (A) (A) (A) (A) (A) (A) (A) (A) (A) (A)
                 (A) (A) (A) (A) (A) (A) (A) (A) (A) (A) (A) (A)
                 (A) (A) (A) (A) (A) (A) (A) (A) (A) (A) (A) (A)
                 (A) (A) (A) (A) (A) (A) (A) (A) (A) (A) (A) (A)
                 (A) (A) (A) (A) (A) (A) (A) (A) (A) (A) (A) (A)
                 (A) (A) (A) (A) (A) (A) (A) (A) (A) (A) (A) (A)
                 (A) (A) (A) (A) (A) (A) (A) (A) (A) (A) (A) (A)
                 (A) (A) (A) (A) (A) (A) (A) (A) (A) (A) (A) (A)
                 (A) (A) (A) (A) (A) (A) (A) (A) (A) (A) (A) (A)
                 (A) (A) (A) (A) (A) (A) (A) (A) (A) (A) (A) (A)
                 (A) (A) (A) (A) (A) (A) (A) (A) (A) (A) (A) (A)
                 (A) (A) (A) (A) (A) (A) (A) (A) (A) (A) (A) (A)
                 (A) (A) (A) (A) (A) (A) (A) (A) (A) (A) (A) (A)
                 (A) (A) (A) (A) (A) (A) (A) (A) (A) (A) (A) (A)
                 (A) (A) (A) (A) (A) (A) (A) (A) (A) (A) (A) (A)
                 (A) (A) (A) (A) (A) (A) (A) (A) (A) (A) (A) (A)
                 (A) (A) (A) (A) (A) (A) (A) (A) (A) (A) (A) (A)
                 (A) (A) (A) (A) (A) (A) (A) (A) (A) (A) (A) (A)
                 (A) (A) (A) (A) (A) (A) (A) (A) (A) (A) (A) (A)
                 (A) (A) (A) (A) (A) (A) (A) (A) (A) (A) (A) (A)
                 (A) (A) (A) (A) (A) (A) (A) (A) (A) (A) (A) (A)
                 (A) (A) (A) (A) (A) (A) (A) (A) (A) (A) (A) (A)
                 (A) (A) (A) (A) (A) (A) (A) (A) (A) (A) (A) (A)
                 (A) (A) (A) (A) (A) (A) (A)
 The electronic state of the initial guess is 1-A.
 Requested convergence on RMS density matrix=1.00D-08 within 128 cycles.
 Requested convergence on MAX density matrix=1.00D-06.
 Requested convergence on             energy=1.00D-06.
 No special actions if energy rises.
 Keep R1 ints in memory in canonical form, NReq=1781557552.
 SCF Done:  E(RHF) =  -498.688670871     A.U. after   11 cycles
             Convg  =    0.8554D-08             -V/T =  2.0007
 ExpMin= 9.71D-02 ExpMax= 3.12D+05 ExpMxC= 9.87D+02 IAcc=3 IRadAn=         5 AccDes= 0.00D+00
 HarFok:  IExCor=  205 AccDes= 0.00D+00 IRadAn=         5 IDoV=-2
 ScaDFX=  1.000000  1.000000  1.000000  1.000000
 Range of M.O.s used for correlation:    10   308
 NBasis=   308 NAE=    25 NBE=    25 NFC=     9 NFV=     0
 NROrb=    299 NOA=    16 NOB=    16 NVA=   283 NVB=   283

 **** Warning!!: The largest alpha MO coefficient is  0.11993546D+02

 Fully direct method using O(OVN) memory.
 JobTyp=1 Pass  1:  I=   1 to  16 NPSUse=  8 ParTrn=T ParDer=T DoDerP=F.
 Spin components of T(2) and E(2):
     alpha-alpha T2 =       0.3512620999D-01 E2=     -0.9442787449D-01
     alpha-beta  T2 =       0.2265191334D+00 E2=     -0.6847244157D+00
     beta-beta   T2 =       0.3512620999D-01 E2=     -0.9442787449D-01
 ANorm=    0.1138758778D+01
 E2 =    -0.8735801646D+00 EUMP2 =    -0.49956225103574D+03

 **********************************************************************

            Population analysis using the SCF density.

 **********************************************************************

 Orbital symmetries:
       Occupied  (A) (A) (A) (A) (A) (A) (A) (A) (A) (A) (A) (A)
                 (A) (A) (A) (A) (A) (A) (A) (A) (A) (A) (A) (A)
                 (A)
       Virtual   (A) (A) (A) (A) (A) (A) (A) (A) (A) (A) (A) (A)
                 (A) (A) (A) (A) (A) (A) (A) (A) (A) (A) (A) (A)
                 (A) (A) (A) (A) (A) (A) (A) (A) (A) (A) (A) (A)
                 (A) (A) (A) (A) (A) (A) (A) (A) (A) (A) (A) (A)
                 (A) (A) (A) (A) (A) (A) (A) (A) (A) (A) (A) (A)
                 (A) (A) (A) (A) (A) (A) (A) (A) (A) (A) (A) (A)
                 (A) (A) (A) (A) (A) (A) (A) (A) (A) (A) (A) (A)
                 (A) (A) (A) (A) (A) (A) (A) (A) (A) (A) (A) (A)
                 (A) (A) (A) (A) (A) (A) (A) (A) (A) (A) (A) (A)
                 (A) (A) (A) (A) (A) (A) (A) (A) (A) (A) (A) (A)
                 (A) (A) (A) (A) (A) (A) (A) (A) (A) (A) (A) (A)
                 (A) (A) (A) (A) (A) (A) (A) (A) (A) (A) (A) (A)
                 (A) (A) (A) (A) (A) (A) (A) (A) (A) (A) (A) (A)
                 (A) (A) (A) (A) (A) (A) (A) (A) (A) (A) (A) (A)
                 (A) (A) (A) (A) (A) (A) (A) (A) (A) (A) (A) (A)
                 (A) (A) (A) (A) (A) (A) (A) (A) (A) (A) (A) (A)
                 (A) (A) (A) (A) (A) (A) (A) (A) (A) (A) (A) (A)
                 (A) (A) (A) (A) (A) (A) (A) (A) (A) (A) (A) (A)
                 (A) (A) (A) (A) (A) (A) (A) (A) (A) (A) (A) (A)
                 (A) (A) (A) (A) (A) (A) (A) (A) (A) (A) (A) (A)
                 (A) (A) (A) (A) (A) (A) (A) (A) (A) (A) (A) (A)
                 (A) (A) (A) (A) (A) (A) (A) (A) (A) (A) (A) (A)
                 (A) (A) (A) (A) (A) (A) (A) (A) (A) (A) (A) (A)
                 (A) (A) (A) (A) (A) (A) (A)
 The electronic state is 1-A.
 Alpha  occ. eigenvalues --  -79.92835 -11.22633 -11.21996 -11.21891 -11.21891
 Alpha  occ. eigenvalues --   -7.46811  -5.36185  -5.36183  -5.36074  -1.03782
 Alpha  occ. eigenvalues --   -0.97570  -0.92961  -0.85489  -0.70376  -0.61102
 Alpha  occ. eigenvalues --   -0.59737  -0.57565  -0.55329  -0.54400  -0.54128
 Alpha  occ. eigenvalues --   -0.52271  -0.49652  -0.44550  -0.42926  -0.32470
 Alpha virt. eigenvalues --    0.13216   0.15316   0.15950   0.17301   0.19788
 Alpha virt. eigenvalues --    0.20138   0.21361   0.23144   0.23179   0.23763
 Alpha virt. eigenvalues --    0.25179   0.25385   0.25435   0.29653   0.32897
 Alpha virt. eigenvalues --    0.35629   0.37034   0.37557   0.39586   0.41091
 Alpha virt. eigenvalues --    0.42026   0.42383   0.45083   0.48934   0.50330
 Alpha virt. eigenvalues --    0.52440   0.53011   0.55203   0.56196   0.57527
 Alpha virt. eigenvalues --    0.59930   0.60146   0.60668   0.62152   0.63040
 Alpha virt. eigenvalues --    0.63187   0.63762   0.64813   0.66708   0.67374
 Alpha virt. eigenvalues --    0.67583   0.68261   0.68737   0.70185   0.77390
 Alpha virt. eigenvalues --    0.80765   0.81437   0.85990   0.88702   0.91222
 Alpha virt. eigenvalues --    0.91252   0.91934   0.93103   0.93293   0.97233
 Alpha virt. eigenvalues --    1.01223   1.02107   1.02657   1.07240   1.07904
 Alpha virt. eigenvalues --    1.10856   1.15696   1.15955   1.18496   1.20607
 Alpha virt. eigenvalues --    1.21248   1.23326   1.23517   1.24189   1.25915
 Alpha virt. eigenvalues --    1.26940   1.28630   1.30407   1.33233   1.34748
 Alpha virt. eigenvalues --    1.35853   1.37129   1.37203   1.39971   1.41505
 Alpha virt. eigenvalues --    1.41801   1.43915   1.44718   1.47094   1.47461
 Alpha virt. eigenvalues --    1.47880   1.49992   1.52968   1.53025   1.54646
 Alpha virt. eigenvalues --    1.55551   1.57131   1.57162   1.59833   1.60901
 Alpha virt. eigenvalues --    1.63231   1.66192   1.66946   1.67461   1.74858
 Alpha virt. eigenvalues --    1.77062   1.79226   1.82017   1.83637   1.83770
 Alpha virt. eigenvalues --    1.85536   1.86141   1.86941   1.92236   1.94870
 Alpha virt. eigenvalues --    2.08831   2.12507   2.13168   2.14163   2.18293
 Alpha virt. eigenvalues --    2.18568   2.47450   2.48859   2.48859   2.53898
 Alpha virt. eigenvalues --    2.57928   2.58216   2.61019   2.69941   2.70256
 Alpha virt. eigenvalues --    2.70711   2.74053   2.79290   2.79936   2.86721
 Alpha virt. eigenvalues --    2.90720   2.91237   2.92207   2.94630   3.00710
 Alpha virt. eigenvalues --    3.00752   3.04878   3.07348   3.08823   3.11197
 Alpha virt. eigenvalues --    3.12579   3.13005   3.15447   3.16235   3.16451
 Alpha virt. eigenvalues --    3.20408   3.20671   3.21121   3.23602   3.26091
 Alpha virt. eigenvalues --    3.28002   3.29028   3.29521   3.29774   3.34236
 Alpha virt. eigenvalues --    3.36282   3.37173   3.37855   3.39603   3.42175
 Alpha virt. eigenvalues --    3.42720   3.43092   3.44989   3.46612   3.47529
 Alpha virt. eigenvalues --    3.48572   3.52711   3.53123   3.56104   3.58603
 Alpha virt. eigenvalues --    3.62350   3.62946   3.64340   3.66011   3.67664
 Alpha virt. eigenvalues --    3.69038   3.71565   3.73410   3.74401   3.74419
 Alpha virt. eigenvalues --    3.76741   3.77344   3.77647   3.78835   3.81152
 Alpha virt. eigenvalues --    3.82522   3.84082   3.84974   3.85686   3.86835
 Alpha virt. eigenvalues --    3.89123   3.94078   3.98115   3.98693   4.03857
 Alpha virt. eigenvalues --    4.04407   4.05228   4.08021   4.10704   4.10731
 Alpha virt. eigenvalues --    4.12177   4.15082   4.15105   4.16865   4.19242
 Alpha virt. eigenvalues --    4.20869   4.21121   4.24838   4.26040   4.28700
 Alpha virt. eigenvalues --    4.32253   4.33471   4.33526   4.36232   4.37553
 Alpha virt. eigenvalues --    4.38517   4.39506   4.42084   4.43231   4.43883
 Alpha virt. eigenvalues --    4.44636   4.46859   4.47833   4.48251   4.50074
 Alpha virt. eigenvalues --    4.56359   4.58239   4.58289   4.62456   4.63994
 Alpha virt. eigenvalues --    4.64508   4.68484   4.77751   4.78071   4.81290
 Alpha virt. eigenvalues --    4.91727   4.96882   5.03010   5.03320   5.03719
 Alpha virt. eigenvalues --    5.07115   5.10444   5.15686   5.17357   5.19762
 Alpha virt. eigenvalues --    5.23466   5.26672   5.27385   5.28855   5.34555
 Alpha virt. eigenvalues --    5.39938   5.41904   5.42583   5.43534   5.44913
 Alpha virt. eigenvalues --    5.46139   5.47375   5.52522   5.56610   5.58346
 Alpha virt. eigenvalues --    5.58979   5.59444   5.62125   5.65341   5.66447
 Alpha virt. eigenvalues --    5.68513   5.69188   5.73757   5.73818   5.83535
 Alpha virt. eigenvalues --    5.89344   5.96322   6.21958   6.24969   6.26300
 Alpha virt. eigenvalues --    6.29173   6.31240   6.36966   6.39417  12.39868
 Alpha virt. eigenvalues --   13.23638  13.47420  13.95326
          Condensed to atoms (all electrons):
              1          2          3          4          5          6
     1  C    4.878299   0.347658  -0.039492  -0.034725  -0.002568  -0.001661
     2  P    0.347658  14.085214   0.347661   0.370381  -0.055657  -0.030672
     3  C   -0.039492   0.347661   4.878290  -0.034726  -0.002569   0.003343
     4  C   -0.034725   0.370381  -0.034726   4.913846   0.319911   0.413951
     5  C   -0.002568  -0.055657  -0.002569   0.319911   4.860419  -0.037339
     6  H   -0.001661  -0.030672   0.003343   0.413951  -0.037339   0.571384
     7  H    0.003343  -0.030672  -0.001660   0.413951  -0.037340  -0.023930
     8  H   -0.000078   0.006735  -0.000078  -0.031384   0.421856  -0.006374
     9  H    0.000044  -0.001692  -0.001292  -0.035572   0.414298   0.006048
    10  H   -0.001292  -0.001692   0.000045  -0.035571   0.414298  -0.002733
    11  H    0.408541  -0.025350  -0.001472   0.002983  -0.000075  -0.000134
    12  H    0.406739  -0.027624   0.003462  -0.001161   0.000023   0.000586
    13  H    0.408148  -0.039616  -0.003955  -0.004515   0.003533   0.000450
    14  H   -0.001472  -0.025350   0.408539   0.002983  -0.000075  -0.000117
    15  H   -0.003956  -0.039615   0.408151  -0.004516   0.003533  -0.000107
    16  H    0.003462  -0.027624   0.406741  -0.001161   0.000024  -0.000030
              7          8          9         10         11         12
     1  C    0.003343  -0.000078   0.000044  -0.001292   0.408541   0.406739
     2  P   -0.030672   0.006735  -0.001692  -0.001692  -0.025350  -0.027624
     3  C   -0.001660  -0.000078  -0.001292   0.000045  -0.001472   0.003462
     4  C    0.413951  -0.031384  -0.035572  -0.035571   0.002983  -0.001161
     5  C   -0.037340   0.421856   0.414298   0.414298  -0.000075   0.000023
     6  H   -0.023930  -0.006374   0.006048  -0.002733  -0.000134   0.000586
     7  H    0.571386  -0.006375  -0.002732   0.006048  -0.000117  -0.000030
     8  H   -0.006375   0.562429  -0.030461  -0.030461   0.000014  -0.000057
     9  H   -0.002732  -0.030461   0.591862  -0.033139  -0.000053   0.000026
    10  H    0.006048  -0.030461  -0.033139   0.591860   0.000120   0.000232
    11  H   -0.000117   0.000014  -0.000053   0.000120   0.554866  -0.020977
    12  H   -0.000030  -0.000057   0.000026   0.000232  -0.020977   0.564684
    13  H   -0.000107  -0.000106  -0.000066  -0.004196  -0.031276  -0.031058
    14  H   -0.000134   0.000014   0.000120  -0.000052   0.000680  -0.000099
    15  H    0.000450  -0.000106  -0.004197  -0.000066   0.000156   0.000023
    16  H    0.000586  -0.000057   0.000232   0.000026  -0.000099  -0.000128
             13         14         15         16
     1  C    0.408148  -0.001472  -0.003956   0.003462
     2  P   -0.039616  -0.025350  -0.039615  -0.027624
     3  C   -0.003955   0.408539   0.408151   0.406741
     4  C   -0.004515   0.002983  -0.004516  -0.001161
     5  C    0.003533  -0.000075   0.003533   0.000024
     6  H    0.000450  -0.000117  -0.000107  -0.000030
     7  H   -0.000107  -0.000134   0.000450   0.000586
     8  H   -0.000106   0.000014  -0.000106  -0.000057
     9  H   -0.000066   0.000120  -0.004197   0.000232
    10  H   -0.004196  -0.000052  -0.000066   0.000026
    11  H   -0.031276   0.000680   0.000156  -0.000099
    12  H   -0.031058  -0.000099   0.000023  -0.000128
    13  H    0.599962   0.000156   0.005817   0.000023
    14  H    0.000156   0.554876  -0.031277  -0.020977
    15  H    0.005817  -0.031277   0.599960  -0.031057
    16  H    0.000023  -0.020977  -0.031057   0.564679
 Mulliken atomic charges:
              1
     1  C   -0.370990
     2  P    0.147916
     3  C   -0.370986
     4  C   -0.254674
     5  C   -0.302273
     6  H    0.107334
     7  H    0.107333
     8  H    0.114488
     9  H    0.096573
    10  H    0.096573
    11  H    0.112191
    12  H    0.105359
    13  H    0.096804
    14  H    0.112185
    15  H    0.096806
    16  H    0.105360
 Sum of Mulliken atomic charges =   0.00000
 Mulliken charges with hydrogens summed into heavy atoms:
              1
     1  C   -0.056636
     2  P    0.147916
     3  C   -0.056634
     4  C   -0.040007
     5  C    0.005362
 Sum of Mulliken charges with hydrogens summed into heavy atoms =   0.00000
 Electronic spatial extent (au):  <R**2>=            650.7293
 Charge=              0.0000 electrons
 Dipole moment (field-independent basis, Debye):
    X=             -0.7313    Y=              0.0000    Z=              1.1473  Tot=              1.3605
 Quadrupole moment (field-independent basis, Debye-Ang):
   XX=            -41.9240   YY=            -40.6366   ZZ=            -44.8294
   XY=              0.0000   XZ=              2.5952   YZ=              0.0000
 Traceless Quadrupole moment (field-independent basis, Debye-Ang):
   XX=              0.5394   YY=              1.8267   ZZ=             -2.3661
   XY=              0.0000   XZ=              2.5952   YZ=              0.0000
 Octapole moment (field-independent basis, Debye-Ang**2):
  XXX=              1.4256  YYY=             -0.0001  ZZZ=              6.7469  XYY=             -0.9997
  XXY=              0.0002  XXZ=              2.6406  XZZ=             -5.2200  YZZ=             -0.0001
  YYZ=             -2.4959  XYZ=              0.0001
 Hexadecapole moment (field-independent basis, Debye-Ang**3):
 XXXX=           -451.1008 YYYY=           -278.0026 ZZZZ=           -197.2810 XXXY=              0.0016
 XXXZ=             11.3083 YYYX=             -0.0007 YYYZ=              0.0006 ZZZX=              9.3960
 ZZZY=             -0.0002 XXYY=           -125.4952 XXZZ=           -117.2198 YYZZ=            -77.8563
 XXYZ=              0.0000 YYXZ=             -0.1806 ZZXY=              0.0000
 N-N= 2.436156656943D+02 E-N=-1.665919345457D+03  KE= 4.983268123952D+02
 1\1\GINC-ROCK\SP\RMP2-FC\CC-pVTZ\C4H11P1\STYLIANAKIS\14-Mar-2016\0\\# 
 mp2/cc-pVTZ\\Et_P_Me2_a_single_point\\0,1\C\P,1,1.867625\C,2,1.867624,
 1,99.652\C,2,1.880202,3,101.688,1,-104.183,0\C,4,1.53386,2,119.574,3,5
 1.286,0\H,4,1.0978,2,105.393,1,73.086,0\H,4,1.0978,2,105.393,1,-175.65
 4,0\H,5,1.096492,4,110.507,2,-179.998,0\H,5,1.09487,4,111.912,2,-60.55
 4,0\H,5,1.094871,4,111.912,2,60.558,0\H,1,1.094758,2,108.694,4,176.477
 ,0\H,1,1.095003,2,109.531,4,-66.364,0\H,1,1.095551,2,113.694,4,55.642,
 0\H,3,1.094758,2,108.693,4,-176.465,0\H,3,1.09555,2,113.694,4,-55.63,0
 \H,3,1.095003,2,109.531,4,66.376,0\\Version=EM64L-G09RevA.01\State=1-A
 \HF=-498.6886709\MP2=-499.562251\RMSD=8.554e-09\PG=C01 [X(C4H11P1)]\\@


    THE DOUGHNUT CREED
 AS YOU RAMBLE ON THROUGH LIFE, BROTHER
 WHATEVER BE YOUR GOAL
 KEEP YOUR EYE UPON THE DOUGHNUT
 AND NOT UPON THE HOLE.
 Job cpu time:  0 days  0 hours 37 minutes  9.6 seconds.
 File lengths (MBytes):  RWF=     39 Int=      0 D2E=      0 Chk=      5 Scr=      1
 Normal termination of Gaussian 09 at Mon Mar 14 21:20:00 2016.
