 Entering Link 1 = C:\G03W\l1.exe PID=      3700.
  
 Copyright (c) 1988,1990,1992,1993,1995,1998,2003,2004, Gaussian, Inc.
                  All Rights Reserved.
  
 This is the Gaussian(R) 03 program.  It is based on the
 the Gaussian(R) 98 system (copyright 1998, Gaussian, Inc.),
 the Gaussian(R) 94 system (copyright 1995, Gaussian, Inc.),
 the Gaussian 92(TM) system (copyright 1992, Gaussian, Inc.),
 the Gaussian 90(TM) system (copyright 1990, Gaussian, Inc.),
 the Gaussian 88(TM) system (copyright 1988, Gaussian, Inc.),
 the Gaussian 86(TM) system (copyright 1986, Carnegie Mellon
 University), and the Gaussian 82(TM) system (copyright 1983,
 Carnegie Mellon University). Gaussian is a federally registered
 trademark of Gaussian, Inc.
  
 This software contains proprietary and confidential information,
 including trade secrets, belonging to Gaussian, Inc.
  
 This software is provided under written license and may be
 used, copied, transmitted, or stored only in accord with that
 written license.
  
 The following legend is applicable only to US Government
 contracts under FAR:
  
                    RESTRICTED RIGHTS LEGEND
  
 Use, reproduction and disclosure by the US Government is
 subject to restrictions as set forth in subparagraphs (a)
 and (c) of the Commercial Computer Software - Restricted
 Rights clause in FAR 52.227-19.
  
 Gaussian, Inc.
 340 Quinnipiac St., Bldg. 40, Wallingford CT 06492
  
  
 ---------------------------------------------------------------
 Warning -- This program may not be used in any manner that
 competes with the business of Gaussian, Inc. or will provide
 assistance to any competitor of Gaussian, Inc.  The licensee
 of this program is prohibited from giving any competitor of
 Gaussian, Inc. access to this program.  By using this program,
 the user acknowledges that Gaussian, Inc. is engaged in the
 business of creating and licensing software in the field of
 computational chemistry and represents and warrants to the
 licensee that it is not a competitor of Gaussian, Inc. and that
 it will not use this program in any manner prohibited above.
 ---------------------------------------------------------------
  

 Cite this work as:
 Gaussian 03, Revision D.01,
 M. J. Frisch, G. W. Trucks, H. B. Schlegel, G. E. Scuseria, 
 M. A. Robb, J. R. Cheeseman, J. A. Montgomery, Jr., T. Vreven, 
 K. N. Kudin, J. C. Burant, J. M. Millam, S. S. Iyengar, J. Tomasi, 
 V. Barone, B. Mennucci, M. Cossi, G. Scalmani, N. Rega, 
 G. A. Petersson, H. Nakatsuji, M. Hada, M. Ehara, K. Toyota, 
 R. Fukuda, J. Hasegawa, M. Ishida, T. Nakajima, Y. Honda, O. Kitao, 
 H. Nakai, M. Klene, X. Li, J. E. Knox, H. P. Hratchian, J. B. Cross, 
 V. Bakken, C. Adamo, J. Jaramillo, R. Gomperts, R. E. Stratmann, 
 O. Yazyev, A. J. Austin, R. Cammi, C. Pomelli, J. W. Ochterski, 
 P. Y. Ayala, K. Morokuma, G. A. Voth, P. Salvador, J. J. Dannenberg, 
 V. G. Zakrzewski, S. Dapprich, A. D. Daniels, M. C. Strain, 
 O. Farkas, D. K. Malick, A. D. Rabuck, K. Raghavachari, 
 J. B. Foresman, J. V. Ortiz, Q. Cui, A. G. Baboul, S. Clifford, 
 J. Cioslowski, B. B. Stefanov, G. Liu, A. Liashenko, P. Piskorz, 
 I. Komaromi, R. L. Martin, D. J. Fox, T. Keith, M. A. Al-Laham, 
 C. Y. Peng, A. Nanayakkara, M. Challacombe, P. M. W. Gill, 
 B. Johnson, W. Chen, M. W. Wong, C. Gonzalez, and J. A. Pople, 
 Gaussian, Inc., Wallingford CT, 2004.
 
 ******************************************
 Gaussian 03:  IA32W-G03RevD.01 13-Oct-2005
                13-Dec-2007 
 ******************************************
 --------------
 # opt dreiding
 --------------
 1/6=10,10=10,14=-1,18=4000020,38=1,56=1,64=1/1,3;
 2/9=110,17=6,18=5,40=1/2;
 3/5=30,11=9,16=1,25=1,30=1/1;
 4/20=9,22=1001,24=3/2;
 7/44=-1/16;
 1/6=10,10=10,14=-1,18=4000020,64=1/3(2);
 2/9=110/2;
 99//99;
 2/9=110/2;
 3/5=30,11=9,16=1,25=1,30=1/1;
 4/16=2,20=9,22=1001,24=3/2;
 7/44=-1/16;
 1/6=10,10=10,14=-1,18=4000020,64=1/3(-4);
 2/9=110/2;
 99//99;
 --------------------
 1,2-dichloroethane-a
 --------------------
 Symbolic Z-matrix:
 Charge =  0 Multiplicity = 1
 C                    -0.02614  -0.7675   -0.0095 
 C                     0.02686   0.7675    0.0095 
 Cl                    1.60686  -1.4615    0.2895 
 Cl                   -1.60714   1.4615   -0.2895 
 H                    -0.69214  -1.1665    0.7895 
 H                    -0.36014  -1.1545   -1.0005 
 H                     0.35986   1.1545    1.0005 
 H                     0.69286   1.1665   -0.7895 
 
 Include all MM classes
 MMInit generated parameter data with length LenPar=   754.

 GradGradGradGradGradGradGradGradGradGradGradGradGradGradGradGradGradGrad
 Berny optimization.
 Initialization pass.
 No Z-matrix variables, so optimization will use Cartesian coordinates.
 Trust Radius=1.00D-01 FncErr=1.00D-07 GrdErr=1.00D-07
 Number of steps in this run=   2 maximum allowed number of steps=   2.
 GradGradGradGradGradGradGradGradGradGradGradGradGradGradGradGradGradGrad

                          Input orientation:                          
 ---------------------------------------------------------------------
 Center     Atomic     Atomic              Coordinates (Angstroms)
 Number     Number      Type              X           Y           Z
 ---------------------------------------------------------------------
    1          6      10061003       -0.026140   -0.767500   -0.009500
    2          6      10061003        0.026860    0.767500    0.009500
    3         17      10171000        1.606860   -1.461500    0.289500
    4         17      10171000       -1.607140    1.461500   -0.289500
    5          1      10011000       -0.692140   -1.166500    0.789500
    6          1      10011000       -0.360140   -1.154500   -1.000500
    7          1      10011000        0.359860    1.154500    1.000500
    8          1      10011000        0.692860    1.166500   -0.789500
 ---------------------------------------------------------------------
                    Distance matrix (angstroms):
                    1          2          3          4          5
     1  C    0.000000
     2  C    1.536032   0.000000
     3  Cl   1.799368   2.746496   0.000000
     4  Cl   2.747072   1.800276   4.382803   0.000000
     5  H    1.114073   2.205837   2.371166   2.984602   0.000000
     6  H    1.115081   2.205437   2.372222   2.983955   1.820568
     7  H    2.205262   1.114782   2.983955   2.372222   2.557003
     8  H    2.205837   1.114073   2.984296   2.372135   3.139165
                    6          7          8
     6  H    0.000000
     7  H    3.139089   0.000000
     8  H    2.557415   1.820751   0.000000
 Stoichiometry    C2H4Cl2
 Framework group  C1[X(C2H4Cl2)]
 Deg. of freedom    18
 Full point group                 C1
 Largest Abelian subgroup         C1      NOp   1
 Largest concise Abelian subgroup C1      NOp   1
                         Standard orientation:                         
 ---------------------------------------------------------------------
 Center     Atomic     Atomic              Coordinates (Angstroms)
 Number     Number      Type              X           Y           Z
 ---------------------------------------------------------------------
    1          6      10061003       -0.511139   -0.573207   -0.000126
    2          6      10061003        0.510628    0.573696    0.000257
    3         17      10171000       -2.190046    0.074093   -0.000004
    4         17      10171000        2.190245   -0.074284   -0.000047
    5          1      10011000       -0.415894   -1.209314   -0.909771
    6          1      10011000       -0.414855   -1.209097    0.910797
    7          1      10011000        0.415054    1.208907   -0.910848
    8          1      10011000        0.415382    1.209803    0.909902
 ---------------------------------------------------------------------
 Rotational constants (GHZ):     28.8837876      1.4615238      1.4171970
 Standard basis: Dummy (5D, 7F)
 There are     8 symmetry adapted basis functions of A   symmetry.
 Integral buffers will be    262144 words long.
 Raffenetti 1 integral format.
 Two-electron integral symmetry is turned on.
     8 basis functions,     8 primitive gaussians,     8 cartesian basis functions
     5 alpha electrons        5 beta electrons
       nuclear repulsion energy        12.0973649962 Hartrees.
 NAtoms=    8 NActive=    8 NUniq=    8 SFac= 7.50D-01 NAtFMM=   80 NAOKFM=F Big=F
 Dreiding calculation of energy and first derivatives.
 MO and density RWFs will be updated without deorthogonalization.
 NRF= 0 NRA=   0 NVA=   8 HaveQM=F
 Convergence limit is  0.750E-04 MaxStp=  5000 StMxLn= 1.00D-04 StpMin= 1.00D-06.
 Convergence criteria           0.00011250 0.00007500 0.00045000 0.00030000
  Step  NS  ND Rises OKQ   Scale  Max. Force  RMS Force Max. Disp.  RMS Disp.     Energy   Flag
     1   0   0   F    T  1.00D+00 0.03337294 0.01335368 0.03337294 0.01335368    0.0058494 ----
     2   0   0   F    F  2.03D-01 0.03337294 0.01335368 0.03337294 0.01335368    0.0033495 ----
     3   0   0   F    T  3.23D+00 0.00815407 0.00469784 0.00863754 0.00498007    0.0032763 ----
     4   0   0   F    F  4.14D-02 0.00815407 0.00469784 0.02786200 0.01606415    0.0023887 ----
     5   0   0   F    T  1.38D+01 0.00195691 0.00117005 0.00178624 0.00120918    0.0023873 ----
     6   0   0   T    F  1.62D-01 0.00195691 0.00117005 0.02471215 0.01672870    0.0033387 ----
     7   0   0   F    T  1.90D+00 0.00242166 0.00104444 0.00283517 0.00142059    0.0023505 ----
     8   0   0   F    F  2.21D+00 0.00242166 0.00104444 0.00539205 0.00270174    0.0023085 ----
     9   0   0   F    T  2.19D+01 0.00088861 0.00035527 0.00084287 0.00039604    0.0022704 ----
    10   0   0   T    F  3.36D-01 0.00088861 0.00035527 0.01844452 0.00866657    0.0023028 ----
    11   0   0   F    T  3.45D+00 0.00161191 0.00047238 0.00235687 0.00084490    0.0022593 ----
    12   0   0   T    F  4.76D-01 0.00161191 0.00047238 0.00812070 0.00291112    0.0022602 ----
    13   0   0   F    T  1.14D+01 0.00033637 0.00011240 0.00035632 0.00012203    0.0022549 --++
    14   0   0   T    F  2.02D-01 0.00033637 0.00011240 0.00405051 0.00138713    0.0022600 ----
    15   0   0   F    T  2.47D+00 0.00020744 0.00008702 0.00022412 0.00011367    0.0022546 --++
    16   0   0   F    F  9.67D-01 0.00020744 0.00008702 0.00055259 0.00028026    0.0022542 ---+
    17   0   0   F    T  4.06D+00 0.00024695 0.00008427 0.00029843 0.00013589    0.0022541 --++
    18   0   0   F    F -2.71D-01 0.00024695 0.00008427 0.00121060 0.00055125    0.0022539 ----
    19   0   0   F    T  1.98D+01 0.00004866 0.00001911 0.00005608 0.00002034    0.0022539 ====
 Energy=    0.002253879650 NIter=   0.
 Dipole moment=       0.000000       0.000000       0.000000
 ***** Axes restored to original set *****
 -------------------------------------------------------------------
 Center     Atomic                   Forces (Hartrees/Bohr)
 Number     Number              X              Y              Z
 -------------------------------------------------------------------
    1          6          -0.000024523   -0.000005537   -0.000007060
    2          6           0.000043275    0.000019126    0.000041676
    3         17           0.000009559   -0.000003845    0.000002130
    4         17          -0.000018415    0.000007830   -0.000004523
    5          1           0.000010110    0.000002952   -0.000020155
    6          1           0.000002999   -0.000000780    0.000020858
    7          1          -0.000012403   -0.000014119   -0.000044511
    8          1          -0.000010602   -0.000005626    0.000011586
 -------------------------------------------------------------------
 Cartesian Forces:  Max     0.000044511 RMS     0.000019109

 GradGradGradGradGradGradGradGradGradGradGradGradGradGradGradGradGradGrad
 Berny optimization.
 Search for a local minimum.
 Step number   1 out of a maximum of   2
 All quantities printed in internal units (Hartrees-Bohrs-Radians)
 Second derivative matrix not updated -- unit matrix used.
 RFO step:  Lambda= 0.00000000D+00.
 Linear search not attempted -- first point.
 TrRot=  0.000000  0.000000  0.000000  0.000000  0.000000  0.000000
 Variable       Old X    -DE/DX   Delta X   Delta X   Delta X     New X
                                 (Linear)    (Quad)   (Total)
    X1       -0.02658  -0.00002   0.00000  -0.00002  -0.00002  -0.02661
    Y1       -1.45729  -0.00001   0.00000  -0.00001  -0.00001  -1.45730
    Z1       -0.01443  -0.00001   0.00000  -0.00001  -0.00001  -0.01444
    X2        0.02698   0.00004   0.00000   0.00004   0.00004   0.02702
    Y2        1.45726   0.00002   0.00000   0.00002   0.00002   1.45728
    Z2        0.01442   0.00004   0.00000   0.00004   0.00004   0.01446
    X3        3.00345   0.00001   0.00000   0.00001   0.00001   3.00346
    Y3       -2.71461   0.00000   0.00000   0.00000   0.00000  -2.71461
    Z3        0.54069   0.00000   0.00000   0.00000   0.00000   0.54069
    X4       -3.00297  -0.00002   0.00000  -0.00002  -0.00002  -3.00299
    Y4        2.71456   0.00001   0.00000   0.00001   0.00001   2.71457
    Z4       -0.54102   0.00000   0.00000   0.00000   0.00000  -0.54102
    X5       -1.29917   0.00001   0.00000   0.00001   0.00001  -1.29916
    Y5       -2.15679   0.00000   0.00000   0.00000   0.00000  -2.15679
    Z5        1.45131  -0.00002   0.00000  -0.00002  -0.00002   1.45129
    X6       -0.68577   0.00000   0.00000   0.00000   0.00000  -0.68577
    Y6       -2.13535   0.00000   0.00000   0.00000   0.00000  -2.13535
    Z6       -1.84824   0.00002   0.00000   0.00002   0.00002  -1.84822
    X7        0.68597  -0.00001   0.00000  -0.00001  -0.00001   0.68595
    Y7        2.13539  -0.00001   0.00000  -0.00001  -0.00001   2.13537
    Z7        1.84838  -0.00004   0.00000  -0.00004  -0.00004   1.84833
    X8        1.29976  -0.00001   0.00000  -0.00001  -0.00001   1.29975
    Y8        2.15683  -0.00001   0.00000  -0.00001  -0.00001   2.15683
    Z8       -1.45110   0.00001   0.00000   0.00001   0.00001  -1.45109
         Item               Value     Threshold  Converged?
 Maximum Force            0.000045     0.000450     YES
 RMS     Force            0.000019     0.000300     YES
 Maximum Displacement     0.000045     0.001800     YES
 RMS     Displacement     0.000019     0.001200     YES
 Predicted change in Energy=-4.381667D-09
 Optimization completed.
    -- Stationary point found.
 GradGradGradGradGradGradGradGradGradGradGradGradGradGradGradGradGradGrad

                          Input orientation:                          
 ---------------------------------------------------------------------
 Center     Atomic     Atomic              Coordinates (Angstroms)
 Number     Number      Type              X           Y           Z
 ---------------------------------------------------------------------
    1          6      10061003       -0.014068   -0.771166   -0.007638
    2          6      10061003        0.014277    0.771149    0.007631
    3         17      10171000        1.589357   -1.436507    0.286119
    4         17      10171000       -1.589102    1.436483   -0.286295
    5          1      10011000       -0.687490   -1.141327    0.768000
    6          1      10011000       -0.362894   -1.129977   -0.978049
    7          1      10011000        0.362998    1.129999    0.978119
    8          1      10011000        0.687802    1.141347   -0.767888
 ---------------------------------------------------------------------
                    Distance matrix (angstroms):
                    1          2          3          4          5
     1  C    0.000000
     2  C    1.542651   0.000000
     3  Cl   1.760665   2.726202   0.000000
     4  Cl   2.726188   1.760649   4.322538   0.000000
     5  H    1.091847   2.174442   2.345927   2.927378   0.000000
     6  H    1.091843   2.174419   2.345925   2.927255   1.776000
     7  H    2.174471   1.091892   2.927418   2.345926   2.511293
     8  H    2.174468   1.091839   2.927297   2.345918   3.075871
                    6          7          8
     6  H    0.000000
     7  H    3.075874   0.000000
     8  H    2.511383   1.775998   0.000000
 Stoichiometry    C2H4Cl2
 Framework group  C1[X(C2H4Cl2)]
 Deg. of freedom    18
 Full point group                 C1
 Largest Abelian subgroup         C1      NOp   1
 Largest concise Abelian subgroup C1      NOp   1
                         Standard orientation:                         
 ---------------------------------------------------------------------
 Center     Atomic     Atomic              Coordinates (Angstroms)
 Number     Number      Type              X           Y           Z
 ---------------------------------------------------------------------
    1          6      10061003        0.520926   -0.568839    0.000061
    2          6      10061003       -0.520936    0.568833    0.000050
    3         17      10171000        2.160001    0.074104   -0.000032
    4         17      10171000       -2.159995   -0.074106   -0.000032
    5          1      10011000        0.395767   -1.191634    0.888088
    6          1      10011000        0.395686   -1.191686   -0.887912
    7          1      10011000       -0.395788    1.191648    0.888119
    8          1      10011000       -0.395714    1.191742   -0.887878
 ---------------------------------------------------------------------
 Rotational constants (GHZ):     29.6607712      1.5012504      1.4550833
 1|1|UNPC-UNK|FOpt|Dreiding|ZDO|C2H4Cl2|PCUSER|13-Dec-2007|0||# opt dre
 iding||1,2-dichloroethane-a||0,1|C,-0.0140675608,-0.7711664408,-0.0076
 378486|C,0.0142766724,0.7711486595,0.0076305091|Cl,1.5893569924,-1.436
 5074047,0.2861188732|Cl,-1.5891022344,1.4364825875,-0.2862952256|H,-0.
 687489506,-1.1413265909,0.7680003287|H,-0.3628943614,-1.1299766864,-0.
 9780485968|H,0.3629976067,1.1299985083,0.978119489|H,0.6878023912,1.14
 13473675,-0.767887529||Version=IA32W-G03RevD.01|HF=0.0022539|RMSD=0.00
 0e+000|RMSF=1.911e-005|Thermal=0.|Dipole=0.,0.,0.|PG=C01 [X(C2H4Cl2)]|
 |@


 Happiness is a conscious choice, not an automatic response.
 -- Mildred Barthel
 Job cpu time:  0 days  0 hours  0 minutes  3.0 seconds.
 File lengths (MBytes):  RWF=     11 Int=      0 D2E=      0 Chk=      4 Scr=      1
 Normal termination of Gaussian 03 at Thu Dec 13 16:12:28 2007.
