 Entering Link 1 = C:\G03W\l1.exe PID=      3420.
  
 Copyright (c) 1988,1990,1992,1993,1995,1998,2003,2004, Gaussian, Inc.
                  All Rights Reserved.
  
 This is the Gaussian(R) 03 program.  It is based on the
 the Gaussian(R) 98 system (copyright 1998, Gaussian, Inc.),
 the Gaussian(R) 94 system (copyright 1995, Gaussian, Inc.),
 the Gaussian 92(TM) system (copyright 1992, Gaussian, Inc.),
 the Gaussian 90(TM) system (copyright 1990, Gaussian, Inc.),
 the Gaussian 88(TM) system (copyright 1988, Gaussian, Inc.),
 the Gaussian 86(TM) system (copyright 1986, Carnegie Mellon
 University), and the Gaussian 82(TM) system (copyright 1983,
 Carnegie Mellon University). Gaussian is a federally registered
 trademark of Gaussian, Inc.
  
 This software contains proprietary and confidential information,
 including trade secrets, belonging to Gaussian, Inc.
  
 This software is provided under written license and may be
 used, copied, transmitted, or stored only in accord with that
 written license.
  
 The following legend is applicable only to US Government
 contracts under FAR:
  
                    RESTRICTED RIGHTS LEGEND
  
 Use, reproduction and disclosure by the US Government is
 subject to restrictions as set forth in subparagraphs (a)
 and (c) of the Commercial Computer Software - Restricted
 Rights clause in FAR 52.227-19.
  
 Gaussian, Inc.
 340 Quinnipiac St., Bldg. 40, Wallingford CT 06492
  
  
 ---------------------------------------------------------------
 Warning -- This program may not be used in any manner that
 competes with the business of Gaussian, Inc. or will provide
 assistance to any competitor of Gaussian, Inc.  The licensee
 of this program is prohibited from giving any competitor of
 Gaussian, Inc. access to this program.  By using this program,
 the user acknowledges that Gaussian, Inc. is engaged in the
 business of creating and licensing software in the field of
 computational chemistry and represents and warrants to the
 licensee that it is not a competitor of Gaussian, Inc. and that
 it will not use this program in any manner prohibited above.
 ---------------------------------------------------------------
  

 Cite this work as:
 Gaussian 03, Revision D.01,
 M. J. Frisch, G. W. Trucks, H. B. Schlegel, G. E. Scuseria, 
 M. A. Robb, J. R. Cheeseman, J. A. Montgomery, Jr., T. Vreven, 
 K. N. Kudin, J. C. Burant, J. M. Millam, S. S. Iyengar, J. Tomasi, 
 V. Barone, B. Mennucci, M. Cossi, G. Scalmani, N. Rega, 
 G. A. Petersson, H. Nakatsuji, M. Hada, M. Ehara, K. Toyota, 
 R. Fukuda, J. Hasegawa, M. Ishida, T. Nakajima, Y. Honda, O. Kitao, 
 H. Nakai, M. Klene, X. Li, J. E. Knox, H. P. Hratchian, J. B. Cross, 
 V. Bakken, C. Adamo, J. Jaramillo, R. Gomperts, R. E. Stratmann, 
 O. Yazyev, A. J. Austin, R. Cammi, C. Pomelli, J. W. Ochterski, 
 P. Y. Ayala, K. Morokuma, G. A. Voth, P. Salvador, J. J. Dannenberg, 
 V. G. Zakrzewski, S. Dapprich, A. D. Daniels, M. C. Strain, 
 O. Farkas, D. K. Malick, A. D. Rabuck, K. Raghavachari, 
 J. B. Foresman, J. V. Ortiz, Q. Cui, A. G. Baboul, S. Clifford, 
 J. Cioslowski, B. B. Stefanov, G. Liu, A. Liashenko, P. Piskorz, 
 I. Komaromi, R. L. Martin, D. J. Fox, T. Keith, M. A. Al-Laham, 
 C. Y. Peng, A. Nanayakkara, M. Challacombe, P. M. W. Gill, 
 B. Johnson, W. Chen, M. W. Wong, C. Gonzalez, and J. A. Pople, 
 Gaussian, Inc., Wallingford CT, 2004.
 
 ******************************************
 Gaussian 03:  IA32W-G03RevD.01 13-Oct-2005
                13-Dec-2007 
 ******************************************
 --------------
 # opt dreiding
 --------------
 1/6=10,10=10,14=-1,18=4000020,38=1,56=1,64=1/1,3;
 2/9=110,17=6,18=5,40=1/2;
 3/5=30,11=9,16=1,25=1,30=1/1;
 4/20=9,22=1001,24=3/2;
 7/44=-1/16;
 1/6=10,10=10,14=-1,18=4000020,64=1/3(2);
 2/9=110/2;
 99//99;
 2/9=110/2;
 3/5=30,11=9,16=1,25=1,30=1/1;
 4/16=2,20=9,22=1001,24=3/2;
 7/44=-1/16;
 1/6=10,10=10,14=-1,18=4000020,64=1/3(-4);
 2/9=110/2;
 99//99;
 --------------------
 1,2-dichloroethane-g
 --------------------
 Symbolic Z-matrix:
 Charge =  0 Multiplicity = 1
 C                     0.82704  -0.77734  -0.36914 
 C                     0.84904   0.75966  -0.35514 
 Cl                   -0.10196  -1.46634   1.01086 
 Cl                   -0.78096   1.47566  -0.62914 
 H                     0.37004  -1.17534  -1.30514 
 H                     1.86104  -1.18134  -0.27714 
 H                     1.22504   1.15866   0.61486 
 H                     1.49704   1.14566  -1.17614 
 
 Include all MM classes
 MMInit generated parameter data with length LenPar=   754.

 GradGradGradGradGradGradGradGradGradGradGradGradGradGradGradGradGradGrad
 Berny optimization.
 Initialization pass.
 No Z-matrix variables, so optimization will use Cartesian coordinates.
 Trust Radius=1.00D-01 FncErr=1.00D-07 GrdErr=1.00D-07
 Number of steps in this run=   2 maximum allowed number of steps=   2.
 GradGradGradGradGradGradGradGradGradGradGradGradGradGradGradGradGradGrad

                          Input orientation:                          
 ---------------------------------------------------------------------
 Center     Atomic     Atomic              Coordinates (Angstroms)
 Number     Number      Type              X           Y           Z
 ---------------------------------------------------------------------
    1          6      10061003        0.827040   -0.777340   -0.369140
    2          6      10061003        0.849040    0.759660   -0.355140
    3         17      10171000       -0.101960   -1.466340    1.010860
    4         17      10171000       -0.780960    1.475660   -0.629140
    5          1      10011000        0.370040   -1.175340   -1.305140
    6          1      10011000        1.861040   -1.181340   -0.277140
    7          1      10011000        1.225040    1.158660    0.614860
    8          1      10011000        1.497040    1.145660   -1.176140
 ---------------------------------------------------------------------
                    Distance matrix (angstroms):
                    1          2          3          4          5
     1  C    0.000000
     2  C    1.537221   0.000000
     3  Cl   1.800600   2.779466   0.000000
     4  Cl   2.780157   1.801286   3.435987   0.000000
     5  H    1.115056   2.208204   2.381454   2.968093   0.000000
     6  H    1.113928   2.190367   2.365066   3.763471   1.811050
     7  H    2.207885   1.114216   2.967890   2.381609   3.140857
     8  H    2.190452   1.114873   3.763285   2.365881   2.583372
                    6          7          8
     6  H    0.000000
     7  H    2.583749   0.000000
     8  H    2.521037   1.811583   0.000000
 Stoichiometry    C2H4Cl2
 Framework group  C1[X(C2H4Cl2)]
 Deg. of freedom    18
 Full point group                 C1
 Largest Abelian subgroup         C1      NOp   1
 Largest concise Abelian subgroup C1      NOp   1
                         Standard orientation:                         
 ---------------------------------------------------------------------
 Center     Atomic     Atomic              Coordinates (Angstroms)
 Number     Number      Type              X           Y           Z
 ---------------------------------------------------------------------
    1          6      10061003       -0.671921    0.912884    0.373739
    2          6      10061003        0.671168    0.913078   -0.374031
    3         17      10171000       -1.715786   -0.481078   -0.083838
    4         17      10171000        1.716107   -0.480871    0.083839
    5          1      10011000       -0.529391    0.868756    1.478767
    6          1      10011000       -1.254717    1.829149    0.125457
    7          1      10011000        0.529242    0.869359   -1.478305
    8          1      10011000        1.253930    1.830085   -0.124176
 ---------------------------------------------------------------------
 Rotational constants (GHZ):      9.6607009      2.2090822      1.9102564
 Standard basis: Dummy (5D, 7F)
 There are     8 symmetry adapted basis functions of A   symmetry.
 Integral buffers will be    262144 words long.
 Raffenetti 1 integral format.
 Two-electron integral symmetry is turned on.
     8 basis functions,     8 primitive gaussians,     8 cartesian basis functions
     5 alpha electrons        5 beta electrons
       nuclear repulsion energy        12.0931593962 Hartrees.
 NAtoms=    8 NActive=    8 NUniq=    8 SFac= 7.50D-01 NAtFMM=   80 NAOKFM=F Big=F
 Dreiding calculation of energy and first derivatives.
 MO and density RWFs will be updated without deorthogonalization.
 NRF= 0 NRA=   0 NVA=   8 HaveQM=F
 Convergence limit is  0.750E-04 MaxStp=  5000 StMxLn= 1.00D-04 StpMin= 1.00D-06.
 Convergence criteria           0.00011250 0.00007500 0.00045000 0.00030000
  Step  NS  ND Rises OKQ   Scale  Max. Force  RMS Force Max. Disp.  RMS Disp.     Energy   Flag
     1   0   0   F    T  1.00D+00 0.03093367 0.01312832 0.03093367 0.01312832    0.0064245 ----
     2   0   0   F    F  2.08D-01 0.03093367 0.01312832 0.03093367 0.01312832    0.0040054 ----
     3   0   0   F    T  3.19D+00 0.01023098 0.00467531 0.00964297 0.00496293    0.0039319 ----
     4   0   0   F    F  2.46D-02 0.01023098 0.00467531 0.03080461 0.01585415    0.0030744 ----
     5   0   0   F    T  9.79D+00 0.00308293 0.00156640 0.00373399 0.00166000    0.0030739 ----
     6   0   0   T    F  1.97D-01 0.00308293 0.00156640 0.03653928 0.01624407    0.0039600 ----
     7   0   0   F    T  2.59D+00 0.00181346 0.00101775 0.00276362 0.00123532    0.0030172 ----
     8   0   0   F    F  2.25D+00 0.00181346 0.00101775 0.00715966 0.00320033    0.0029626 ----
     9   0   0   F    T  1.15D+01 0.00186295 0.00069485 0.00150839 0.00090813    0.0029121 ----
    10   0   0   T    F  1.25D-01 0.00186295 0.00069485 0.01728654 0.01040735    0.0033140 ----
    11   0   0   F    T  4.55D+00 0.00044893 0.00025675 0.00050699 0.00028494    0.0029038 ---+
    12   0   0   F    F  6.00D-01 0.00044893 0.00025675 0.00230848 0.00129741    0.0028989 ----
    13   0   0   F    T  1.52D+01 0.00042576 0.00012126 0.00045027 0.00013673    0.0028981 ---+
    14   0   0   T    F  8.24D-02 0.00042576 0.00012126 0.00683559 0.00207568    0.0029252 ----
    15   0   0   F    T  3.92D+00 0.00009324 0.00004083 0.00008481 0.00004367    0.0028978 ====
 Energy=    0.002897843999 NIter=   0.
 Dipole moment=       0.000000       0.000000       0.000000
 ***** Axes restored to original set *****
 -------------------------------------------------------------------
 Center     Atomic                   Forces (Hartrees/Bohr)
 Number     Number              X              Y              Z
 -------------------------------------------------------------------
    1          6          -0.000024389   -0.000120359   -0.000018977
    2          6          -0.000007545    0.000016654    0.000031808
    3         17           0.000053768    0.000055137    0.000027394
    4         17          -0.000026446   -0.000025186   -0.000063052
    5          1          -0.000007667    0.000017132   -0.000002824
    6          1          -0.000041896   -0.000002624   -0.000048575
    7          1           0.000013454    0.000018510    0.000045887
    8          1           0.000040721    0.000040734    0.000028338
 -------------------------------------------------------------------
 Cartesian Forces:  Max     0.000120359 RMS     0.000040830

 GradGradGradGradGradGradGradGradGradGradGradGradGradGradGradGradGradGrad
 Berny optimization.
 Search for a local minimum.
 Step number   1 out of a maximum of   2
 All quantities printed in internal units (Hartrees-Bohrs-Radians)
 Second derivative matrix not updated -- unit matrix used.
 RFO step:  Lambda=-4.00097046D-08.
 Linear search not attempted -- first point.
 TrRot=  0.000000  0.000000  0.000000  0.000000  0.000000  0.000000
 Variable       Old X    -DE/DX   Delta X   Delta X   Delta X     New X
                                 (Linear)    (Quad)   (Total)
    X1        1.54768  -0.00002   0.00000  -0.00002  -0.00002   1.54765
    Y1       -1.47521  -0.00012   0.00000  -0.00012  -0.00012  -1.47533
    Z1       -0.67764  -0.00002   0.00000  -0.00002  -0.00002  -0.67766
    X2        1.57942  -0.00001   0.00000  -0.00001  -0.00001   1.57941
    Y2        1.44243   0.00002   0.00000   0.00002   0.00002   1.44245
    Z2       -0.67524   0.00003   0.00000   0.00003   0.00003  -0.67521
    X3       -0.17286   0.00005   0.00000   0.00005   0.00005  -0.17281
    Y3       -2.73247   0.00006   0.00000   0.00006   0.00006  -2.73241
    Z3        1.88132   0.00003   0.00000   0.00003   0.00003   1.88134
    X4       -1.44094  -0.00003   0.00000  -0.00003  -0.00003  -1.44097
    Y4        2.74917  -0.00003   0.00000  -0.00003  -0.00003   2.74915
    Z4       -1.18315  -0.00006   0.00000  -0.00006  -0.00006  -1.18322
    X5        0.72798  -0.00001   0.00000  -0.00001  -0.00001   0.72797
    Y5       -2.17265   0.00002   0.00000   0.00002   0.00002  -2.17264
    Z5       -2.43774   0.00000   0.00000   0.00000   0.00000  -2.43775
    X6        3.48415  -0.00004   0.00000  -0.00004  -0.00004   3.48411
    Y6       -2.17383   0.00000   0.00000   0.00000   0.00000  -2.17383
    Z6       -0.54444  -0.00005   0.00000  -0.00005  -0.00005  -0.54449
    X7        2.31338   0.00001   0.00000   0.00001   0.00001   2.31339
    Y7        2.14050   0.00002   0.00000   0.00002   0.00002   2.14052
    Z7        1.12186   0.00005   0.00000   0.00005   0.00005   1.12191
    X8        2.82017   0.00004   0.00000   0.00004   0.00004   2.82021
    Y8        2.10731   0.00004   0.00000   0.00004   0.00004   2.10735
    Z8       -2.18304   0.00003   0.00000   0.00003   0.00003  -2.18301
         Item               Value     Threshold  Converged?
 Maximum Force            0.000120     0.000450     YES
 RMS     Force            0.000041     0.000300     YES
 Maximum Displacement     0.000120     0.001800     YES
 RMS     Displacement     0.000041     0.001200     YES
 Predicted change in Energy=-2.000485D-08
 Optimization completed.
    -- Stationary point found.
 GradGradGradGradGradGradGradGradGradGradGradGradGradGradGradGradGradGrad

                          Input orientation:                          
 ---------------------------------------------------------------------
 Center     Atomic     Atomic              Coordinates (Angstroms)
 Number     Number      Type              X           Y           Z
 ---------------------------------------------------------------------
    1          6      10061003        0.818995   -0.780647   -0.358594
    2          6      10061003        0.835791    0.763302   -0.357324
    3         17      10171000       -0.091473   -1.445959    0.995550
    4         17      10171000       -0.762514    1.454800   -0.626098
    5          1      10011000        0.385231   -1.149718   -1.289998
    6          1      10011000        1.843733   -1.150340   -0.288105
    7          1      10011000        1.224186    1.132704    0.593664
    8          1      10011000        1.492371    1.115139   -1.155213
 ---------------------------------------------------------------------
                    Distance matrix (angstroms):
                    1          2          3          4          5
     1  C    0.000000
     2  C    1.544041   0.000000
     3  Cl   1.762185   2.751530   0.000000
     4  Cl   2.751355   1.762098   3.390345   0.000000
     5  H    1.091732   2.175438   2.353452   2.922601   0.000000
     6  H    1.091664   2.163969   2.340979   3.700475   1.769468
     7  H    2.175290   1.091644   2.922665   2.353411   3.075952
     8  H    2.163803   1.091564   3.700481   2.340906   2.524580
                    6          7          8
     6  H    0.000000
     7  H    2.524608   0.000000
     8  H    2.451066   1.769407   0.000000
 Stoichiometry    C2H4Cl2
 Framework group  C1[X(C2H4Cl2)]
 Deg. of freedom    18
 Full point group                 C1
 Largest Abelian subgroup         C1      NOp   1
 Largest concise Abelian subgroup C1      NOp   1
                         Standard orientation:                         
 ---------------------------------------------------------------------
 Center     Atomic     Atomic              Coordinates (Angstroms)
 Number     Number      Type              X           Y           Z
 ---------------------------------------------------------------------
    1          6      10061003       -0.677503    0.893777    0.369978
    2          6      10061003        0.677669    0.893778   -0.370002
    3         17      10171000       -1.693145   -0.473005   -0.083535
    4         17      10171000        1.693080   -0.473056    0.083532
    5          1      10011000       -0.514908    0.869031    1.449250
    6          1      10011000       -1.218986    1.809828    0.126301
    7          1      10011000        0.514964    0.869108   -1.449171
    8          1      10011000        1.219042    1.809737   -0.126184
 ---------------------------------------------------------------------
 Rotational constants (GHZ):      9.9941698      2.2655304      1.9618459
 1|1|UNPC-UNK|FOpt|Dreiding|ZDO|C2H4Cl2|PCUSER|13-Dec-2007|0||# opt dre
 iding||1,2-dichloroethane-g||0,1|C,0.8189948358,-0.7806474702,-0.35859
 41008|C,0.8357914938,0.7633018827,-0.357324245|Cl,-0.0914733959,-1.445
 9585181,0.9955495263|Cl,-0.7625142223,1.4547998501,-0.6260984949|H,0.3
 852309816,-1.1497181682,-1.2899982386|H,1.8437329665,-1.150340228,-0.2
 881049605|H,1.2241859929,1.1327040347,0.5936635249|H,1.4923713476,1.11
 51386169,-1.1552130116||Version=IA32W-G03RevD.01|HF=0.0028978|RMSD=0.0
 00e+000|RMSF=4.083e-005|Thermal=0.|Dipole=0.,0.,0.|PG=C01 [X(C2H4Cl2)]
 ||@


 Happiness is a conscious choice, not an automatic response.
 -- Mildred Barthel
 Job cpu time:  0 days  0 hours  0 minutes  2.0 seconds.
 File lengths (MBytes):  RWF=     11 Int=      0 D2E=      0 Chk=      4 Scr=      1
 Normal termination of Gaussian 03 at Thu Dec 13 16:12:30 2007.
