 Entering Link 1 = C:\G03W\l1.exe PID=      3752.
  
 Copyright (c) 1988,1990,1992,1993,1995,1998,2003,2004, Gaussian, Inc.
                  All Rights Reserved.
  
 This is the Gaussian(R) 03 program.  It is based on the
 the Gaussian(R) 98 system (copyright 1998, Gaussian, Inc.),
 the Gaussian(R) 94 system (copyright 1995, Gaussian, Inc.),
 the Gaussian 92(TM) system (copyright 1992, Gaussian, Inc.),
 the Gaussian 90(TM) system (copyright 1990, Gaussian, Inc.),
 the Gaussian 88(TM) system (copyright 1988, Gaussian, Inc.),
 the Gaussian 86(TM) system (copyright 1986, Carnegie Mellon
 University), and the Gaussian 82(TM) system (copyright 1983,
 Carnegie Mellon University). Gaussian is a federally registered
 trademark of Gaussian, Inc.
  
 This software contains proprietary and confidential information,
 including trade secrets, belonging to Gaussian, Inc.
  
 This software is provided under written license and may be
 used, copied, transmitted, or stored only in accord with that
 written license.
  
 The following legend is applicable only to US Government
 contracts under FAR:
  
                    RESTRICTED RIGHTS LEGEND
  
 Use, reproduction and disclosure by the US Government is
 subject to restrictions as set forth in subparagraphs (a)
 and (c) of the Commercial Computer Software - Restricted
 Rights clause in FAR 52.227-19.
  
 Gaussian, Inc.
 340 Quinnipiac St., Bldg. 40, Wallingford CT 06492
  
  
 ---------------------------------------------------------------
 Warning -- This program may not be used in any manner that
 competes with the business of Gaussian, Inc. or will provide
 assistance to any competitor of Gaussian, Inc.  The licensee
 of this program is prohibited from giving any competitor of
 Gaussian, Inc. access to this program.  By using this program,
 the user acknowledges that Gaussian, Inc. is engaged in the
 business of creating and licensing software in the field of
 computational chemistry and represents and warrants to the
 licensee that it is not a competitor of Gaussian, Inc. and that
 it will not use this program in any manner prohibited above.
 ---------------------------------------------------------------
  

 Cite this work as:
 Gaussian 03, Revision D.01,
 M. J. Frisch, G. W. Trucks, H. B. Schlegel, G. E. Scuseria, 
 M. A. Robb, J. R. Cheeseman, J. A. Montgomery, Jr., T. Vreven, 
 K. N. Kudin, J. C. Burant, J. M. Millam, S. S. Iyengar, J. Tomasi, 
 V. Barone, B. Mennucci, M. Cossi, G. Scalmani, N. Rega, 
 G. A. Petersson, H. Nakatsuji, M. Hada, M. Ehara, K. Toyota, 
 R. Fukuda, J. Hasegawa, M. Ishida, T. Nakajima, Y. Honda, O. Kitao, 
 H. Nakai, M. Klene, X. Li, J. E. Knox, H. P. Hratchian, J. B. Cross, 
 V. Bakken, C. Adamo, J. Jaramillo, R. Gomperts, R. E. Stratmann, 
 O. Yazyev, A. J. Austin, R. Cammi, C. Pomelli, J. W. Ochterski, 
 P. Y. Ayala, K. Morokuma, G. A. Voth, P. Salvador, J. J. Dannenberg, 
 V. G. Zakrzewski, S. Dapprich, A. D. Daniels, M. C. Strain, 
 O. Farkas, D. K. Malick, A. D. Rabuck, K. Raghavachari, 
 J. B. Foresman, J. V. Ortiz, Q. Cui, A. G. Baboul, S. Clifford, 
 J. Cioslowski, B. B. Stefanov, G. Liu, A. Liashenko, P. Piskorz, 
 I. Komaromi, R. L. Martin, D. J. Fox, T. Keith, M. A. Al-Laham, 
 C. Y. Peng, A. Nanayakkara, M. Challacombe, P. M. W. Gill, 
 B. Johnson, W. Chen, M. W. Wong, C. Gonzalez, and J. A. Pople, 
 Gaussian, Inc., Wallingford CT, 2004.
 
 ******************************************
 Gaussian 03:  IA32W-G03RevD.01 13-Oct-2005
                11-Mar-2008 
 ******************************************
 --------------
 # opt dreiding
 --------------
 1/6=10,10=10,14=-1,18=4000020,38=1,56=1,64=1/1,3;
 2/9=110,17=6,18=5,40=1/2;
 3/5=30,11=9,16=1,25=1,30=1/1;
 4/20=9,22=1001,24=3/2;
 7/44=-1/16;
 1/6=10,10=10,14=-1,18=4000020,64=1/3(2);
 2/9=110/2;
 99//99;
 2/9=110/2;
 3/5=30,11=9,16=1,25=1,30=1/1;
 4/16=2,20=9,22=1001,24=3/2;
 7/44=-1/16;
 1/6=10,10=10,14=-1,18=4000020,64=1/3(-4);
 2/9=110/2;
 99//99;
 ---------------
 fluoropropane-g
 ---------------
 Symbolic Z-matrix:
 Charge =  0 Multiplicity = 1
 C                    -0.50997  -0.79338   0.33379 
 C                    -0.48897   0.74162   0.30779 
 F                     0.79003  -1.29438   0.37479 
 H                    -1.06797  -1.15238   1.22879 
 H                    -1.03197  -1.18638  -0.56921 
 H                    -1.53697   1.12662   0.33479 
 H                     0.02603   1.11962   1.22279 
 C                     0.21603   1.29062  -0.94021 
 H                     0.20803   2.40462  -0.94521 
 H                     1.27903   0.96062  -0.98221 
 H                    -0.28897   0.94362  -1.87121 
 
 Include all MM classes
 MMInit generated parameter data with length LenPar=  1085.

 GradGradGradGradGradGradGradGradGradGradGradGradGradGradGradGradGradGrad
 Berny optimization.
 Initialization pass.
 No Z-matrix variables, so optimization will use Cartesian coordinates.
 Trust Radius=1.00D-01 FncErr=1.00D-07 GrdErr=1.00D-07
 Number of steps in this run=   2 maximum allowed number of steps=   2.
 GradGradGradGradGradGradGradGradGradGradGradGradGradGradGradGradGradGrad

                          Input orientation:                          
 ---------------------------------------------------------------------
 Center     Atomic     Atomic              Coordinates (Angstroms)
 Number     Number      Type              X           Y           Z
 ---------------------------------------------------------------------
    1          6      10061003       -0.509971   -0.793382    0.333794
    2          6      10061003       -0.488971    0.741618    0.307794
    3          9      10091000        0.790029   -1.294382    0.374794
    4          1      10011000       -1.067971   -1.152382    1.228794
    5          1      10011000       -1.031971   -1.186382   -0.569206
    6          1      10011000       -1.536971    1.126618    0.334794
    7          1      10011000        0.026029    1.119618    1.222794
    8          6      10061003        0.216029    1.290618   -0.940206
    9          1      10011000        0.208029    2.404618   -0.945206
   10          1      10011000        1.279029    0.960618   -0.982206
   11          1      10011000       -0.288971    0.943618   -1.871206
 ---------------------------------------------------------------------
                    Distance matrix (angstroms):
                    1          2          3          4          5
     1  C    0.000000
     2  C    1.535364   0.000000
     3  F    1.393801   2.405333   0.000000
     4  H    1.114123   2.184197   2.049791   0.000000
     5  H    1.114604   2.186587   2.054868   1.798682   0.000000
     6  H    2.177414   1.116807   3.358239   2.492597   2.534208
     7  H    2.176508   1.115945   2.670243   2.521677   3.106165
     8  C    2.548177   1.534904   2.956506   3.510195   2.798334
     9  H    3.518319   2.195766   3.970356   4.359668   3.817625
    10  H    2.829999   2.199519   2.676863   3.855087   3.181336
    11  H    2.815677   2.197463   3.349239   3.822310   2.604641
                    6          7          8          9         10
     6  H    0.000000
     7  H    1.797655   0.000000
     8  C    2.173828   2.178052   0.000000
     9  H    2.513306   2.526771   1.114040   0.000000
    10  H    3.113182   2.541125   1.113837   1.798206   0.000000
    11  H    2.541147   3.114970   1.114538   1.799724   1.802563
                   11
    11  H    0.000000
 Stoichiometry    C3H7F
 Framework group  C1[X(C3H7F)]
 Deg. of freedom    27
 Full point group                 C1
 Largest Abelian subgroup         C1      NOp   1
 Largest concise Abelian subgroup C1      NOp   1
                         Standard orientation:                         
 ---------------------------------------------------------------------
 Center     Atomic     Atomic              Coordinates (Angstroms)
 Number     Number      Type              X           Y           Z
 ---------------------------------------------------------------------
    1          6      10061003        0.807336    0.509497    0.299273
    2          6      10061003       -0.602144    0.660980   -0.290438
    3          9      10091000        1.406634   -0.656849   -0.173125
    4          1      10011000        1.436153    1.384097    0.014785
    5          1      10011000        0.757364    0.477764    1.412304
    6          1      10011000       -1.044209    1.628086    0.050944
    7          1      10011000       -0.534396    0.702813   -1.403539
    8          6      10061003       -1.530228   -0.489485    0.123108
    9          1      10011000       -2.549880   -0.352688   -0.304305
   10          1      10011000       -1.142869   -1.470328   -0.235407
   11          1      10011000       -1.631655   -0.544056    1.231679
 ---------------------------------------------------------------------
 Rotational constants (GHZ):     14.2538668      5.0211080      4.2415715
 Standard basis: Dummy (5D, 7F)
 There are    11 symmetry adapted basis functions of A   symmetry.
 Integral buffers will be    262144 words long.
 Raffenetti 1 integral format.
 Two-electron integral symmetry is turned on.
    11 basis functions,    11 primitive gaussians,    11 cartesian basis functions
     7 alpha electrons        7 beta electrons
       nuclear repulsion energy        23.5935812885 Hartrees.
 NAtoms=   11 NActive=   11 NUniq=   11 SFac= 7.50D-01 NAtFMM=   80 NAOKFM=F Big=F
 Dreiding calculation of energy and first derivatives.
 MO and density RWFs will be updated without deorthogonalization.
 NRF= 0 NRA=   0 NVA=  11 HaveQM=F
 Convergence limit is  0.750E-04 MaxStp=  5000 StMxLn= 1.00D-04 StpMin= 1.00D-06.
 Convergence criteria           0.00011250 0.00007500 0.00045000 0.00030000
  Step  NS  ND Rises OKQ   Scale  Max. Force  RMS Force Max. Disp.  RMS Disp.     Energy   Flag
     1   0   0   F    T  1.00D+00 0.02006499 0.00979208 0.02006499 0.00979208    0.0078065 ----
     2   0   0   F    F  2.21D-01 0.02006499 0.00979208 0.02006499 0.00979208    0.0059413 ----
     3   0   0   F    T  3.38D+00 0.00889945 0.00334908 0.00743308 0.00353955    0.0058783 ----
     4   0   0   F    F -8.75D-02 0.00889945 0.00334908 0.02511099 0.01195757    0.0053137 ----
     5   0   0   F    T  5.82D+00 0.00383535 0.00166034 0.00437830 0.00187339    0.0053084 ----
     6   0   0   T    F  2.97D-01 0.00383535 0.00166034 0.02549978 0.01091085    0.0056672 ----
     7   0   0   F    T  3.58D+00 0.00250293 0.00079702 0.00307607 0.00090690    0.0052297 ----
     8   0   0   F    F  2.41D-01 0.00250293 0.00079702 0.01100181 0.00324360    0.0051850 ----
     9   0   0   F    T  2.33D+00 0.00223115 0.00099553 0.00643378 0.00173047    0.0051832 ----
    10   0   0   F    F  1.13D+00 0.00223115 0.00099553 0.01496787 0.00402585    0.0051250 ----
    11   0   0   F    T  4.17D+00 0.00254061 0.00101145 0.00685029 0.00206089    0.0051022 ----
    12   0   0   T    F  4.01D-01 0.00254061 0.00101145 0.02856655 0.00859414    0.0051369 ----
    13   0   0   F    T  5.34D+00 0.00100595 0.00046627 0.00187220 0.00064508    0.0050740 ----
    14   0   0   F    F  4.57D-01 0.00100595 0.00046627 0.01000352 0.00344679    0.0050488 ----
    15   0   0   F    T  6.17D+00 0.00085980 0.00047214 0.00196343 0.00081347    0.0050460 ----
    16   0   0   T    F  4.84D-01 0.00085980 0.00047214 0.01211848 0.00502079    0.0050475 ----
    17   0   0   F    T  3.48D+00 0.00102003 0.00039598 0.00146617 0.00069729    0.0050351 ----
    18   0   0   F    F -7.09D-02 0.00102003 0.00039598 0.00510912 0.00242983    0.0050267 ----
    19   0   0   F    T  4.25D+00 0.00075880 0.00031101 0.00111420 0.00053108    0.0050267 ----
    20   0   0   F    F  4.34D-02 0.00075880 0.00031101 0.00473647 0.00225762    0.0050196 ----
    21   0   0   F    T  4.96D+00 0.00071100 0.00026723 0.00097024 0.00047471    0.0050196 ----
    22   0   0   T    F  3.79D-01 0.00071100 0.00026723 0.00481445 0.00235556    0.0050234 ----
    23   0   0   F    T  5.11D+00 0.00026971 0.00013147 0.00043919 0.00017448    0.0050174 --++
    24   0   0   F    F  2.07D-01 0.00026971 0.00013147 0.00224433 0.00089161    0.0050157 ----
    25   0   0   F    T  4.39D+00 0.00032836 0.00014083 0.00054022 0.00024479    0.0050156 ---+
    26   0   0   T    F  3.59D-01 0.00032836 0.00014083 0.00237414 0.00107579    0.0050168 ----
    27   0   0   F    T  5.77D+00 0.00011951 0.00005535 0.00019633 0.00006705    0.0050151 -+++
    28   0   0   F    F -1.98D-01 0.00011951 0.00005535 0.00113236 0.00038671    0.0050149 -+--
    29   0   0   F    T  1.86D+00 0.00023457 0.00008153 0.00049393 0.00016680    0.0050149 ---+
    30   0   0   F    F  1.12D+00 0.00023457 0.00008153 0.00091869 0.00031023    0.0050146 ----
    31   0   0   F    T  1.06D+01 0.00010112 0.00004235 0.00015856 0.00006177    0.0050145 ====
 Energy=    0.005014454892 NIter=   0.
 Dipole moment=       0.000000       0.000000       0.000000
 ***** Axes restored to original set *****
 -------------------------------------------------------------------
 Center     Atomic                   Forces (Hartrees/Bohr)
 Number     Number              X              Y              Z
 -------------------------------------------------------------------
    1          6           0.000004099    0.000003600    0.000009747
    2          6           0.000073783   -0.000093908   -0.000038570
    3          9          -0.000045101    0.000013147    0.000014834
    4          1          -0.000059181    0.000023152   -0.000031494
    5          1           0.000070148   -0.000017462   -0.000059694
    6          1           0.000060385    0.000021884    0.000080830
    7          1           0.000003652    0.000071502    0.000024166
    8          6          -0.000027726    0.000039093   -0.000006115
    9          1          -0.000034463   -0.000040667   -0.000021762
   10          1          -0.000063914   -0.000013619    0.000013929
   11          1           0.000018319   -0.000006721    0.000014129
 -------------------------------------------------------------------
 Cartesian Forces:  Max     0.000093908 RMS     0.000042349

 GradGradGradGradGradGradGradGradGradGradGradGradGradGradGradGradGradGrad
 Berny optimization.
 Search for a local minimum.
 Step number   1 out of a maximum of   2
 All quantities printed in internal units (Hartrees-Bohrs-Radians)
 Second derivative matrix not updated -- unit matrix used.
 RFO step:  Lambda=-5.91845019D-08.
 Linear search not attempted -- first point.
 TrRot=  0.000000  0.000000  0.000000  0.000000  0.000000  0.000000
 Variable       Old X    -DE/DX   Delta X   Delta X   Delta X     New X
                                 (Linear)    (Quad)   (Total)
    X1       -0.96942   0.00000   0.00000   0.00000   0.00000  -0.96942
    Y1       -1.52312   0.00000   0.00000   0.00000   0.00000  -1.52311
    Z1        0.64257   0.00001   0.00000   0.00001   0.00001   0.64258
    X2       -0.90891   0.00007   0.00000   0.00007   0.00007  -0.90883
    Y2        1.39802  -0.00009   0.00000  -0.00009  -0.00009   1.39793
    Z2        0.56273  -0.00004   0.00000  -0.00004  -0.00004   0.56269
    X3        1.42455  -0.00005   0.00000  -0.00005  -0.00005   1.42450
    Y3       -2.52435   0.00001   0.00000   0.00001   0.00001  -2.52433
    Z3        0.75551   0.00001   0.00000   0.00001   0.00001   0.75553
    X4       -2.00570  -0.00006   0.00000  -0.00006  -0.00006  -2.00576
    Y4       -2.14318   0.00002   0.00000   0.00002   0.00002  -2.14316
    Z4        2.31515  -0.00003   0.00000  -0.00003  -0.00003   2.31512
    X5       -1.92684   0.00007   0.00000   0.00007   0.00007  -1.92677
    Y5       -2.26441  -0.00002   0.00000  -0.00002  -0.00002  -2.26443
    Z5       -1.02788  -0.00006   0.00000  -0.00006  -0.00006  -1.02794
    X6       -2.85198   0.00006   0.00000   0.00006   0.00006  -2.85192
    Y6        2.09899   0.00002   0.00000   0.00002   0.00002   2.09901
    Z6        0.60331   0.00008   0.00000   0.00008   0.00008   0.60339
    X7        0.05380   0.00000   0.00000   0.00000   0.00000   0.05380
    Y7        2.09959   0.00007   0.00000   0.00007   0.00007   2.09966
    Z7        2.25060   0.00002   0.00000   0.00002   0.00002   2.25063
    X8        0.41838  -0.00003   0.00000  -0.00003  -0.00003   0.41835
    Y8        2.47573   0.00004   0.00000   0.00004   0.00004   2.47577
    Z8       -1.80518  -0.00001   0.00000  -0.00001  -0.00001  -1.80518
    X9        0.36271  -0.00003   0.00000  -0.00003  -0.00003   0.36268
    Y9        4.53744  -0.00004   0.00000  -0.00004  -0.00004   4.53740
    Z9       -1.75591  -0.00002   0.00000  -0.00002  -0.00002  -1.75594
   X10        2.39120  -0.00006   0.00000  -0.00006  -0.00006   2.39114
   Y10        1.87531  -0.00001   0.00000  -0.00001  -0.00001   1.87529
   Z10       -1.86655   0.00001   0.00000   0.00001   0.00001  -1.86654
   X11       -0.53387   0.00002   0.00000   0.00002   0.00002  -0.53385
   Y11        1.83273  -0.00001   0.00000  -0.00001  -0.00001   1.83272
   Z11       -3.51888   0.00001   0.00000   0.00001   0.00001  -3.51887
         Item               Value     Threshold  Converged?
 Maximum Force            0.000094     0.000450     YES
 RMS     Force            0.000042     0.000300     YES
 Maximum Displacement     0.000094     0.001800     YES
 RMS     Displacement     0.000042     0.001200     YES
 Predicted change in Energy=-2.959225D-08
 Optimization completed.
    -- Stationary point found.
 GradGradGradGradGradGradGradGradGradGradGradGradGradGradGradGradGradGrad

                          Input orientation:                          
 ---------------------------------------------------------------------
 Center     Atomic     Atomic              Coordinates (Angstroms)
 Number     Number      Type              X           Y           Z
 ---------------------------------------------------------------------
    1          6      10061003       -0.512996   -0.805998    0.340032
    2          6      10061003       -0.480972    0.739803    0.297782
    3          9      10091000        0.753839   -1.335826    0.399799
    4          1      10011000       -1.061369   -1.134125    1.225123
    5          1      10011000       -1.019641   -1.198275   -0.543931
    6          1      10011000       -1.509201    1.110738    0.319259
    7          1      10011000        0.028468    1.111057    1.190968
    8          6      10061003        0.221397    1.310102   -0.955259
    9          1      10011000        0.191940    2.401111   -0.929190
   10          1      10011000        1.265369    0.992370   -0.987736
   11          1      10011000       -0.282510    0.969838   -1.862112
 ---------------------------------------------------------------------
                    Distance matrix (angstroms):
                    1          2          3          4          5
     1  C    0.000000
     2  C    1.546710   0.000000
     3  F    1.374468   2.417313   0.000000
     4  H    1.091680   2.169891   2.004202   0.000000
     5  H    1.091769   2.180548   2.013648   1.770708   0.000000
     6  H    2.160263   1.093302   3.333694   2.461819   2.513227
     7  H    2.166189   1.093224   2.671956   2.495947   3.072689
     8  C    2.587468   1.545534   3.020035   3.517640   2.828660
     9  H    3.520427   2.172146   4.005826   4.325475   3.817320
    10  H    2.856515   2.183130   2.758154   3.851290   3.196429
    11  H    2.838337   2.181158   3.392101   3.816320   2.642286
                    6          7          8          9         10
     6  H    0.000000
     7  H    1.767570   0.000000
     8  C    2.158497   2.164054   0.000000
     9  H    2.473372   2.487173   1.091718   0.000000
    10  H    3.069281   2.508139   1.091735   1.772069   0.000000
    11  H    2.506592   3.072125   1.091827   1.773130   1.777912
                   11
    11  H    0.000000
 Stoichiometry    C3H7F
 Framework group  C1[X(C3H7F)]
 Deg. of freedom    27
 Full point group                 C1
 Largest Abelian subgroup         C1      NOp   1
 Largest concise Abelian subgroup C1      NOp   1
                         Standard orientation:                         
 ---------------------------------------------------------------------
 Center     Atomic     Atomic              Coordinates (Angstroms)
 Number     Number      Type              X           Y           Z
 ---------------------------------------------------------------------
    1          6      10061003        0.819939    0.493872    0.297545
    2          6      10061003       -0.604254    0.652814   -0.284452
    3          9      10091000        1.432903   -0.643552   -0.171181
    4          1      10011000        1.428741    1.352600    0.008216
    5          1      10011000        0.780617    0.451409    1.387780
    6          1      10011000       -1.019769    1.601973    0.064480
    7          1      10011000       -0.541821    0.694508   -1.375095
    8          6      10061003       -1.568786   -0.484774    0.120821
    9          1      10011000       -2.555877   -0.300523   -0.307609
   10          1      10011000       -1.204900   -1.445745   -0.247973
   11          1      10011000       -1.664509   -0.533719    1.207342
 ---------------------------------------------------------------------
 Rotational constants (GHZ):     14.7828665      4.8725299      4.1597896
 1|1|UNPC-UNK|FOpt|Dreiding|ZDO|C3H7F1|PCUSER|11-Mar-2008|0||# opt drei
 ding||fluoropropane-g||0,1|C,-0.512996023,-0.8059979851,0.3400324601|C
 ,-0.4809722314,0.739802767,0.2977822469|F,0.7538393318,-1.3358263904,0
 .3997988518|H,-1.0613689845,-1.1341245511,1.2251231151|H,-1.019640591,
 -1.1982749103,-0.5439305943|H,-1.5092014241,1.1107382561,0.3192588066|
 H,0.0284677348,1.1110568984,1.1909678129|C,0.2213967686,1.3101017137,-
 0.9552585609|H,0.1919401344,2.401110723,-0.929190102|H,1.2653689805,0.
 9923699854,-0.9877362365|H,-0.2825101859,0.9698376434,-1.8621124797||V
 ersion=IA32W-G03RevD.01|HF=0.0050145|RMSD=0.000e+000|RMSF=4.235e-005|T
 hermal=0.|Dipole=0.,0.,0.|PG=C01 [X(C3H7F1)]||@


 THE NUMBERS ARE MEANINGLESS, BUT THE TRENDS ARE IMPORTANT.
     -- LARRY BURGGRAF
 Job cpu time:  0 days  0 hours  0 minutes  2.0 seconds.
 File lengths (MBytes):  RWF=     11 Int=      0 D2E=      0 Chk=      4 Scr=      1
 Normal termination of Gaussian 03 at Tue Mar 11 13:40:05 2008.
