 Entering Gaussian System, Link 0=g09
 Input=2_3_dimethyl_butane_a.gjf
 Output=2_3_dimethyl_butane_a.out
 Initial command:
 /usr/local/g09/l1.exe "/home/scratch/stylianakis/Gau-5427.inp" -scrdir="/home/scratch/stylianakis/"
 Entering Link 1 = /usr/local/g09/l1.exe PID=      5428.
  
 Copyright (c) 1988,1990,1992,1993,1995,1998,2003,2009,2013,
            Gaussian, Inc.  All Rights Reserved.
  
 This is part of the Gaussian(R) 09 program.  It is based on
 the Gaussian(R) 03 system (copyright 2003, Gaussian, Inc.),
 the Gaussian(R) 98 system (copyright 1998, Gaussian, Inc.),
 the Gaussian(R) 94 system (copyright 1995, Gaussian, Inc.),
 the Gaussian 92(TM) system (copyright 1992, Gaussian, Inc.),
 the Gaussian 90(TM) system (copyright 1990, Gaussian, Inc.),
 the Gaussian 88(TM) system (copyright 1988, Gaussian, Inc.),
 the Gaussian 86(TM) system (copyright 1986, Carnegie Mellon
 University), and the Gaussian 82(TM) system (copyright 1983,
 Carnegie Mellon University). Gaussian is a federally registered
 trademark of Gaussian, Inc.
  
 This software contains proprietary and confidential information,
 including trade secrets, belonging to Gaussian, Inc.
  
 This software is provided under written license and may be
 used, copied, transmitted, or stored only in accord with that
 written license.
  
 The following legend is applicable only to US Government
 contracts under FAR:
  
                    RESTRICTED RIGHTS LEGEND
  
 Use, reproduction and disclosure by the US Government is
 subject to restrictions as set forth in subparagraphs (a)
 and (c) of the Commercial Computer Software - Restricted
 Rights clause in FAR 52.227-19.
  
 Gaussian, Inc.
 340 Quinnipiac St., Bldg. 40, Wallingford CT 06492
  
  
 ---------------------------------------------------------------
 Warning -- This program may not be used in any manner that
 competes with the business of Gaussian, Inc. or will provide
 assistance to any competitor of Gaussian, Inc.  The licensee
 of this program is prohibited from giving any competitor of
 Gaussian, Inc. access to this program.  By using this program,
 the user acknowledges that Gaussian, Inc. is engaged in the
 business of creating and licensing software in the field of
 computational chemistry and represents and warrants to the
 licensee that it is not a competitor of Gaussian, Inc. and that
 it will not use this program in any manner prohibited above.
 ---------------------------------------------------------------
  

 Cite this work as:
 Gaussian 09, Revision D.01,
 M. J. Frisch, G. W. Trucks, H. B. Schlegel, G. E. Scuseria, 
 M. A. Robb, J. R. Cheeseman, G. Scalmani, V. Barone, B. Mennucci, 
 G. A. Petersson, H. Nakatsuji, M. Caricato, X. Li, H. P. Hratchian, 
 A. F. Izmaylov, J. Bloino, G. Zheng, J. L. Sonnenberg, M. Hada, 
 M. Ehara, K. Toyota, R. Fukuda, J. Hasegawa, M. Ishida, T. Nakajima, 
 Y. Honda, O. Kitao, H. Nakai, T. Vreven, J. A. Montgomery, Jr., 
 J. E. Peralta, F. Ogliaro, M. Bearpark, J. J. Heyd, E. Brothers, 
 K. N. Kudin, V. N. Staroverov, T. Keith, R. Kobayashi, J. Normand, 
 K. Raghavachari, A. Rendell, J. C. Burant, S. S. Iyengar, J. Tomasi, 
 M. Cossi, N. Rega, J. M. Millam, M. Klene, J. E. Knox, J. B. Cross, 
 V. Bakken, C. Adamo, J. Jaramillo, R. Gomperts, R. E. Stratmann, 
 O. Yazyev, A. J. Austin, R. Cammi, C. Pomelli, J. W. Ochterski, 
 R. L. Martin, K. Morokuma, V. G. Zakrzewski, G. A. Voth, 
 P. Salvador, J. J. Dannenberg, S. Dapprich, A. D. Daniels, 
 O. Farkas, J. B. Foresman, J. V. Ortiz, J. Cioslowski, 
 and D. J. Fox, Gaussian, Inc., Wallingford CT, 2013.
 
 ******************************************
 Gaussian 09:  EM64L-G09RevD.01 24-Apr-2013
                13-Feb-2016 
 ******************************************
 %mem=8000Mb
 %nproc=4
 Will use up to    4 processors via shared memory.
 -------------
 # mp2/cc-pVTZ
 -------------
 1/38=1/1;
 2/12=2,17=6,18=5,40=1/2;
 3/5=16,6=1,11=9,16=1,25=1,30=1/1,2,3;
 4//1;
 5/5=2,38=5/2;
 8/10=1/1;
 9/16=-3/6;
 6/7=2,8=2,9=2,10=2/1;
 99/5=1,9=1/99;
 ---------------------------------
 2_3_dimethy_butane_a_single_point
 ---------------------------------
 Symbolic Z-matrix:
 Charge =  0 Multiplicity = 1
 c
 c                    1    cc2
 c                    2    cc3      1    ccc3
 c                    2    cc4      3    ccc4     1    dih4     0
 c                    4    cc5      2    ccc5     3    dih5     0
 c                    4    cc6      2    ccc6     1    dih6     0
 h                    1    hc7      2    hcc7     4    dih7     0
 h                    1    hc8      2    hcc8     4    dih8     0
 h                    1    hc9      2    hcc9     4    dih9     0
 h                    2    hc10     4    hcc10    6    dih10    0
 h                    4    hc11     2    hcc11    1    dih11    0
 h                    6    hc12     4    hcc12    2    dih12    0
 h                    6    hc13     4    hcc13    2    dih13    0
 h                    6    hc14     4    hcc14    2    dih14    0
 h                    3    hc15     2    hcc15    1    dih15    0
 h                    3    hc16     2    hcc16    1    dih16    0
 h                    3    hc17     2    hcc17    1    dih17    0
 h                    5    hc18     4    hcc18    2    dih18    0
 h                    5    hc19     4    hcc19    2    dih19    0
 h                    5    hc20     4    hcc20    2    dih20    0
       Variables:
  cc2                   1.53924                  
  cc3                   1.53924                  
  ccc3                109.297                    
  cc4                   1.55449                  
  ccc4                112.399                    
  dih4                125.516                    
  cc5                   1.53924                  
  ccc5                112.395                    
  dih5               -179.984                    
  cc6                   1.53924                  
  ccc6                112.399                    
  dih6               -179.984                    
  hc7                   1.09575                  
  hcc7                110.587                    
  dih7               -177.715                    
  hc8                   1.09799                  
  hcc8                110.816                    
  dih8                -58.645                    
  hc9                   1.09351                  
  hcc9                112.54                     
  dih9                 62.2                      
  hc10                  1.10211                  
  hcc10               107.027                    
  dih10               -61.89                     
  hc11                  1.10211                  
  hcc11               107.026                    
  dih11                61.918                    
  hc12                  1.09575                  
  hcc12               110.586                    
  dih12               177.702                    
  hc13                  1.09351                  
  hcc13               112.54                     
  dih13               -62.212                    
  hc14                  1.098                    
  hcc14               110.816                    
  dih14                58.632                    
  hc15                  1.09351                  
  hcc15               112.54                     
  dih15               172.272                    
  hc16                  1.098                    
  hcc16               110.816                    
  dih16               -66.883                    
  hc17                  1.09575                  
  hcc17               110.586                    
  dih17                52.186                    
  hc18                  1.09575                  
  hcc18               110.586                    
  dih18              -177.714                    
  hc19                  1.098                    
  hcc19               110.816                    
  dih19               -58.645                    
  hc20                  1.09351                  
  hcc20               112.54                     
  dih20                62.2                      
 
                          Input orientation:                          
 ---------------------------------------------------------------------
 Center     Atomic      Atomic             Coordinates (Angstroms)
 Number     Number       Type             X           Y           Z
 ---------------------------------------------------------------------
      1          6           0        0.000000    0.000000    0.000000
      2          6           0        0.000000    0.000000    1.539236
      3          6           0        1.452765    0.000000    2.047902
      4          6           0       -0.834975   -1.169818    2.131496
      5          6           0       -2.287609   -1.169961    1.622468
      6          6           0       -0.835351   -1.169660    3.670737
      7          1           0        0.628748    0.810492   -0.385299
      8          1           0        0.403111   -0.943845   -0.390192
      9          1           0       -1.000830    0.135636   -0.419173
     10          1           0       -0.473473    0.936834    1.875103
     11          1           0       -0.361362   -2.106642    1.795799
     12          1           0       -1.464294   -1.980041    4.055947
     13          1           0        0.165360   -1.305356    4.090167
     14          1           0       -1.238444   -0.225725    4.060735
     15          1           0        1.517657    0.135812    3.131000
     16          1           0        1.954195   -0.943917    1.796539
     17          1           0        2.024232    0.810375    1.581648
     18          1           0       -2.859094   -1.980436    2.088523
     19          1           0       -2.789217   -0.226122    1.873767
     20          1           0       -2.352213   -1.305709    0.539343
 ---------------------------------------------------------------------
                    Distance matrix (angstroms):
                    1          2          3          4          5
     1  C    0.000000
     2  C    1.539236   0.000000
     3  C    2.510862   1.539242   0.000000
     4  C    2.570785   1.554487   2.570840   0.000000
     5  C    3.038810   2.570776   3.942106   1.539238   0.000000
     6  C    3.942109   2.570839   3.039272   1.539241   2.510868
     7  H    1.095754   2.180839   2.693764   3.521132   4.056903
     8  H    1.097994   2.185414   2.817253   2.818303   3.367774
     9  H    1.093510   2.203503   3.482095   2.870128   2.743845
    10  H    2.148918   1.102108   2.148932   2.152767   2.791685
    11  H    2.791669   2.152754   2.791514   1.102108   2.148917
    12  H    4.745042   3.521158   4.057344   2.180829   2.693677
    13  H    4.296600   2.870287   2.744488   2.203505   3.482087
    14  H    4.251383   2.818271   3.368242   2.185420   2.817352
    15  H    3.482081   2.203506   1.093507   2.870288   4.296598
    16  H    2.817341   2.185421   1.097996   2.818280   4.251388
    17  H    2.693666   2.180831   1.095753   3.521159   4.745036
    18  H    4.056904   3.521116   4.745092   2.180826   1.095752
    19  H    3.367769   2.818293   4.251572   2.185417   1.097996
    20  H    2.743843   2.870116   4.296333   2.203503   1.093508
                    6          7          8          9         10
     6  C    0.000000
     7  H    4.745105   0.000000
     8  H    4.251579   1.768794   0.000000
     9  H    4.296341   1.764115   1.771206   0.000000
    10  H    2.791518   2.517990   3.071956   2.486711   0.000000
    11  H    2.148952   3.774544   2.591346   3.216028   3.046573
    12  H    1.095752   5.647350   4.932449   4.971679   3.774383
    13  H    1.093507   4.972056   4.501204   4.875511   3.215903
    14  H    1.097996   4.932278   4.798036   4.500735   2.591083
    15  H    2.744489   3.689134   3.847942   4.352758   2.486666
    16  H    3.368256   3.097608   2.680980   3.847985   3.071965
    17  H    4.057345   2.411692   3.097333   3.689114   2.518062
    18  H    2.693750   5.106282   4.226172   3.770869   3.774547
    19  H    2.817261   4.226161   3.978894   2.930320   2.591359
    20  H    3.482098   3.770862   2.930323   2.196012   3.216041
                   11         12         13         14         15
    11  H    0.000000
    12  H    2.518086   0.000000
    13  H    2.486689   1.764126   0.000000
    14  H    3.071979   1.768800   1.771196   0.000000
    15  H    3.215909   3.771523   2.196742   2.931076   0.000000
    16  H    2.591087   4.226647   2.931092   3.979363   1.771205
    17  H    3.774375   5.106700   3.771524   4.226633   1.764127
    18  H    2.517991   2.411685   3.689123   3.097601   4.972042
    19  H    3.071957   3.097347   3.847948   2.680993   4.501199
    20  H    2.486697   3.689123   4.352760   3.847992   4.875506
                   16         17         18         19         20
    16  H    0.000000
    17  H    1.768792   0.000000
    18  H    4.932279   5.647337   0.000000
    19  H    4.798037   4.932439   1.768791   0.000000
    20  H    4.500731   4.971668   1.764127   1.771206   0.000000
 Stoichiometry    C6H14
 Framework group  C1[X(C6H14)]
 Deg. of freedom    54
 Full point group                 C1      NOp   1
 Largest Abelian subgroup         C1      NOp   1
 Largest concise Abelian subgroup C1      NOp   1
                         Standard orientation:                         
 ---------------------------------------------------------------------
 Center     Atomic      Atomic             Coordinates (Angstroms)
 Number     Number       Type             X           Y           Z
 ---------------------------------------------------------------------
      1          6           0        1.518455    1.255453   -0.053882
      2          6           0        0.709299   -0.000082    0.317799
      3          6           0        1.518665   -1.255409   -0.054150
      4          6           0       -0.709305   -0.000080   -0.317804
      5          6           0       -1.518443    1.255467    0.053883
      6          6           0       -1.518677   -1.255401    0.054150
      7          1           0        2.525394    1.205959    0.375420
      8          1           0        1.628304    1.340588   -1.143045
      9          1           0        1.053638    2.176332    0.309009
     10          1           0        0.572930   -0.000202    1.411438
     11          1           0       -0.572918   -0.000181   -1.411440
     12          1           0       -2.525667   -1.205722   -0.375006
     13          1           0       -1.054108   -2.176422   -0.308692
     14          1           0       -1.628372   -1.340389    1.143342
     15          1           0        1.054092   -2.176426    0.308696
     16          1           0        1.628376   -1.340392   -1.143341
     17          1           0        2.525657   -1.205733    0.375006
     18          1           0       -2.525386    1.205962   -0.375406
     19          1           0       -1.628285    1.340604    1.143048
     20          1           0       -1.053616    2.176339   -0.309010
 ---------------------------------------------------------------------
 Rotational constants (GHZ):      4.1887918      2.8535654      1.8569075
 Standard basis: CC-pVTZ (5D, 7F)
 There are   420 symmetry adapted cartesian basis functions of A   symmetry.
 There are   376 symmetry adapted basis functions of A   symmetry.
   376 basis functions,   550 primitive gaussians,   420 cartesian basis functions
    25 alpha electrons       25 beta electrons
       nuclear repulsion energy       261.4326201042 Hartrees.
 NAtoms=   20 NActive=   20 NUniq=   20 SFac= 1.00D+00 NAtFMM=   60 NAOKFM=F Big=F
 Integral buffers will be    131072 words long.
 Raffenetti 1 integral format.
 Two-electron integral symmetry is turned on.
 One-electron integrals computed using PRISM.
 NBasis=   376 RedAO= T EigKep=  4.53D-04  NBF=   376
 NBsUse=   376 1.00D-06 EigRej= -1.00D+00 NBFU=   376
 ExpMin= 1.03D-01 ExpMax= 8.24D+03 ExpMxC= 2.81D+02 IAcc=1 IRadAn=         1 AccDes= 0.00D+00
 Harris functional with IExCor=  205 and IRadAn=       1 diagonalized for initial guess.
 HarFok:  IExCor=  205 AccDes= 0.00D+00 IRadAn=         1 IDoV= 1 UseB2=F ITyADJ=14
 ICtDFT=  3500011 ScaDFX=  1.000000  1.000000  1.000000  1.000000
 FoFCou: FMM=F IPFlag=           0 FMFlag=      100000 FMFlg1=           0
         NFxFlg=           0 DoJE=T BraDBF=F KetDBF=T FulRan=T
         wScrn=  0.000000 ICntrl=     500 IOpCl=  0 I1Cent=   200000004 NGrid=           0
         NMat0=    1 NMatS0=      1 NMatT0=    0 NMatD0=    1 NMtDS0=    0 NMtDT0=    0
 Petite list used in FoFCou.
 Requested convergence on RMS density matrix=1.00D-08 within 128 cycles.
 Requested convergence on MAX density matrix=1.00D-06.
 Requested convergence on             energy=1.00D-06.
 No special actions if energy rises.
 Integral accuracy reduced to 1.0D-05 until final iterations.
 Initial convergence to 1.0D-05 achieved.  Increase integral accuracy.
 SCF Done:  E(RHF) =  -235.444871497     A.U. after   11 cycles
            NFock= 11  Conv=0.52D-08     -V/T= 2.0018
 ExpMin= 1.03D-01 ExpMax= 8.24D+03 ExpMxC= 2.81D+02 IAcc=3 IRadAn=         5 AccDes= 0.00D+00
 HarFok:  IExCor=  205 AccDes= 0.00D+00 IRadAn=         5 IDoV=-2 UseB2=F ITyADJ=14
 ICtDFT= 12500011 ScaDFX=  1.000000  1.000000  1.000000  1.000000
 Range of M.O.s used for correlation:     7   376
 NBasis=   376 NAE=    25 NBE=    25 NFC=     6 NFV=     0
 NROrb=    370 NOA=    19 NOB=    19 NVA=   351 NVB=   351
 Fully direct method using O(OVN) memory.
 JobTyp=1 Pass  1:  I=   1 to  19 NPSUse=  4 ParTrn=T ParDer=T DoDerP=F.
 Spin components of T(2) and E(2):
     alpha-alpha T2 =       0.4008880883D-01 E2=     -0.1175893661D+00
     alpha-beta  T2 =       0.2566494338D+00 E2=     -0.8400061922D+00
     beta-beta   T2 =       0.4008880883D-01 E2=     -0.1175893661D+00
 ANorm=    0.1156212373D+01
 E2 =    -0.1075184924D+01 EUMP2 =    -0.23652005642175D+03

 **********************************************************************

            Population analysis using the SCF density.

 **********************************************************************

 Orbital symmetries:
       Occupied  (A) (A) (A) (A) (A) (A) (A) (A) (A) (A) (A) (A)
                 (A) (A) (A) (A) (A) (A) (A) (A) (A) (A) (A) (A)
                 (A)
       Virtual   (A) (A) (A) (A) (A) (A) (A) (A) (A) (A) (A) (A)
                 (A) (A) (A) (A) (A) (A) (A) (A) (A) (A) (A) (A)
                 (A) (A) (A) (A) (A) (A) (A) (A) (A) (A) (A) (A)
                 (A) (A) (A) (A) (A) (A) (A) (A) (A) (A) (A) (A)
                 (A) (A) (A) (A) (A) (A) (A) (A) (A) (A) (A) (A)
                 (A) (A) (A) (A) (A) (A) (A) (A) (A) (A) (A) (A)
                 (A) (A) (A) (A) (A) (A) (A) (A) (A) (A) (A) (A)
                 (A) (A) (A) (A) (A) (A) (A) (A) (A) (A) (A) (A)
                 (A) (A) (A) (A) (A) (A) (A) (A) (A) (A) (A) (A)
                 (A) (A) (A) (A) (A) (A) (A) (A) (A) (A) (A) (A)
                 (A) (A) (A) (A) (A) (A) (A) (A) (A) (A) (A) (A)
                 (A) (A) (A) (A) (A) (A) (A) (A) (A) (A) (A) (A)
                 (A) (A) (A) (A) (A) (A) (A) (A) (A) (A) (A) (A)
                 (A) (A) (A) (A) (A) (A) (A) (A) (A) (A) (A) (A)
                 (A) (A) (A) (A) (A) (A) (A) (A) (A) (A) (A) (A)
                 (A) (A) (A) (A) (A) (A) (A) (A) (A) (A) (A) (A)
                 (A) (A) (A) (A) (A) (A) (A) (A) (A) (A) (A) (A)
                 (A) (A) (A) (A) (A) (A) (A) (A) (A) (A) (A) (A)
                 (A) (A) (A) (A) (A) (A) (A) (A) (A) (A) (A) (A)
                 (A) (A) (A) (A) (A) (A) (A) (A) (A) (A) (A) (A)
                 (A) (A) (A) (A) (A) (A) (A) (A) (A) (A) (A) (A)
                 (A) (A) (A) (A) (A) (A) (A) (A) (A) (A) (A) (A)
                 (A) (A) (A) (A) (A) (A) (A) (A) (A) (A) (A) (A)
                 (A) (A) (A) (A) (A) (A) (A) (A) (A) (A) (A) (A)
                 (A) (A) (A) (A) (A) (A) (A) (A) (A) (A) (A) (A)
                 (A) (A) (A) (A) (A) (A) (A) (A) (A) (A) (A) (A)
                 (A) (A) (A) (A) (A) (A) (A) (A) (A) (A) (A) (A)
                 (A) (A) (A) (A) (A) (A) (A) (A) (A) (A) (A) (A)
                 (A) (A) (A) (A) (A) (A) (A) (A) (A) (A) (A) (A)
                 (A) (A) (A)
 The electronic state is 1-A.
 Alpha  occ. eigenvalues --  -11.22480 -11.22424 -11.20865 -11.20865 -11.20863
 Alpha  occ. eigenvalues --  -11.20863  -1.09665  -1.00807  -0.93570  -0.90795
 Alpha  occ. eigenvalues --   -0.82889  -0.74713  -0.62157  -0.61771  -0.58821
 Alpha  occ. eigenvalues --   -0.57548  -0.54268  -0.53667  -0.52509  -0.50759
 Alpha  occ. eigenvalues --   -0.49687  -0.47904  -0.45116  -0.44255  -0.43588
 Alpha virt. eigenvalues --    0.14084   0.16251   0.16596   0.16903   0.19769
 Alpha virt. eigenvalues --    0.20970   0.21314   0.22972   0.23687   0.24321
 Alpha virt. eigenvalues --    0.24437   0.26068   0.26244   0.28084   0.30483
 Alpha virt. eigenvalues --    0.30775   0.34295   0.35600   0.36900   0.39538
 Alpha virt. eigenvalues --    0.40495   0.41856   0.41895   0.46379   0.47672
 Alpha virt. eigenvalues --    0.48462   0.48977   0.50910   0.54074   0.55861
 Alpha virt. eigenvalues --    0.58492   0.59302   0.60580   0.61026   0.62179
 Alpha virt. eigenvalues --    0.62953   0.63518   0.63613   0.64639   0.64759
 Alpha virt. eigenvalues --    0.65647   0.66819   0.67004   0.67667   0.67739
 Alpha virt. eigenvalues --    0.67909   0.69744   0.70136   0.71645   0.72985
 Alpha virt. eigenvalues --    0.74763   0.81206   0.82033   0.83502   0.87078
 Alpha virt. eigenvalues --    0.87178   0.89223   0.92450   0.99751   1.00926
 Alpha virt. eigenvalues --    1.01521   1.01604   1.02915   1.03671   1.06116
 Alpha virt. eigenvalues --    1.08982   1.09816   1.10823   1.11569   1.13150
 Alpha virt. eigenvalues --    1.13397   1.17450   1.20388   1.21118   1.22394
 Alpha virt. eigenvalues --    1.25525   1.26375   1.26397   1.26508   1.27725
 Alpha virt. eigenvalues --    1.28971   1.30800   1.32665   1.32944   1.33227
 Alpha virt. eigenvalues --    1.33788   1.33889   1.36104   1.37911   1.41046
 Alpha virt. eigenvalues --    1.42769   1.46439   1.46848   1.47760   1.48030
 Alpha virt. eigenvalues --    1.48614   1.49790   1.50616   1.50696   1.52527
 Alpha virt. eigenvalues --    1.53240   1.54929   1.57401   1.58033   1.58492
 Alpha virt. eigenvalues --    1.59909   1.63253   1.63892   1.64396   1.65807
 Alpha virt. eigenvalues --    1.67487   1.69609   1.70365   1.71916   1.73081
 Alpha virt. eigenvalues --    1.74585   1.76917   1.79108   1.80677   1.81018
 Alpha virt. eigenvalues --    1.81042   1.82585   1.90798   1.90851   1.91877
 Alpha virt. eigenvalues --    1.94316   2.01692   2.05075   2.05844   2.51165
 Alpha virt. eigenvalues --    2.52176   2.52741   2.56993   2.58424   2.64211
 Alpha virt. eigenvalues --    2.66401   2.70278   2.70301   2.74458   2.75754
 Alpha virt. eigenvalues --    2.77489   2.78483   2.83661   2.84411   2.86382
 Alpha virt. eigenvalues --    2.87511   2.89000   2.89499   2.91692   2.93355
 Alpha virt. eigenvalues --    2.94640   2.95067   2.98224   2.98434   3.01073
 Alpha virt. eigenvalues --    3.02034   3.06583   3.07424   3.07478   3.11330
 Alpha virt. eigenvalues --    3.11471   3.12101   3.13450   3.13978   3.15355
 Alpha virt. eigenvalues --    3.17878   3.21254   3.21387   3.21934   3.22499
 Alpha virt. eigenvalues --    3.26073   3.26331   3.26541   3.28009   3.29755
 Alpha virt. eigenvalues --    3.33033   3.34541   3.36980   3.37179   3.38681
 Alpha virt. eigenvalues --    3.40376   3.40662   3.41123   3.42416   3.43822
 Alpha virt. eigenvalues --    3.43920   3.45496   3.46629   3.47228   3.48932
 Alpha virt. eigenvalues --    3.49097   3.49333   3.54327   3.55405   3.56942
 Alpha virt. eigenvalues --    3.58747   3.59194   3.59888   3.62584   3.66040
 Alpha virt. eigenvalues --    3.66910   3.67810   3.68807   3.69105   3.70970
 Alpha virt. eigenvalues --    3.74630   3.75698   3.75704   3.76313   3.77089
 Alpha virt. eigenvalues --    3.79219   3.79865   3.80485   3.80826   3.83148
 Alpha virt. eigenvalues --    3.83179   3.83313   3.87509   3.87682   3.92405
 Alpha virt. eigenvalues --    3.92983   3.93190   3.94530   3.96341   3.99622
 Alpha virt. eigenvalues --    3.99713   4.01395   4.04053   4.04793   4.05324
 Alpha virt. eigenvalues --    4.09000   4.10373   4.10754   4.12220   4.15411
 Alpha virt. eigenvalues --    4.17525   4.17579   4.17652   4.18239   4.21192
 Alpha virt. eigenvalues --    4.23918   4.25635   4.25735   4.26524   4.29812
 Alpha virt. eigenvalues --    4.30176   4.30934   4.31267   4.35443   4.36853
 Alpha virt. eigenvalues --    4.38170   4.39626   4.42486   4.42755   4.44532
 Alpha virt. eigenvalues --    4.46058   4.46120   4.47571   4.48711   4.49881
 Alpha virt. eigenvalues --    4.50448   4.51506   4.52177   4.52866   4.54287
 Alpha virt. eigenvalues --    4.54547   4.57696   4.58732   4.60419   4.63152
 Alpha virt. eigenvalues --    4.67947   4.68325   4.68889   4.69154   4.72034
 Alpha virt. eigenvalues --    4.73256   4.74407   4.77730   4.78534   4.82071
 Alpha virt. eigenvalues --    4.82587   4.85152   4.88527   4.90449   4.95450
 Alpha virt. eigenvalues --    5.01559   5.01636   5.02191   5.04747   5.06877
 Alpha virt. eigenvalues --    5.07449   5.08602   5.14410   5.14690   5.19119
 Alpha virt. eigenvalues --    5.21499   5.21546   5.23377   5.23462   5.26993
 Alpha virt. eigenvalues --    5.27018   5.29150   5.31313   5.36554   5.38767
 Alpha virt. eigenvalues --    5.38786   5.43423   5.44623   5.48357   5.50943
 Alpha virt. eigenvalues --    5.52472   5.53002   5.57246   5.58629   5.59062
 Alpha virt. eigenvalues --    5.59366   5.63900   5.63996   5.68295   5.68538
 Alpha virt. eigenvalues --    5.72826   5.72881   5.73020   5.74909   5.75724
 Alpha virt. eigenvalues --    5.76773   5.77072   5.78198   5.82484   5.85197
 Alpha virt. eigenvalues --    5.85933   5.87001   5.91899   5.96492   5.97109
 Alpha virt. eigenvalues --    6.23635   6.25426   6.31031   6.31084   6.33195
 Alpha virt. eigenvalues --    6.33235   6.33712   6.35230   6.39320   6.46723
 Alpha virt. eigenvalues --   11.75617  12.59740  14.00880  14.18642  14.27065
 Alpha virt. eigenvalues --   14.27910
          Condensed to atoms (all electrons):
               1          2          3          4          5          6
     1  C    4.848512   0.354645  -0.055161  -0.047809  -0.006692   0.005172
     2  C    0.354645   4.902657   0.354649   0.372259  -0.047810  -0.047814
     3  C   -0.055161   0.354649   4.848481  -0.047814   0.005172  -0.006673
     4  C   -0.047809   0.372259  -0.047814   4.902656   0.354644   0.354650
     5  C   -0.006692  -0.047810   0.005172   0.354644   4.848511  -0.055160
     6  C    0.005172  -0.047814  -0.006673   0.354650  -0.055160   4.848477
     7  H    0.424866  -0.034945  -0.008446   0.006347   0.000106  -0.000262
     8  H    0.412342  -0.040268  -0.002762  -0.002919  -0.000604   0.000060
     9  H    0.425751  -0.033476   0.006873  -0.003828  -0.003219  -0.000237
    10  H   -0.035771   0.414782  -0.035767  -0.032744  -0.004284  -0.004288
    11  H   -0.004284  -0.032745  -0.004288   0.414782  -0.035771  -0.035765
    12  H   -0.000262   0.006347   0.000105  -0.034948  -0.008447   0.424867
    13  H   -0.000237  -0.003825  -0.003209  -0.033479   0.006874   0.425743
    14  H    0.000060  -0.002923  -0.000602  -0.040263  -0.002761   0.412341
    15  H    0.006874  -0.033479   0.425743  -0.003825  -0.000237  -0.003209
    16  H   -0.002761  -0.040262   0.412341  -0.002923   0.000060  -0.000602
    17  H   -0.008447  -0.034948   0.424867   0.006347  -0.000262   0.000105
    18  H    0.000106   0.006348  -0.000262  -0.034947   0.424866  -0.008446
    19  H   -0.000604  -0.002919   0.000060  -0.040267   0.412342  -0.002761
    20  H   -0.003219  -0.003828  -0.000237  -0.033475   0.425752   0.006873
               7          8          9         10         11         12
     1  C    0.424866   0.412342   0.425751  -0.035771  -0.004284  -0.000262
     2  C   -0.034945  -0.040268  -0.033476   0.414782  -0.032745   0.006347
     3  C   -0.008446  -0.002762   0.006873  -0.035767  -0.004288   0.000105
     4  C    0.006347  -0.002919  -0.003828  -0.032744   0.414782  -0.034948
     5  C    0.000106  -0.000604  -0.003219  -0.004284  -0.035771  -0.008447
     6  C   -0.000262   0.000060  -0.000237  -0.004288  -0.035765   0.424867
     7  H    0.575169  -0.029443  -0.031829  -0.004394  -0.000214   0.000017
     8  H   -0.029443   0.595206  -0.032217   0.007174   0.002585  -0.000006
     9  H   -0.031829  -0.032217   0.580167  -0.004730   0.000257  -0.000005
    10  H   -0.004394   0.007174  -0.004730   0.593770   0.007160  -0.000214
    11  H   -0.000214   0.002585   0.000257   0.007160   0.593769  -0.004392
    12  H    0.000017  -0.000006  -0.000005  -0.000214  -0.004392   0.575169
    13  H   -0.000005  -0.000005   0.000002   0.000257  -0.004731  -0.031824
    14  H   -0.000006  -0.000017  -0.000005   0.002586   0.007173  -0.029445
    15  H    0.000107  -0.000123  -0.000273  -0.004731   0.000257   0.000213
    16  H   -0.000045   0.002022  -0.000123   0.007173   0.002586  -0.000096
    17  H    0.001857  -0.000046   0.000107  -0.004392  -0.000214   0.000034
    18  H    0.000034  -0.000096   0.000214  -0.000214  -0.004394   0.001858
    19  H   -0.000096   0.000175   0.000287   0.002585   0.007174  -0.000046
    20  H    0.000214   0.000287  -0.005497   0.000257  -0.004730   0.000107
              13         14         15         16         17         18
     1  C   -0.000237   0.000060   0.006874  -0.002761  -0.008447   0.000106
     2  C   -0.003825  -0.002923  -0.033479  -0.040262  -0.034948   0.006348
     3  C   -0.003209  -0.000602   0.425743   0.412341   0.424867  -0.000262
     4  C   -0.033479  -0.040263  -0.003825  -0.002923   0.006347  -0.034947
     5  C    0.006874  -0.002761  -0.000237   0.000060  -0.000262   0.424866
     6  C    0.425743   0.412341  -0.003209  -0.000602   0.000105  -0.008446
     7  H   -0.000005  -0.000006   0.000107  -0.000045   0.001857   0.000034
     8  H   -0.000005  -0.000017  -0.000123   0.002022  -0.000046  -0.000096
     9  H    0.000002  -0.000005  -0.000273  -0.000123   0.000107   0.000214
    10  H    0.000257   0.002586  -0.004731   0.007173  -0.004392  -0.000214
    11  H   -0.004731   0.007173   0.000257   0.002586  -0.000214  -0.004394
    12  H   -0.031824  -0.029445   0.000213  -0.000096   0.000034   0.001858
    13  H    0.580147  -0.032217  -0.005485   0.000287   0.000213   0.000107
    14  H   -0.032217   0.595207   0.000287   0.000175  -0.000096  -0.000045
    15  H   -0.005485   0.000287   0.580146  -0.032216  -0.031824  -0.000005
    16  H    0.000287   0.000175  -0.032216   0.595208  -0.029446  -0.000006
    17  H    0.000213  -0.000096  -0.031824  -0.029446   0.575172   0.000017
    18  H    0.000107  -0.000045  -0.000005  -0.000006   0.000017   0.575169
    19  H   -0.000123   0.002022  -0.000005  -0.000017  -0.000006  -0.029444
    20  H   -0.000273  -0.000123   0.000002  -0.000005  -0.000005  -0.031827
              19         20
     1  C   -0.000604  -0.003219
     2  C   -0.002919  -0.003828
     3  C    0.000060  -0.000237
     4  C   -0.040267  -0.033475
     5  C    0.412342   0.425752
     6  C   -0.002761   0.006873
     7  H   -0.000096   0.000214
     8  H    0.000175   0.000287
     9  H    0.000287  -0.005497
    10  H    0.002585   0.000257
    11  H    0.007174  -0.004730
    12  H   -0.000046   0.000107
    13  H   -0.000123  -0.000273
    14  H    0.002022  -0.000123
    15  H   -0.000005   0.000002
    16  H   -0.000017  -0.000005
    17  H   -0.000006  -0.000005
    18  H   -0.029444  -0.031827
    19  H    0.595208  -0.032218
    20  H   -0.032218   0.580162
 Mulliken charges:
               1
     1  C   -0.313081
     2  C   -0.052444
     3  C   -0.313070
     4  C   -0.052444
     5  C   -0.313079
     6  C   -0.313070
     7  H    0.100967
     8  H    0.088655
     9  H    0.101782
    10  H    0.095786
    11  H    0.095787
    12  H    0.100967
    13  H    0.101785
    14  H    0.088653
    15  H    0.101784
    16  H    0.088652
    17  H    0.100966
    18  H    0.100967
    19  H    0.088654
    20  H    0.101783
 Sum of Mulliken charges =   0.00000
 Mulliken charges with hydrogens summed into heavy atoms:
               1
     1  C   -0.021677
     2  C    0.043342
     3  C   -0.021668
     4  C    0.043343
     5  C   -0.021675
     6  C   -0.021666
 Electronic spatial extent (au):  <R**2>=            751.4021
 Charge=              0.0000 electrons
 Dipole moment (field-independent basis, Debye):
    X=              0.0000    Y=              0.0000    Z=              0.0000  Tot=              0.0000
 Quadrupole moment (field-independent basis, Debye-Ang):
   XX=            -42.8635   YY=            -43.0444   ZZ=            -41.8497
   XY=              0.0001   XZ=              0.3561   YZ=              0.0000
 Traceless Quadrupole moment (field-independent basis, Debye-Ang):
   XX=             -0.2776   YY=             -0.4586   ZZ=              0.7362
   XY=              0.0001   XZ=              0.3561   YZ=              0.0000
 Octapole moment (field-independent basis, Debye-Ang**2):
  XXX=              0.0000  YYY=             -0.0006  ZZZ=              0.0000  XYY=              0.0000
  XXY=              0.0001  XXZ=              0.0000  XZZ=              0.0000  YZZ=              0.0003
  YYZ=              0.0001  XYZ=             -0.0003
 Hexadecapole moment (field-independent basis, Debye-Ang**3):
 XXXX=           -559.0661 YYYY=           -397.6237 ZZZZ=            -96.6411 XXXY=              0.0004
 XXXZ=             10.0015 YYYX=              0.0005 YYYZ=             -0.0001 ZZZX=             -2.7305
 ZZZY=             -0.0001 XXYY=           -170.5147 XXZZ=           -110.5278 YYZZ=            -84.0103
 XXYZ=              0.0001 YYXZ=              0.8641 ZZXY=              0.0001
 N-N= 2.614326201042D+02 E-N=-1.069521357869D+03  KE= 2.350233411446D+02
 1\1\GINC-MEGATRON\SP\RMP2-FC\CC-pVTZ\C6H14\STYLIANAKIS\14-Feb-2016\0\\
 # mp2/cc-pVTZ\\2_3_dimethy_butane_a_single_point\\0,1\C\C,1,1.539236\C
 ,2,1.539242,1,109.297\C,2,1.554487,3,112.399,1,125.516,0\C,4,1.539238,
 2,112.395,3,-179.984,0\C,4,1.539241,2,112.399,1,-179.984,0\H,1,1.09575
 4,2,110.587,4,-177.715,0\H,1,1.097994,2,110.816,4,-58.645,0\H,1,1.0935
 1,2,112.54,4,62.2,0\H,2,1.102108,4,107.027,6,-61.89,0\H,4,1.102108,2,1
 07.026,1,61.918,0\H,6,1.095752,4,110.586,2,177.702,0\H,6,1.093507,4,11
 2.54,2,-62.212,0\H,6,1.097996,4,110.816,2,58.632,0\H,3,1.093507,2,112.
 54,1,172.272,0\H,3,1.097996,2,110.816,1,-66.883,0\H,3,1.095753,2,110.5
 86,1,52.186,0\H,5,1.095752,4,110.586,2,-177.714,0\H,5,1.097996,4,110.8
 16,2,-58.645,0\H,5,1.093508,4,112.54,2,62.2,0\\Version=EM64L-G09RevD.0
 1\State=1-A\HF=-235.4448715\MP2=-236.5200564\RMSD=5.160e-09\PG=C01 [X(
 C6H14)]\\@


 Everywhere is walking distance if you have the time.
                                    -- Steven Wright
 Job cpu time:       0 days  0 hours 29 minutes  9.2 seconds.
 File lengths (MBytes):  RWF=     78 Int=      0 D2E=      0 Chk=      7 Scr=      1
 Normal termination of Gaussian 09 at Sun Feb 14 00:02:19 2016.
