 Entering Gaussian System, Link 0=g09
 Input=2_3_dimethyl_butane_g.gjf
 Output=2_3_dimethyl_butane_g.out
 Initial command:
 /usr/local/g09/l1.exe "/home/scratch/stylianakis/Gau-5499.inp" -scrdir="/home/scratch/stylianakis/"
 Entering Link 1 = /usr/local/g09/l1.exe PID=      5500.
  
 Copyright (c) 1988,1990,1992,1993,1995,1998,2003,2009,2013,
            Gaussian, Inc.  All Rights Reserved.
  
 This is part of the Gaussian(R) 09 program.  It is based on
 the Gaussian(R) 03 system (copyright 2003, Gaussian, Inc.),
 the Gaussian(R) 98 system (copyright 1998, Gaussian, Inc.),
 the Gaussian(R) 94 system (copyright 1995, Gaussian, Inc.),
 the Gaussian 92(TM) system (copyright 1992, Gaussian, Inc.),
 the Gaussian 90(TM) system (copyright 1990, Gaussian, Inc.),
 the Gaussian 88(TM) system (copyright 1988, Gaussian, Inc.),
 the Gaussian 86(TM) system (copyright 1986, Carnegie Mellon
 University), and the Gaussian 82(TM) system (copyright 1983,
 Carnegie Mellon University). Gaussian is a federally registered
 trademark of Gaussian, Inc.
  
 This software contains proprietary and confidential information,
 including trade secrets, belonging to Gaussian, Inc.
  
 This software is provided under written license and may be
 used, copied, transmitted, or stored only in accord with that
 written license.
  
 The following legend is applicable only to US Government
 contracts under FAR:
  
                    RESTRICTED RIGHTS LEGEND
  
 Use, reproduction and disclosure by the US Government is
 subject to restrictions as set forth in subparagraphs (a)
 and (c) of the Commercial Computer Software - Restricted
 Rights clause in FAR 52.227-19.
  
 Gaussian, Inc.
 340 Quinnipiac St., Bldg. 40, Wallingford CT 06492
  
  
 ---------------------------------------------------------------
 Warning -- This program may not be used in any manner that
 competes with the business of Gaussian, Inc. or will provide
 assistance to any competitor of Gaussian, Inc.  The licensee
 of this program is prohibited from giving any competitor of
 Gaussian, Inc. access to this program.  By using this program,
 the user acknowledges that Gaussian, Inc. is engaged in the
 business of creating and licensing software in the field of
 computational chemistry and represents and warrants to the
 licensee that it is not a competitor of Gaussian, Inc. and that
 it will not use this program in any manner prohibited above.
 ---------------------------------------------------------------
  

 Cite this work as:
 Gaussian 09, Revision D.01,
 M. J. Frisch, G. W. Trucks, H. B. Schlegel, G. E. Scuseria, 
 M. A. Robb, J. R. Cheeseman, G. Scalmani, V. Barone, B. Mennucci, 
 G. A. Petersson, H. Nakatsuji, M. Caricato, X. Li, H. P. Hratchian, 
 A. F. Izmaylov, J. Bloino, G. Zheng, J. L. Sonnenberg, M. Hada, 
 M. Ehara, K. Toyota, R. Fukuda, J. Hasegawa, M. Ishida, T. Nakajima, 
 Y. Honda, O. Kitao, H. Nakai, T. Vreven, J. A. Montgomery, Jr., 
 J. E. Peralta, F. Ogliaro, M. Bearpark, J. J. Heyd, E. Brothers, 
 K. N. Kudin, V. N. Staroverov, T. Keith, R. Kobayashi, J. Normand, 
 K. Raghavachari, A. Rendell, J. C. Burant, S. S. Iyengar, J. Tomasi, 
 M. Cossi, N. Rega, J. M. Millam, M. Klene, J. E. Knox, J. B. Cross, 
 V. Bakken, C. Adamo, J. Jaramillo, R. Gomperts, R. E. Stratmann, 
 O. Yazyev, A. J. Austin, R. Cammi, C. Pomelli, J. W. Ochterski, 
 R. L. Martin, K. Morokuma, V. G. Zakrzewski, G. A. Voth, 
 P. Salvador, J. J. Dannenberg, S. Dapprich, A. D. Daniels, 
 O. Farkas, J. B. Foresman, J. V. Ortiz, J. Cioslowski, 
 and D. J. Fox, Gaussian, Inc., Wallingford CT, 2013.
 
 ******************************************
 Gaussian 09:  EM64L-G09RevD.01 24-Apr-2013
                14-Feb-2016 
 ******************************************
 %mem=8000Mb
 %nproc=4
 Will use up to    4 processors via shared memory.
 -------------
 # mp2/cc-pVTZ
 -------------
 1/38=1/1;
 2/12=2,17=6,18=5,40=1/2;
 3/5=16,6=1,11=9,16=1,25=1,30=1/1,2,3;
 4//1;
 5/5=2,38=5/2;
 8/10=1/1;
 9/16=-3/6;
 6/7=2,8=2,9=2,10=2/1;
 99/5=1,9=1/99;
 -----------------------------------
 2_3_dimethyl_butane_g_single_pointt
 -----------------------------------
 Symbolic Z-matrix:
 Charge =  0 Multiplicity = 1
 c
 c                    1    cc2
 c                    2    cc3      1    ccc3
 c                    2    cc4      3    ccc4     1    dih4     0
 c                    4    cc5      2    ccc5     3    dih5     0
 c                    4    cc6      2    ccc6     1    dih6     0
 h                    1    hc7      2    hcc7     4    dih7     0
 h                    1    hc8      2    hcc8     4    dih8     0
 h                    1    hc9      2    hcc9     4    dih9     0
 h                    2    hc10     4    hcc10    6    dih10    0
 h                    4    hc11     2    hcc11    1    dih11    0
 h                    6    hc12     4    hcc12    2    dih12    0
 h                    6    hc13     4    hcc13    2    dih13    0
 h                    6    hc14     4    hcc14    2    dih14    0
 h                    3    hc15     2    hcc15    1    dih15    0
 h                    3    hc16     2    hcc16    1    dih16    0
 h                    3    hc17     2    hcc17    1    dih17    0
 h                    5    hc18     4    hcc18    2    dih18    0
 h                    5    hc19     4    hcc19    2    dih19    0
 h                    5    hc20     4    hcc20    2    dih20    0
       Variables:
  cc2                   1.53801                  
  cc3                   1.53858                  
  ccc3                110.4                      
  cc4                   1.55579                  
  ccc4                114.017                    
  dih4                127.196                    
  cc5                   1.53801                  
  ccc5                112.068                    
  dih5                 67.442                    
  cc6                   1.53858                  
  ccc6                114.018                    
  dih6                 67.442                    
  hc7                   1.09596                  
  hcc7                110.802                    
  dih7                172.665                    
  hc8                   1.09614                  
  hcc8                111.683                    
  dih8                -67.808                    
  hc9                   1.09632                  
  hcc9                111.359                    
  dih9                 52.77                     
  hc10                  1.10068                  
  hcc10               105.785                    
  dih10              -176.395                    
  hc11                  1.10068                  
  hcc11               105.785                    
  dih11               -50.066                    
  hc12                  1.09594                  
  hcc12               110.364                    
  dih12              -174.082                    
  hc13                  1.09487                  
  hcc13               112.247                    
  dih13               -54.353                    
  hc14                  1.09616                  
  hcc14               111.546                    
  dih14                66.807                    
  hc15                  1.09488                  
  hcc15               112.246                    
  dih15               178.454                    
  hc16                  1.09616                  
  hcc16               111.546                    
  dih16               -60.386                    
  hc17                  1.09594                  
  hcc17               110.364                    
  dih17                58.725                    
  hc18                  1.09596                  
  hcc18               110.801                    
  dih18               172.659                    
  hc19                  1.09614                  
  hcc19               111.683                    
  dih19               -67.814                    
  hc20                  1.09631                  
  hcc20               111.359                    
  dih20                52.764                    
 
                          Input orientation:                          
 ---------------------------------------------------------------------
 Center     Atomic      Atomic             Coordinates (Angstroms)
 Number     Number       Type             X           Y           Z
 ---------------------------------------------------------------------
      1          6           0        0.000000    0.000000    0.000000
      2          6           0        0.000000    0.000000    1.538010
      3          6           0        1.442084    0.000000    2.074316
      4          6           0       -0.892966   -1.132004    2.122520
      5          6           0       -1.168884   -0.933968    3.622566
      6          6           0       -0.358881   -2.550485    1.858169
      7          1           0        0.526632    0.878801   -0.389218
      8          1           0        0.502198   -0.886176   -0.404993
      9          1           0       -1.020849    0.018490   -0.399289
     10          1           0       -0.465859    0.944386    1.858322
     11          1           0       -1.860664   -1.047412    1.604931
     12          1           0       -1.081422   -3.300004    2.200574
     13          1           0       -0.177511   -2.733499    0.794045
     14          1           0        0.578928   -2.734103    2.395167
     15          1           0        1.477482    0.027341    3.168277
     16          1           0        1.995017   -0.886382    1.742415
     17          1           0        1.985460    0.878141    1.707310
     18          1           0       -1.901204   -1.665132    3.983443
     19          1           0       -0.259836   -1.060883    4.221775
     20          1           0       -1.567705    0.066658    3.826499
 ---------------------------------------------------------------------
                    Distance matrix (angstroms):
                    1          2          3          4          5
     1  C    0.000000
     2  C    1.538010   0.000000
     3  C    2.526340   1.538581   0.000000
     4  C    2.565913   1.555787   2.595422   0.000000
     5  C    3.919384   2.565923   3.175929   1.538014   0.000000
     6  C    3.175935   2.595433   3.129723   1.538576   2.526326
     7  H    1.095958   2.182623   2.771163   3.516735   4.717554
     8  H    1.096144   2.193804   2.795652   2.897454   4.360738
     9  H    1.096315   2.189887   3.490717   2.774799   4.135748
    10  H    2.135943   1.100677   2.139805   2.136262   2.671145
    11  H    2.671132   2.136263   3.496504   1.100678   2.135949
    12  H    4.111207   3.535320   4.156206   2.177574   2.761853
    13  H    2.852023   2.838487   3.425521   2.200342   3.495949
    14  H    3.680666   2.923217   2.885014   2.192608   2.793177
    15  H    3.495952   2.200335   1.094875   2.838435   2.851972
    16  H    2.793166   2.192612   1.096160   2.923227   3.680693
    17  H    2.761900   2.177578   1.095939   3.535310   4.111183
    18  H    4.717527   3.516729   4.194640   2.182614   1.095959
    19  H    4.360776   2.897513   2.938296   2.193806   1.096142
    20  H    4.135727   2.774766   3.483306   2.189888   1.096312
                    6          7          8          9         10
     6  C    0.000000
     7  H    4.194626   0.000000
     8  H    2.938246   1.765217   0.000000
     9  H    3.483383   1.770575   1.771476   0.000000
    10  H    3.496508   2.457800   3.067685   2.502420   0.000000
    11  H    2.139792   3.658703   3.106270   2.420400   2.444779
    12  H    1.095940   5.172550   3.888881   4.216084   4.302429
    13  H    1.094874   3.865830   2.304842   3.115880   3.839618
    14  H    1.096160   4.561646   3.355834   4.236159   3.861485
    15  H    3.425463   3.779534   3.814965   4.355373   2.516651
    16  H    2.885043   3.133032   2.615315   3.808037   3.069375
    17  H    4.156221   2.554136   3.126453   3.770233   2.456860
    18  H    2.771173   5.611252   5.063743   4.776814   3.658680
    19  H    2.795595   5.063809   4.692356   4.806081   3.106357
    20  H    3.490704   4.776829   4.806030   4.261298   2.420370
                   11         12         13         14         15
    11  H    0.000000
    12  H    2.456863   0.000000
    13  H    2.516630   1.765306   0.000000
    14  H    3.069366   1.764899   1.770816   0.000000
    15  H    3.839578   4.307628   3.999776   3.005108   0.000000
    16  H    3.861490   3.936998   3.005182   2.417740   1.770823
    17  H    4.302430   5.206339   4.307718   3.936977   1.765312
    18  H    2.457751   2.554108   3.779521   3.133109   3.865809
    19  H    3.067686   3.126326   3.814937   2.615279   2.304856
    20  H    2.502467   3.770214   4.355375   3.808019   3.115761
                   16         17         18         19         20
    16  H    0.000000
    17  H    1.764899   0.000000
    18  H    4.561710   5.172541   0.000000
    19  H    3.355895   3.888920   1.765223   0.000000
    20  H    4.236116   4.215975   1.770579   1.771472   0.000000
 Stoichiometry    C6H14
 Framework group  C1[X(C6H14)]
 Deg. of freedom    54
 Full point group                 C1      NOp   1
 Largest Abelian subgroup         C1      NOp   1
 Largest concise Abelian subgroup C1      NOp   1
                         Standard orientation:                         
 ---------------------------------------------------------------------
 Center     Atomic      Atomic             Coordinates (Angstroms)
 Number     Number       Type             X           Y           Z
 ---------------------------------------------------------------------
      1          6           0        1.810989   -0.748817   -0.546984
      2          6           0        0.711954    0.313446   -0.376121
      3          6           0        1.006714    1.198052    0.847734
      4          6           0       -0.711940   -0.313449   -0.376116
      5          6           0       -1.810985    0.748807   -0.546999
      6          6           0       -1.006725   -1.198035    0.847740
      7          1           0        2.791939   -0.276963   -0.674320
      8          1           0        1.877451   -1.407011    0.327027
      9          1           0        1.625940   -1.376959   -1.426246
     10          1           0        0.753241    0.962733   -1.263934
     11          1           0       -0.753224   -0.962756   -1.263916
     12          1           0       -1.979360   -1.690737    0.736787
     13          1           0       -0.255853   -1.983472    0.982012
     14          1           0       -1.044660   -0.608282    1.770951
     15          1           0        0.255794    1.983445    0.982001
     16          1           0        1.044692    0.608301    1.770946
     17          1           0        1.979321    1.690802    0.736766
     18          1           0       -2.791910    0.276924   -0.674433
     19          1           0       -1.877523    1.406948    0.327043
     20          1           0       -1.625885    1.377001   -1.426210
 ---------------------------------------------------------------------
 Rotational constants (GHZ):      4.2061607      2.5224318      2.2044564
 Standard basis: CC-pVTZ (5D, 7F)
 There are   420 symmetry adapted cartesian basis functions of A   symmetry.
 There are   376 symmetry adapted basis functions of A   symmetry.
   376 basis functions,   550 primitive gaussians,   420 cartesian basis functions
    25 alpha electrons       25 beta electrons
       nuclear repulsion energy       262.3770182785 Hartrees.
 NAtoms=   20 NActive=   20 NUniq=   20 SFac= 1.00D+00 NAtFMM=   60 NAOKFM=F Big=F
 Integral buffers will be    131072 words long.
 Raffenetti 1 integral format.
 Two-electron integral symmetry is turned on.
 One-electron integrals computed using PRISM.
 NBasis=   376 RedAO= T EigKep=  4.63D-04  NBF=   376
 NBsUse=   376 1.00D-06 EigRej= -1.00D+00 NBFU=   376
 ExpMin= 1.03D-01 ExpMax= 8.24D+03 ExpMxC= 2.81D+02 IAcc=1 IRadAn=         1 AccDes= 0.00D+00
 Harris functional with IExCor=  205 and IRadAn=       1 diagonalized for initial guess.
 HarFok:  IExCor=  205 AccDes= 0.00D+00 IRadAn=         1 IDoV= 1 UseB2=F ITyADJ=14
 ICtDFT=  3500011 ScaDFX=  1.000000  1.000000  1.000000  1.000000
 FoFCou: FMM=F IPFlag=           0 FMFlag=      100000 FMFlg1=           0
         NFxFlg=           0 DoJE=T BraDBF=F KetDBF=T FulRan=T
         wScrn=  0.000000 ICntrl=     500 IOpCl=  0 I1Cent=   200000004 NGrid=           0
         NMat0=    1 NMatS0=      1 NMatT0=    0 NMatD0=    1 NMtDS0=    0 NMtDT0=    0
 Petite list used in FoFCou.
 Requested convergence on RMS density matrix=1.00D-08 within 128 cycles.
 Requested convergence on MAX density matrix=1.00D-06.
 Requested convergence on             energy=1.00D-06.
 No special actions if energy rises.
 Integral accuracy reduced to 1.0D-05 until final iterations.
 Initial convergence to 1.0D-05 achieved.  Increase integral accuracy.
 SCF Done:  E(RHF) =  -235.444983839     A.U. after   11 cycles
            NFock= 11  Conv=0.54D-08     -V/T= 2.0018
 ExpMin= 1.03D-01 ExpMax= 8.24D+03 ExpMxC= 2.81D+02 IAcc=3 IRadAn=         5 AccDes= 0.00D+00
 HarFok:  IExCor=  205 AccDes= 0.00D+00 IRadAn=         5 IDoV=-2 UseB2=F ITyADJ=14
 ICtDFT= 12500011 ScaDFX=  1.000000  1.000000  1.000000  1.000000
 Range of M.O.s used for correlation:     7   376
 NBasis=   376 NAE=    25 NBE=    25 NFC=     6 NFV=     0
 NROrb=    370 NOA=    19 NOB=    19 NVA=   351 NVB=   351
 Fully direct method using O(OVN) memory.
 JobTyp=1 Pass  1:  I=   1 to  19 NPSUse=  4 ParTrn=T ParDer=T DoDerP=F.
 Spin components of T(2) and E(2):
     alpha-alpha T2 =       0.4003919132D-01 E2=     -0.1174978087D+00
     alpha-beta  T2 =       0.2565203273D+00 E2=     -0.8398466513D+00
     beta-beta   T2 =       0.4003919132D-01 E2=     -0.1174978087D+00
 ANorm=    0.1156113623D+01
 E2 =    -0.1074842269D+01 EUMP2 =    -0.23651982610774D+03

 **********************************************************************

            Population analysis using the SCF density.

 **********************************************************************

 Orbital symmetries:
       Occupied  (A) (A) (A) (A) (A) (A) (A) (A) (A) (A) (A) (A)
                 (A) (A) (A) (A) (A) (A) (A) (A) (A) (A) (A) (A)
                 (A)
       Virtual   (A) (A) (A) (A) (A) (A) (A) (A) (A) (A) (A) (A)
                 (A) (A) (A) (A) (A) (A) (A) (A) (A) (A) (A) (A)
                 (A) (A) (A) (A) (A) (A) (A) (A) (A) (A) (A) (A)
                 (A) (A) (A) (A) (A) (A) (A) (A) (A) (A) (A) (A)
                 (A) (A) (A) (A) (A) (A) (A) (A) (A) (A) (A) (A)
                 (A) (A) (A) (A) (A) (A) (A) (A) (A) (A) (A) (A)
                 (A) (A) (A) (A) (A) (A) (A) (A) (A) (A) (A) (A)
                 (A) (A) (A) (A) (A) (A) (A) (A) (A) (A) (A) (A)
                 (A) (A) (A) (A) (A) (A) (A) (A) (A) (A) (A) (A)
                 (A) (A) (A) (A) (A) (A) (A) (A) (A) (A) (A) (A)
                 (A) (A) (A) (A) (A) (A) (A) (A) (A) (A) (A) (A)
                 (A) (A) (A) (A) (A) (A) (A) (A) (A) (A) (A) (A)
                 (A) (A) (A) (A) (A) (A) (A) (A) (A) (A) (A) (A)
                 (A) (A) (A) (A) (A) (A) (A) (A) (A) (A) (A) (A)
                 (A) (A) (A) (A) (A) (A) (A) (A) (A) (A) (A) (A)
                 (A) (A) (A) (A) (A) (A) (A) (A) (A) (A) (A) (A)
                 (A) (A) (A) (A) (A) (A) (A) (A) (A) (A) (A) (A)
                 (A) (A) (A) (A) (A) (A) (A) (A) (A) (A) (A) (A)
                 (A) (A) (A) (A) (A) (A) (A) (A) (A) (A) (A) (A)
                 (A) (A) (A) (A) (A) (A) (A) (A) (A) (A) (A) (A)
                 (A) (A) (A) (A) (A) (A) (A) (A) (A) (A) (A) (A)
                 (A) (A) (A) (A) (A) (A) (A) (A) (A) (A) (A) (A)
                 (A) (A) (A) (A) (A) (A) (A) (A) (A) (A) (A) (A)
                 (A) (A) (A) (A) (A) (A) (A) (A) (A) (A) (A) (A)
                 (A) (A) (A) (A) (A) (A) (A) (A) (A) (A) (A) (A)
                 (A) (A) (A) (A) (A) (A) (A) (A) (A) (A) (A) (A)
                 (A) (A) (A) (A) (A) (A) (A) (A) (A) (A) (A) (A)
                 (A) (A) (A) (A) (A) (A) (A) (A) (A) (A) (A) (A)
                 (A) (A) (A) (A) (A) (A) (A) (A) (A) (A) (A) (A)
                 (A) (A) (A)
 The electronic state is 1-A.
 Alpha  occ. eigenvalues --  -11.22400 -11.22344 -11.20887 -11.20886 -11.20852
 Alpha  occ. eigenvalues --  -11.20852  -1.09599  -1.00683  -0.92821  -0.91902
 Alpha  occ. eigenvalues --   -0.83333  -0.73253  -0.63639  -0.60555  -0.60180
 Alpha  occ. eigenvalues --   -0.55918  -0.54898  -0.53683  -0.52066  -0.52041
 Alpha  occ. eigenvalues --   -0.48665  -0.48549  -0.44540  -0.44473  -0.43465
 Alpha virt. eigenvalues --    0.13497   0.16597   0.16788   0.17285   0.19926
 Alpha virt. eigenvalues --    0.20349   0.21185   0.22157   0.23438   0.24029
 Alpha virt. eigenvalues --    0.25955   0.26263   0.27726   0.29218   0.30267
 Alpha virt. eigenvalues --    0.31493   0.34621   0.35932   0.37025   0.37171
 Alpha virt. eigenvalues --    0.39880   0.40344   0.44168   0.46125   0.47009
 Alpha virt. eigenvalues --    0.47272   0.51322   0.51333   0.52723   0.56377
 Alpha virt. eigenvalues --    0.57870   0.58146   0.60310   0.61796   0.61981
 Alpha virt. eigenvalues --    0.62086   0.62585   0.63118   0.63550   0.64810
 Alpha virt. eigenvalues --    0.66213   0.66576   0.67846   0.68244   0.68836
 Alpha virt. eigenvalues --    0.68914   0.69240   0.69497   0.72221   0.72722
 Alpha virt. eigenvalues --    0.75592   0.82009   0.82019   0.83982   0.84813
 Alpha virt. eigenvalues --    0.85862   0.91928   0.94663   0.95802   0.99277
 Alpha virt. eigenvalues --    1.01288   1.03272   1.03916   1.04231   1.06281
 Alpha virt. eigenvalues --    1.09247   1.10251   1.10893   1.14791   1.16157
 Alpha virt. eigenvalues --    1.16289   1.17010   1.18985   1.20594   1.21062
 Alpha virt. eigenvalues --    1.22216   1.23149   1.24124   1.25456   1.29380
 Alpha virt. eigenvalues --    1.30088   1.30160   1.31061   1.32867   1.33882
 Alpha virt. eigenvalues --    1.36725   1.38351   1.38808   1.38969   1.40471
 Alpha virt. eigenvalues --    1.42135   1.44770   1.45815   1.46047   1.48945
 Alpha virt. eigenvalues --    1.49029   1.49373   1.51382   1.52440   1.52863
 Alpha virt. eigenvalues --    1.54308   1.54727   1.55487   1.57793   1.58178
 Alpha virt. eigenvalues --    1.59118   1.59394   1.61331   1.63982   1.65654
 Alpha virt. eigenvalues --    1.66772   1.67542   1.69336   1.72949   1.73698
 Alpha virt. eigenvalues --    1.75531   1.77582   1.78707   1.79070   1.80520
 Alpha virt. eigenvalues --    1.83772   1.84790   1.86437   1.92062   1.92478
 Alpha virt. eigenvalues --    1.98910   1.99839   2.05158   2.05389   2.49906
 Alpha virt. eigenvalues --    2.53427   2.54824   2.56435   2.60658   2.63659
 Alpha virt. eigenvalues --    2.64260   2.69277   2.71886   2.72230   2.78182
 Alpha virt. eigenvalues --    2.79275   2.81097   2.83132   2.84722   2.85216
 Alpha virt. eigenvalues --    2.86651   2.88465   2.90131   2.91825   2.93465
 Alpha virt. eigenvalues --    2.93776   2.94287   2.97747   2.97816   2.98863
 Alpha virt. eigenvalues --    3.04526   3.05200   3.06359   3.06738   3.09602
 Alpha virt. eigenvalues --    3.12024   3.12992   3.13383   3.14675   3.15320
 Alpha virt. eigenvalues --    3.15952   3.17730   3.20519   3.22027   3.22666
 Alpha virt. eigenvalues --    3.27351   3.27389   3.28590   3.30832   3.31750
 Alpha virt. eigenvalues --    3.33705   3.34902   3.36179   3.37991   3.38027
 Alpha virt. eigenvalues --    3.39248   3.39322   3.41323   3.42721   3.42938
 Alpha virt. eigenvalues --    3.44098   3.45450   3.47310   3.48089   3.48511
 Alpha virt. eigenvalues --    3.49098   3.49874   3.50746   3.52481   3.57420
 Alpha virt. eigenvalues --    3.57434   3.60705   3.62588   3.64355   3.66510
 Alpha virt. eigenvalues --    3.67185   3.67322   3.68227   3.70932   3.70972
 Alpha virt. eigenvalues --    3.71865   3.73371   3.73512   3.75023   3.75570
 Alpha virt. eigenvalues --    3.79362   3.80166   3.81634   3.83418   3.84166
 Alpha virt. eigenvalues --    3.84664   3.85760   3.88383   3.88864   3.89516
 Alpha virt. eigenvalues --    3.90642   3.93465   3.95443   3.96679   3.97166
 Alpha virt. eigenvalues --    3.99200   4.02771   4.03806   4.05709   4.08064
 Alpha virt. eigenvalues --    4.08503   4.10195   4.11696   4.12214   4.14492
 Alpha virt. eigenvalues --    4.15177   4.16864   4.17543   4.18975   4.20379
 Alpha virt. eigenvalues --    4.20574   4.21408   4.26609   4.29604   4.30586
 Alpha virt. eigenvalues --    4.32210   4.33308   4.33368   4.34723   4.36530
 Alpha virt. eigenvalues --    4.36835   4.37252   4.41335   4.42841   4.44987
 Alpha virt. eigenvalues --    4.45631   4.47250   4.47379   4.48674   4.49191
 Alpha virt. eigenvalues --    4.50463   4.51205   4.51569   4.52308   4.54494
 Alpha virt. eigenvalues --    4.54623   4.56354   4.57536   4.60537   4.61018
 Alpha virt. eigenvalues --    4.65803   4.67382   4.67931   4.68752   4.69874
 Alpha virt. eigenvalues --    4.72044   4.74659   4.76366   4.77075   4.79408
 Alpha virt. eigenvalues --    4.84748   4.86253   4.86653   4.89149   4.94839
 Alpha virt. eigenvalues --    4.97986   4.99052   5.02575   5.04265   5.10017
 Alpha virt. eigenvalues --    5.10660   5.12210   5.13114   5.15729   5.17374
 Alpha virt. eigenvalues --    5.19877   5.21563   5.22226   5.24440   5.26996
 Alpha virt. eigenvalues --    5.28789   5.31924   5.33032   5.35470   5.36103
 Alpha virt. eigenvalues --    5.39328   5.42812   5.47073   5.47532   5.51176
 Alpha virt. eigenvalues --    5.51269   5.52359   5.56844   5.58497   5.58578
 Alpha virt. eigenvalues --    5.61465   5.62590   5.65611   5.67564   5.69230
 Alpha virt. eigenvalues --    5.72586   5.74119   5.74416   5.75424   5.77043
 Alpha virt. eigenvalues --    5.77279   5.78196   5.78973   5.83944   5.84824
 Alpha virt. eigenvalues --    5.85034   5.87015   5.88606   5.90371   5.99677
 Alpha virt. eigenvalues --    6.18399   6.27874   6.28728   6.30191   6.33619
 Alpha virt. eigenvalues --    6.33829   6.35375   6.38300   6.40356   6.42294
 Alpha virt. eigenvalues --   11.96640  12.58076  14.03729  14.25074  14.26026
 Alpha virt. eigenvalues --   14.27718
          Condensed to atoms (all electrons):
               1          2          3          4          5          6
     1  C    4.844274   0.356474  -0.055369  -0.050660   0.005808  -0.003922
     2  C    0.356474   4.908061   0.338059   0.370721  -0.050661  -0.038702
     3  C   -0.055369   0.338059   4.855960  -0.038704  -0.003921  -0.005636
     4  C   -0.050660   0.370721  -0.038704   4.908063   0.356475   0.338059
     5  C    0.005808  -0.050661  -0.003921   0.356475   4.844276  -0.055371
     6  C   -0.003922  -0.038702  -0.005636   0.338059  -0.055371   4.855962
     7  H    0.423425  -0.035108  -0.005186   0.007081  -0.000273  -0.000101
     8  H    0.416331  -0.034578  -0.004479  -0.003870  -0.000303  -0.001513
     9  H    0.422320  -0.039271   0.007122  -0.004627   0.000194   0.000062
    10  H   -0.036126   0.434100  -0.038386  -0.042396  -0.008605   0.006897
    11  H   -0.008604  -0.042397   0.006897   0.434099  -0.036126  -0.038387
    12  H   -0.000080   0.005709  -0.000087  -0.032174  -0.006107   0.424538
    13  H   -0.001917  -0.002690  -0.000266  -0.035650   0.006832   0.423376
    14  H    0.000209  -0.003471  -0.000626  -0.034659  -0.003996   0.414559
    15  H    0.006832  -0.035651   0.423377  -0.002691  -0.001917  -0.000267
    16  H   -0.003996  -0.034658   0.414558  -0.003471   0.000209  -0.000626
    17  H   -0.006106  -0.032173   0.424537   0.005709  -0.000080  -0.000087
    18  H   -0.000273   0.007081  -0.000101  -0.035108   0.423426  -0.005186
    19  H   -0.000303  -0.003869  -0.001513  -0.034578   0.416331  -0.004479
    20  H    0.000194  -0.004626   0.000062  -0.039271   0.422320   0.007122
               7          8          9         10         11         12
     1  C    0.423425   0.416331   0.422320  -0.036126  -0.008604  -0.000080
     2  C   -0.035108  -0.034578  -0.039271   0.434100  -0.042397   0.005709
     3  C   -0.005186  -0.004479   0.007122  -0.038386   0.006897  -0.000087
     4  C    0.007081  -0.003870  -0.004627  -0.042396   0.434099  -0.032174
     5  C   -0.000273  -0.000303   0.000194  -0.008605  -0.036126  -0.006107
     6  C   -0.000101  -0.001513   0.000062   0.006897  -0.038387   0.424538
     7  H    0.574396  -0.032573  -0.028483  -0.006775  -0.000023   0.000031
     8  H   -0.032573   0.597369  -0.032579   0.007106   0.000377   0.000012
     9  H   -0.028483  -0.032579   0.580821  -0.004010   0.001962  -0.000059
    10  H   -0.006775   0.007106  -0.004010   0.594115  -0.004450  -0.000263
    11  H   -0.000023   0.000377   0.001962  -0.004450   0.594119  -0.006521
    12  H    0.000031   0.000012  -0.000059  -0.000263  -0.006521   0.568341
    13  H    0.000083  -0.003011   0.000374  -0.000182  -0.003798  -0.029188
    14  H   -0.000035   0.000229  -0.000009  -0.000258   0.007069  -0.032115
    15  H   -0.000058  -0.000056  -0.000284  -0.003798  -0.000182  -0.000077
    16  H   -0.000189   0.002511  -0.000074   0.007068  -0.000258   0.000091
    17  H    0.001981  -0.000137  -0.000043  -0.006521  -0.000263   0.000028
    18  H    0.000019   0.000005  -0.000022  -0.000023  -0.006776   0.001981
    19  H    0.000005   0.000016  -0.000021   0.000377   0.007106  -0.000137
    20  H   -0.000022  -0.000021   0.000008   0.001962  -0.004009  -0.000043
              13         14         15         16         17         18
     1  C   -0.001917   0.000209   0.006832  -0.003996  -0.006106  -0.000273
     2  C   -0.002690  -0.003471  -0.035651  -0.034658  -0.032173   0.007081
     3  C   -0.000266  -0.000626   0.423377   0.414558   0.424537  -0.000101
     4  C   -0.035650  -0.034659  -0.002691  -0.003471   0.005709  -0.035108
     5  C    0.006832  -0.003996  -0.001917   0.000209  -0.000080   0.423426
     6  C    0.423376   0.414559  -0.000267  -0.000626  -0.000087  -0.005186
     7  H    0.000083  -0.000035  -0.000058  -0.000189   0.001981   0.000019
     8  H   -0.003011   0.000229  -0.000056   0.002511  -0.000137   0.000005
     9  H    0.000374  -0.000009  -0.000284  -0.000074  -0.000043  -0.000022
    10  H   -0.000182  -0.000258  -0.003798   0.007068  -0.006521  -0.000023
    11  H   -0.003798   0.007069  -0.000182  -0.000258  -0.000263  -0.006776
    12  H   -0.029188  -0.032115  -0.000077   0.000091   0.000028   0.001981
    13  H    0.576683  -0.032509   0.000033   0.000109  -0.000077  -0.000058
    14  H   -0.032509   0.595926   0.000109  -0.003851   0.000091  -0.000189
    15  H    0.000033   0.000109   0.576683  -0.032509  -0.029187   0.000083
    16  H    0.000109  -0.003851  -0.032509   0.595926  -0.032115  -0.000035
    17  H   -0.000077   0.000091  -0.029187  -0.032115   0.568339   0.000031
    18  H   -0.000058  -0.000189   0.000083  -0.000035   0.000031   0.574395
    19  H   -0.000056   0.002511  -0.003011   0.000229   0.000012  -0.032573
    20  H   -0.000284  -0.000074   0.000373  -0.000009  -0.000059  -0.028482
              19         20
     1  C   -0.000303   0.000194
     2  C   -0.003869  -0.004626
     3  C   -0.001513   0.000062
     4  C   -0.034578  -0.039271
     5  C    0.416331   0.422320
     6  C   -0.004479   0.007122
     7  H    0.000005  -0.000022
     8  H    0.000016  -0.000021
     9  H   -0.000021   0.000008
    10  H    0.000377   0.001962
    11  H    0.007106  -0.004009
    12  H   -0.000137  -0.000043
    13  H   -0.000056  -0.000284
    14  H    0.002511  -0.000074
    15  H   -0.003011   0.000373
    16  H    0.000229  -0.000009
    17  H    0.000012  -0.000059
    18  H   -0.032573  -0.028482
    19  H    0.597368  -0.032580
    20  H   -0.032580   0.580819
 Mulliken charges:
               1
     1  C   -0.308512
     2  C   -0.062351
     3  C   -0.316299
     4  C   -0.062350
     5  C   -0.308513
     6  C   -0.316299
     7  H    0.101805
     8  H    0.089164
     9  H    0.096617
    10  H    0.100169
    11  H    0.100167
    12  H    0.106119
    13  H    0.102199
    14  H    0.091088
    15  H    0.102198
    16  H    0.091089
    17  H    0.106121
    18  H    0.101806
    19  H    0.089164
    20  H    0.096618
 Sum of Mulliken charges =   0.00000
 Mulliken charges with hydrogens summed into heavy atoms:
               1
     1  C   -0.020926
     2  C    0.037818
     3  C   -0.016891
     4  C    0.037817
     5  C   -0.020925
     6  C   -0.016893
 Electronic spatial extent (au):  <R**2>=            729.1588
 Charge=              0.0000 electrons
 Dipole moment (field-independent basis, Debye):
    X=              0.0000    Y=              0.0000    Z=             -0.1309  Tot=              0.1309
 Quadrupole moment (field-independent basis, Debye-Ang):
   XX=            -42.7513   YY=            -42.5962   ZZ=            -42.2896
   XY=              0.3826   XZ=              0.0000   YZ=              0.0000
 Traceless Quadrupole moment (field-independent basis, Debye-Ang):
   XX=             -0.2056   YY=             -0.0504   ZZ=              0.2561
   XY=              0.3826   XZ=              0.0000   YZ=              0.0000
 Octapole moment (field-independent basis, Debye-Ang**2):
  XXX=              0.0001  YYY=             -0.0001  ZZZ=             -1.2173  XYY=              0.0000
  XXY=              0.0000  XXZ=             -0.2899  XZZ=              0.0001  YZZ=              0.0000
  YYZ=             -0.7336  XYZ=             -1.6683
 Hexadecapole moment (field-independent basis, Debye-Ang**3):
 XXXX=           -533.0764 YYYY=           -296.0214 ZZZZ=           -201.9103 XXXY=             12.3272
 XXXZ=              0.0003 YYYX=             -0.7797 YYYZ=             -0.0005 ZZZX=             -0.0001
 ZZZY=              0.0001 XXYY=           -139.3547 XXZZ=           -126.4941 YYZZ=            -82.5178
 XXYZ=              0.0003 YYXZ=             -0.0001 ZZXY=             -2.5324
 N-N= 2.623770182785D+02 E-N=-1.071418031015D+03  KE= 2.350236629005D+02
 1\1\GINC-MEGATRON\SP\RMP2-FC\CC-pVTZ\C6H14\STYLIANAKIS\14-Feb-2016\0\\
 # mp2/cc-pVTZ\\2_3_dimethyl_butane_g_single_pointt\\0,1\C\C,1,1.53801\
 C,2,1.538581,1,110.4\C,2,1.555787,3,114.017,1,127.196,0\C,4,1.538014,2
 ,112.068,3,67.442,0\C,4,1.538576,2,114.018,1,67.442,0\H,1,1.095958,2,1
 10.802,4,172.665,0\H,1,1.096144,2,111.683,4,-67.808,0\H,1,1.096315,2,1
 11.359,4,52.77,0\H,2,1.100677,4,105.785,6,-176.395,0\H,4,1.100678,2,10
 5.785,1,-50.066,0\H,6,1.09594,4,110.364,2,-174.082,0\H,6,1.094874,4,11
 2.247,2,-54.353,0\H,6,1.09616,4,111.546,2,66.807,0\H,3,1.094875,2,112.
 246,1,178.454,0\H,3,1.09616,2,111.546,1,-60.386,0\H,3,1.095939,2,110.3
 64,1,58.725,0\H,5,1.095959,4,110.801,2,172.659,0\H,5,1.096142,4,111.68
 3,2,-67.814,0\H,5,1.096312,4,111.359,2,52.764,0\\Version=EM64L-G09RevD
 .01\State=1-A\HF=-235.4449838\MP2=-236.5198261\RMSD=5.434e-09\PG=C01 [
 X(C6H14)]\\@


 THERE IS NO SCIENCE WITHOUT FANCY, NOR ART WITHOUT FACTS.
     -- VLADIMIR NABAKOV
 Job cpu time:       0 days  0 hours 29 minutes 44.0 seconds.
 File lengths (MBytes):  RWF=     78 Int=      0 D2E=      0 Chk=      7 Scr=      1
 Normal termination of Gaussian 09 at Sun Feb 14 00:09:56 2016.
