 Entering Gaussian System, Link 0=g09
 Input=DiPhEt_g.gjf
 Output=DiPhEt_g.out
 Initial command:
 /usr/local/g09/l1.exe "/home/scratch/stylianakis/Gau-5808.inp" -scrdir="/home/scratch/stylianakis/"
 Entering Link 1 = /usr/local/g09/l1.exe PID=      5809.
  
 Copyright (c) 1988,1990,1992,1993,1995,1998,2003,2009,2013,
            Gaussian, Inc.  All Rights Reserved.
  
 This is part of the Gaussian(R) 09 program.  It is based on
 the Gaussian(R) 03 system (copyright 2003, Gaussian, Inc.),
 the Gaussian(R) 98 system (copyright 1998, Gaussian, Inc.),
 the Gaussian(R) 94 system (copyright 1995, Gaussian, Inc.),
 the Gaussian 92(TM) system (copyright 1992, Gaussian, Inc.),
 the Gaussian 90(TM) system (copyright 1990, Gaussian, Inc.),
 the Gaussian 88(TM) system (copyright 1988, Gaussian, Inc.),
 the Gaussian 86(TM) system (copyright 1986, Carnegie Mellon
 University), and the Gaussian 82(TM) system (copyright 1983,
 Carnegie Mellon University). Gaussian is a federally registered
 trademark of Gaussian, Inc.
  
 This software contains proprietary and confidential information,
 including trade secrets, belonging to Gaussian, Inc.
  
 This software is provided under written license and may be
 used, copied, transmitted, or stored only in accord with that
 written license.
  
 The following legend is applicable only to US Government
 contracts under FAR:
  
                    RESTRICTED RIGHTS LEGEND
  
 Use, reproduction and disclosure by the US Government is
 subject to restrictions as set forth in subparagraphs (a)
 and (c) of the Commercial Computer Software - Restricted
 Rights clause in FAR 52.227-19.
  
 Gaussian, Inc.
 340 Quinnipiac St., Bldg. 40, Wallingford CT 06492
  
  
 ---------------------------------------------------------------
 Warning -- This program may not be used in any manner that
 competes with the business of Gaussian, Inc. or will provide
 assistance to any competitor of Gaussian, Inc.  The licensee
 of this program is prohibited from giving any competitor of
 Gaussian, Inc. access to this program.  By using this program,
 the user acknowledges that Gaussian, Inc. is engaged in the
 business of creating and licensing software in the field of
 computational chemistry and represents and warrants to the
 licensee that it is not a competitor of Gaussian, Inc. and that
 it will not use this program in any manner prohibited above.
 ---------------------------------------------------------------
  

 Cite this work as:
 Gaussian 09, Revision D.01,
 M. J. Frisch, G. W. Trucks, H. B. Schlegel, G. E. Scuseria, 
 M. A. Robb, J. R. Cheeseman, G. Scalmani, V. Barone, B. Mennucci, 
 G. A. Petersson, H. Nakatsuji, M. Caricato, X. Li, H. P. Hratchian, 
 A. F. Izmaylov, J. Bloino, G. Zheng, J. L. Sonnenberg, M. Hada, 
 M. Ehara, K. Toyota, R. Fukuda, J. Hasegawa, M. Ishida, T. Nakajima, 
 Y. Honda, O. Kitao, H. Nakai, T. Vreven, J. A. Montgomery, Jr., 
 J. E. Peralta, F. Ogliaro, M. Bearpark, J. J. Heyd, E. Brothers, 
 K. N. Kudin, V. N. Staroverov, T. Keith, R. Kobayashi, J. Normand, 
 K. Raghavachari, A. Rendell, J. C. Burant, S. S. Iyengar, J. Tomasi, 
 M. Cossi, N. Rega, J. M. Millam, M. Klene, J. E. Knox, J. B. Cross, 
 V. Bakken, C. Adamo, J. Jaramillo, R. Gomperts, R. E. Stratmann, 
 O. Yazyev, A. J. Austin, R. Cammi, C. Pomelli, J. W. Ochterski, 
 R. L. Martin, K. Morokuma, V. G. Zakrzewski, G. A. Voth, 
 P. Salvador, J. J. Dannenberg, S. Dapprich, A. D. Daniels, 
 O. Farkas, J. B. Foresman, J. V. Ortiz, J. Cioslowski, 
 and D. J. Fox, Gaussian, Inc., Wallingford CT, 2013.
 
 ******************************************
 Gaussian 09:  EM64L-G09RevD.01 24-Apr-2013
                14-Feb-2016 
 ******************************************
 %mem=8000Mb
 %nproc=4
 Will use up to    4 processors via shared memory.
 -------------
 # mp2/cc-pVTZ
 -------------
 1/38=1/1;
 2/12=2,17=6,18=5,40=1/2;
 3/5=16,6=1,11=9,16=1,25=1,30=1/1,2,3;
 4//1;
 5/5=2,38=5/2;
 8/10=1/1;
 9/16=-3/6;
 6/7=2,8=2,9=2,10=2/1;
 99/5=1,9=1/99;
 ---------------------
 DiPhEt_g_single_point
 ---------------------
 Symbolic Z-matrix:
 Charge =  0 Multiplicity = 1
 c
 c                    1    cc2
 c                    2    cc3      1    ccc3
 c                    3    cc4      2    ccc4     1    dih4     0
 c                    4    cc5      3    ccc5     2    dih5     0
 c                    5    cc6      4    ccc6     3    dih6     0
 c                    3    cc7      2    ccc7     1    dih7     0
 c                    7    cc8      3    ccc8     2    dih8     0
 c                    8    cc9      7    ccc9     3    dih9     0
 c                    9    cc10     8    ccc10    7    dih10    0
 c                    10   cc11     9    ccc11    8    dih11    0
 c                    11   cc12     10   ccc12    9    dih12    0
 c                    12   cc13     11   ccc13    10   dih13    0
 c                    13   cc14     12   ccc14    11   dih14    0
 h                    7    hc15     8    hcc15    9    dih15    0
 h                    7    hc16     8    hcc16    9    dih16    0
 h                    8    hc17     7    hcc17    3    dih17    0
 h                    8    hc18     7    hcc18    3    dih18    0
 h                    10   hc19     9    hcc19    8    dih19    0
 h                    14   hc20     9    hcc20    8    dih20    0
 h                    11   hc21     10   hcc21    9    dih21    0
 h                    12   hc22     11   hcc22    10   dih22    0
 h                    13   hc23     14   hcc23    9    dih23    0
 h                    2    hc24     3    hcc24    7    dih24    0
 h                    4    hc25     3    hcc25    7    dih25    0
 h                    5    hc26     4    hcc26    3    dih26    0
 h                    6    hc27     5    hcc27    4    dih27    0
 h                    1    hc28     2    hcc28    3    dih28    0
       Variables:
  cc2                   1.39784                  
  cc3                   1.40226                  
  ccc3                120.972                    
  cc4                   1.40388                  
  ccc4                118.203                    
  dih4                 -0.098                    
  cc5                   1.39669                  
  ccc5                121.084                    
  dih5                  0.185                    
  cc6                   1.3982                   
  ccc6                120.075                    
  dih6                 -0.112                    
  cc7                   1.51406                  
  ccc7                121.337                    
  dih7                179.164                    
  cc8                   1.5553                   
  ccc8                114.415                    
  dih8                -97.403                    
  cc9                   1.51406                  
  ccc9                114.415                    
  dih9                 67.435                    
  cc10                  1.40226                  
  ccc10               121.337                    
  dih10               -97.41                     
  cc11                  1.39784                  
  ccc11               120.972                    
  dih11               179.165                    
  cc12                  1.397                    
  ccc12               120.2                      
  dih12                -0.064                    
  cc13                  1.3982                   
  ccc13               119.467                    
  dih13                 0.14                     
  cc14                  1.39669                  
  ccc14               120.075                    
  dih14                -0.053                    
  hc15                  1.09711                  
  hcc15               107.713                    
  dih15              -170.952                    
  hc16                  1.09615                  
  hcc16               108.79                     
  dih16               -55.613                    
  hc17                  1.09711                  
  hcc17               107.713                    
  dih17              -170.952                    
  hc18                  1.09615                  
  hcc18               108.79                     
  dih18               -55.613                    
  hc19                  1.08682                  
  hcc19               119.363                    
  dih19                -0.73                     
  hc20                  1.08804                  
  hcc20               119.394                    
  dih20                 1.369                    
  hc21                  1.08651                  
  hcc21               119.708                    
  dih21               179.887                    
  hc22                  1.08624                  
  hcc22               120.282                    
  dih22               179.807                    
  hc23                  1.0866                   
  hcc23               119.824                    
  dih23              -179.646                    
  hc24                  1.08682                  
  hcc24               119.364                    
  dih24                -0.731                    
  hc25                  1.08804                  
  hcc25               119.394                    
  dih25                 1.37                     
  hc26                  1.0866                   
  hcc26               119.824                    
  dih26              -179.646                    
  hc27                  1.08624                  
  hcc27               120.251                    
  dih27              -179.721                    
  hc28                  1.08651                  
  hcc28               119.708                    
  dih28               179.887                    
 
                          Input orientation:                          
 ---------------------------------------------------------------------
 Center     Atomic      Atomic             Coordinates (Angstroms)
 Number     Number       Type             X           Y           Z
 ---------------------------------------------------------------------
      1          6           0        0.000000    0.000000    0.000000
      2          6           0        0.000000    0.000000    1.397835
      3          6           0        1.202324    0.000000    2.119465
      4          6           0        2.407886   -0.002116    1.400094
      5          6           0        2.414205   -0.000308    0.003419
      6          6           0        1.207429    0.001308   -0.702730
      7          6           0        1.212040    0.018868    3.633379
      8          6           0        1.409178    1.429758    4.257464
      9          6           0        0.253994    2.381690    4.029944
     10          6           0        0.279452    3.324485    2.992246
     11          6           0       -0.798692    4.188081    2.778337
     12          6           0       -1.925748    4.122263    3.601142
     13          6           0       -1.964658    3.188287    4.640921
     14          6           0       -0.883612    2.329234    4.850934
     15          1           0        2.023762   -0.623382    3.997068
     16          1           0        0.277005   -0.408103    4.014110
     17          1           0        1.562194    1.299270    5.335985
     18          1           0        2.331894    1.866595    3.858320
     19          1           0        1.150786    3.381354    2.345155
     20          1           0       -0.919584    1.612160    5.668454
     21          1           0       -0.756382    4.912056    1.969277
     22          1           0       -2.763005    4.794815    3.438073
     23          1           0       -2.832607    3.133926    5.292386
     24          1           0       -0.944386    0.001736    1.935716
     25          1           0        3.352188   -0.012723    1.940472
     26          1           0        3.359293   -0.007827   -0.532727
     27          1           0        1.208999   -0.001853   -1.788965
     28          1           0       -0.943702   -0.001861   -0.538454
 ---------------------------------------------------------------------
                    Distance matrix (angstroms):
                    1          2          3          4          5
     1  C    0.000000
     2  C    1.397835   0.000000
     3  C    2.436743   1.402260   0.000000
     4  C    2.785351   2.407888   1.403880   0.000000
     5  C    2.414208   2.787971   2.438505   1.396690   0.000000
     6  C    1.397039   2.422862   2.822200   2.421358   1.398198
     7  C    3.830253   2.543040   1.514063   2.533387   3.823896
     8  C    4.707015   3.493919   2.580317   3.348470   4.599138
     9  C    4.688007   3.558786   3.197141   4.151854   5.152992
    10  C    4.481499   3.697627   3.558882   4.258105   4.954242
    11  C    5.088918   4.481486   4.688091   5.453389   5.963680
    12  C    5.802567   5.055306   5.382681   6.374598   6.983867
    13  C    5.963489   4.954055   5.152930   6.308786   7.130779
    14  C    5.453225   4.257933   4.151793   5.308244   6.308785
    15  H    4.523359   3.352646   2.142139   2.697740   4.060776
    16  H    4.044300   2.662363   2.147660   3.396846   4.562846
    17  H    5.709754   4.431431   3.487637   4.230844   5.554376
    18  H    4.879400   3.869870   2.789932   3.088808   4.283966
    19  H    4.272893   3.695305   3.389269   3.731127   4.302975
    20  H    5.964567   4.656488   4.438116   5.647729   6.768073
    21  H    5.345882   5.002694   5.290310   5.872448   6.168350
    22  H    6.514967   5.898052   6.360252   7.341799   7.848156
    23  H    6.771595   5.745666   6.014116   7.242063   8.082428
    24  H    2.153803   1.086823   2.154561   3.394795   3.874779
    25  H    3.873339   3.395847   2.157339   1.088038   2.152240
    26  H    3.401280   3.874530   3.418581   2.154299   1.086600
    27  H    2.159185   3.408428   3.908436   3.406967   2.159900
    28  H    1.086513   2.154018   3.416133   3.871836   3.401349
                    6          7          8          9         10
     6  C    0.000000
     7  C    4.336147   0.000000
     8  C    5.165724   1.555299   0.000000
     9  C    5.382700   2.580318   1.514064   0.000000
    10  C    5.055442   3.493977   2.543040   1.402258   0.000000
    11  C    5.802708   4.707066   3.830255   2.436743   1.397837
    12  C    6.732190   5.165714   4.336135   2.822187   2.422831
    13  C    6.983808   4.599105   3.823902   2.438505   2.787958
    14  C    6.374549   3.348431   2.533406   1.403896   2.407896
    15  H    4.810898   1.097109   2.158913   3.487638   4.431472
    16  H    4.825131   1.096153   2.172273   2.789933   3.869940
    17  H    6.186812   2.158913   1.097109   2.142140   3.352617
    18  H    5.054393   2.172272   1.096152   2.147661   2.662339
    19  H    4.551650   3.601331   2.744526   2.154548   1.086823
    20  H    6.907316   3.350213   2.728973   2.157354   3.395855
    21  H    5.925506   5.530570   4.695940   3.416132   2.154019
    22  H    7.475848   6.216815   5.422372   3.908422   3.408397
    23  H    7.878871   5.367966   4.687003   3.418586   3.874515
    24  H    3.404660   2.744545   3.601253   3.389113   3.695227
    25  H    3.403925   2.728949   3.350297   4.438233   4.656704
    26  H    2.158588   4.686987   5.368011   6.014203   5.745882
    27  H    1.086241   5.422385   6.216823   6.360268   5.898183
    28  H    2.157398   4.695939   5.530498   5.290185   5.002652
                   11         12         13         14         15
    11  C    0.000000
    12  C    1.396995   0.000000
    13  C    2.414184   1.398201   0.000000
    14  C    2.785351   2.421359   1.396688   0.000000
    15  H    5.709792   6.186803   5.554355   4.230822   0.000000
    16  H    4.879464   5.054392   4.283920   3.088741   1.760056
    17  H    4.523336   4.810894   4.060810   2.697789   2.387956
    18  H    4.044283   4.825111   4.562860   3.396881   2.512804
    19  H    2.153815   3.404631   3.874766   3.394799   4.419142
    20  H    3.873339   3.403933   2.152249   1.088038   4.056410
    21  H    1.086512   2.157353   3.401322   3.871835   6.517838
    22  H    2.159144   1.086240   2.159893   3.406961   7.251377
    23  H    3.401249   2.158589   1.086599   2.154296   6.275312
    24  H    4.272789   4.551424   4.302696   3.730876   3.667404
    25  H    5.964778   6.907426   6.768141   5.647792   2.523332
    26  H    6.771826   7.878971   8.082465   7.242093   4.762520
    27  H    6.515107   7.475843   7.848091   7.341747   5.876080
    28  H    5.345816   5.925291   6.168089   5.872233   5.455556
                   16         17         18         19         20
    16  H    0.000000
    17  H    2.512804   0.000000
    18  H    3.069380   1.760055   0.000000
    19  H    4.231890   3.667342   2.445236   0.000000
    20  H    2.872306   2.523421   3.730071   4.296602   0.000000
    21  H    5.792523   5.455524   4.730831   2.474191   4.959824
    22  H    6.053416   5.876074   5.891441   4.302336   4.301406
    23  H    4.883611   4.762577   5.507699   4.961332   2.473228
    24  H    2.445299   4.419091   4.231798   3.997400   4.065392
    25  H    3.730020   4.056466   2.872451   4.065673   5.897976
    26  H    5.507672   6.275337   4.883677   4.964500   7.706347
    27  H    5.891464   7.251385   6.053414   5.342324   7.921427
    28  H    4.730857   6.517783   5.792433   4.914085   6.413373
                   21         22         23         24         25
    21  H    0.000000
    22  H    2.489506   0.000000
    23  H    4.302965   2.490356   0.000000
    24  H    4.914032   5.342102   4.964194   0.000000
    25  H    6.413628   7.921541   7.706388   4.296601   0.000000
    26  H    6.885060   8.735854   9.063233   4.961346   2.473214
    27  H    6.491040   8.130607   8.735744   4.302364   4.301404
    28  H    5.519999   6.490819   6.884752   2.474173   4.959825
                   26         27         28
    26  H    0.000000
    27  H    2.490368   0.000000
    28  H    4.303003   2.489559   0.000000
 Stoichiometry    C14H14
 Framework group  C1[X(C14H14)]
 Deg. of freedom    78
 Full point group                 C1      NOp   1
 Largest Abelian subgroup         C1      NOp   1
 Largest concise Abelian subgroup C1      NOp   1
                         Standard orientation:                         
 ---------------------------------------------------------------------
 Center     Atomic      Atomic             Coordinates (Angstroms)
 Number     Number       Type             X           Y           Z
 ---------------------------------------------------------------------
      1          6           0       -2.347629   -1.489272   -0.981089
      2          6           0       -1.452622   -0.427904   -1.143577
      3          6           0       -1.557371    0.730687   -0.360617
      4          6           0       -2.587575    0.797640    0.590738
      5          6           0       -3.483721   -0.260373    0.758883
      6          6           0       -3.365982   -1.410129   -0.027983
      7          6           0       -0.581178    1.877453   -0.516704
      8          6           0        0.581143    1.877455    0.516721
      9          6           0        1.557357    0.730709    0.360617
     10          6           0        1.452716   -0.427834    1.143660
     11          6           0        2.347754   -1.489178    0.981171
     12          6           0        3.365976   -1.410083    0.027985
     13          6           0        3.483640   -0.260380   -0.758974
     14          6           0        2.587494    0.797632   -0.590836
     15          1           0       -1.120480    2.827159   -0.412498
     16          1           0       -0.155558    1.865338   -1.526779
     17          1           0        1.120428    2.827173    0.412530
     18          1           0        0.155524    1.865319    1.526796
     19          1           0        0.662124   -0.499751    1.885939
     20          1           0        2.693009    1.691825   -1.201666
     21          1           0        2.248853   -2.376536    1.600301
     22          1           0        4.064145   -2.232757   -0.097250
     23          1           0        4.276957   -0.184444   -1.497607
     24          1           0       -0.661975   -0.499855   -1.885794
     25          1           0       -2.693172    1.691873    1.201494
     26          1           0       -4.277095   -0.184396    1.497452
     27          1           0       -4.064134   -2.232818    0.097256
     28          1           0       -2.248643   -2.376668   -1.600154
 ---------------------------------------------------------------------
 Rotational constants (GHZ):      1.3247142      0.4273423      0.3765433
 Standard basis: CC-pVTZ (5D, 7F)
 There are   700 symmetry adapted cartesian basis functions of A   symmetry.
 There are   616 symmetry adapted basis functions of A   symmetry.
   616 basis functions,   966 primitive gaussians,   700 cartesian basis functions
    49 alpha electrons       49 beta electrons
       nuclear repulsion energy       797.5012206401 Hartrees.
 NAtoms=   28 NActive=   28 NUniq=   28 SFac= 1.00D+00 NAtFMM=   60 NAOKFM=F Big=F
 Integral buffers will be    131072 words long.
 Raffenetti 1 integral format.
 Two-electron integral symmetry is turned on.
 One-electron integrals computed using PRISM.
 NBasis=   616 RedAO= T EigKep=  3.02D-05  NBF=   616
 NBsUse=   616 1.00D-06 EigRej= -1.00D+00 NBFU=   616
 ExpMin= 1.03D-01 ExpMax= 8.24D+03 ExpMxC= 2.81D+02 IAcc=1 IRadAn=         1 AccDes= 0.00D+00
 Harris functional with IExCor=  205 and IRadAn=       1 diagonalized for initial guess.
 HarFok:  IExCor=  205 AccDes= 0.00D+00 IRadAn=         1 IDoV= 1 UseB2=F ITyADJ=14
 ICtDFT=  3500011 ScaDFX=  1.000000  1.000000  1.000000  1.000000
 FoFCou: FMM=F IPFlag=           0 FMFlag=      100000 FMFlg1=           0
         NFxFlg=           0 DoJE=T BraDBF=F KetDBF=T FulRan=T
         wScrn=  0.000000 ICntrl=     500 IOpCl=  0 I1Cent=   200000004 NGrid=           0
         NMat0=    1 NMatS0=      1 NMatT0=    0 NMatD0=    1 NMtDS0=    0 NMtDT0=    0
 Petite list used in FoFCou.
 Requested convergence on RMS density matrix=1.00D-08 within 128 cycles.
 Requested convergence on MAX density matrix=1.00D-06.
 Requested convergence on             energy=1.00D-06.
 No special actions if energy rises.
 Integral accuracy reduced to 1.0D-05 until final iterations.
 Initial convergence to 1.0D-05 achieved.  Increase integral accuracy.
 SCF Done:  E(RHF) =  -538.488824236     A.U. after   13 cycles
            NFock= 13  Conv=0.93D-08     -V/T= 2.0018
 ExpMin= 1.03D-01 ExpMax= 8.24D+03 ExpMxC= 2.81D+02 IAcc=3 IRadAn=         5 AccDes= 0.00D+00
 HarFok:  IExCor=  205 AccDes= 0.00D+00 IRadAn=         5 IDoV=-2 UseB2=F ITyADJ=14
 ICtDFT= 12500011 ScaDFX=  1.000000  1.000000  1.000000  1.000000
 Range of M.O.s used for correlation:    15   616
 NBasis=   616 NAE=    49 NBE=    49 NFC=    14 NFV=     0
 NROrb=    602 NOA=    35 NOB=    35 NVA=   567 NVB=   567

 **** Warning!!: The largest alpha MO coefficient is  0.27617118D+02

 Fully direct method using O(OVN) memory.
 JobTyp=1 Pass  1:  I=   1 to  32 NPSUse=  4 ParTrn=T ParDer=T DoDerP=F.
 JobTyp=1 Pass  2:  I=  33 to  35 NPSUse=  4 ParTrn=T ParDer=T DoDerP=F.
 Spin components of T(2) and E(2):
     alpha-alpha T2 =       0.1065244060D+00 E2=     -0.2821742873D+00
     alpha-beta  T2 =       0.5610892268D+00 E2=     -0.1677401464D+01
     beta-beta   T2 =       0.1065244060D+00 E2=     -0.2821742873D+00
 ANorm=    0.1331967732D+01
 E2 =    -0.2241750039D+01 EUMP2 =    -0.54073057427504D+03

 **********************************************************************

            Population analysis using the SCF density.

 **********************************************************************

 Orbital symmetries:
       Occupied  (A) (A) (A) (A) (A) (A) (A) (A) (A) (A) (A) (A)
                 (A) (A) (A) (A) (A) (A) (A) (A) (A) (A) (A) (A)
                 (A) (A) (A) (A) (A) (A) (A) (A) (A) (A) (A) (A)
                 (A) (A) (A) (A) (A) (A) (A) (A) (A) (A) (A) (A)
                 (A)
       Virtual   (A) (A) (A) (A) (A) (A) (A) (A) (A) (A) (A) (A)
                 (A) (A) (A) (A) (A) (A) (A) (A) (A) (A) (A) (A)
                 (A) (A) (A) (A) (A) (A) (A) (A) (A) (A) (A) (A)
                 (A) (A) (A) (A) (A) (A) (A) (A) (A) (A) (A) (A)
                 (A) (A) (A) (A) (A) (A) (A) (A) (A) (A) (A) (A)
                 (A) (A) (A) (A) (A) (A) (A) (A) (A) (A) (A) (A)
                 (A) (A) (A) (A) (A) (A) (A) (A) (A) (A) (A) (A)
                 (A) (A) (A) (A) (A) (A) (A) (A) (A) (A) (A) (A)
                 (A) (A) (A) (A) (A) (A) (A) (A) (A) (A) (A) (A)
                 (A) (A) (A) (A) (A) (A) (A) (A) (A) (A) (A) (A)
                 (A) (A) (A) (A) (A) (A) (A) (A) (A) (A) (A) (A)
                 (A) (A) (A) (A) (A) (A) (A) (A) (A) (A) (A) (A)
                 (A) (A) (A) (A) (A) (A) (A) (A) (A) (A) (A) (A)
                 (A) (A) (A) (A) (A) (A) (A) (A) (A) (A) (A) (A)
                 (A) (A) (A) (A) (A) (A) (A) (A) (A) (A) (A) (A)
                 (A) (A) (A) (A) (A) (A) (A) (A) (A) (A) (A) (A)
                 (A) (A) (A) (A) (A) (A) (A) (A) (A) (A) (A) (A)
                 (A) (A) (A) (A) (A) (A) (A) (A) (A) (A) (A) (A)
                 (A) (A) (A) (A) (A) (A) (A) (A) (A) (A) (A) (A)
                 (A) (A) (A) (A) (A) (A) (A) (A) (A) (A) (A) (A)
                 (A) (A) (A) (A) (A) (A) (A) (A) (A) (A) (A) (A)
                 (A) (A) (A) (A) (A) (A) (A) (A) (A) (A) (A) (A)
                 (A) (A) (A) (A) (A) (A) (A) (A) (A) (A) (A) (A)
                 (A) (A) (A) (A) (A) (A) (A) (A) (A) (A) (A) (A)
                 (A) (A) (A) (A) (A) (A) (A) (A) (A) (A) (A) (A)
                 (A) (A) (A) (A) (A) (A) (A) (A) (A) (A) (A) (A)
                 (A) (A) (A) (A) (A) (A) (A) (A) (A) (A) (A) (A)
                 (A) (A) (A) (A) (A) (A) (A) (A) (A) (A) (A) (A)
                 (A) (A) (A) (A) (A) (A) (A) (A) (A) (A) (A) (A)
                 (A) (A) (A) (A) (A) (A) (A) (A) (A) (A) (A) (A)
                 (A) (A) (A) (A) (A) (A) (A) (A) (A) (A) (A) (A)
                 (A) (A) (A) (A) (A) (A) (A) (A) (A) (A) (A) (A)
                 (A) (A) (A) (A) (A) (A) (A) (A) (A) (A) (A) (A)
                 (A) (A) (A) (A) (A) (A) (A) (A) (A) (A) (A) (A)
                 (A) (A) (A) (A) (A) (A) (A) (A) (A) (A) (A) (A)
                 (A) (A) (A) (A) (A) (A) (A) (A) (A) (A) (A) (A)
                 (A) (A) (A) (A) (A) (A) (A) (A) (A) (A) (A) (A)
                 (A) (A) (A) (A) (A) (A) (A) (A) (A) (A) (A) (A)
                 (A) (A) (A) (A) (A) (A) (A) (A) (A) (A) (A) (A)
                 (A) (A) (A) (A) (A) (A) (A) (A) (A) (A) (A) (A)
                 (A) (A) (A) (A) (A) (A) (A) (A) (A) (A) (A) (A)
                 (A) (A) (A) (A) (A) (A) (A) (A) (A) (A) (A) (A)
                 (A) (A) (A) (A) (A) (A) (A) (A) (A) (A) (A) (A)
                 (A) (A) (A) (A) (A) (A) (A) (A) (A) (A) (A) (A)
                 (A) (A) (A) (A) (A) (A) (A) (A) (A) (A) (A) (A)
                 (A) (A) (A) (A) (A) (A) (A) (A) (A) (A) (A) (A)
                 (A) (A) (A) (A) (A) (A) (A) (A) (A) (A) (A) (A)
                 (A) (A) (A)
 The electronic state is 1-A.
 Alpha  occ. eigenvalues --  -11.23791 -11.23791 -11.23280 -11.23260 -11.23260
 Alpha  occ. eigenvalues --  -11.23225 -11.23138 -11.23138 -11.22922 -11.22922
 Alpha  occ. eigenvalues --  -11.22900 -11.22900 -11.22717 -11.22717  -1.15250
 Alpha  occ. eigenvalues --   -1.14359  -1.07119  -1.02199  -1.00700  -1.00677
 Alpha  occ. eigenvalues --   -0.96281  -0.87301  -0.82201  -0.82065  -0.80025
 Alpha  occ. eigenvalues --   -0.77541  -0.69181  -0.68542  -0.64337  -0.63868
 Alpha  occ. eigenvalues --   -0.62274  -0.62130  -0.58741  -0.58141  -0.57829
 Alpha  occ. eigenvalues --   -0.57187  -0.55669  -0.53271  -0.51370  -0.49382
 Alpha  occ. eigenvalues --   -0.48927  -0.48391  -0.47682  -0.47075  -0.46676
 Alpha  occ. eigenvalues --   -0.33441  -0.33102  -0.32282  -0.31842
 Alpha virt. eigenvalues --    0.12190   0.12746   0.12780   0.13104   0.14497
 Alpha virt. eigenvalues --    0.15317   0.16252   0.16392   0.17747   0.18468
 Alpha virt. eigenvalues --    0.19253   0.19421   0.20632   0.21330   0.22392
 Alpha virt. eigenvalues --    0.22675   0.25682   0.26572   0.29994   0.32498
 Alpha virt. eigenvalues --    0.32558   0.33495   0.35071   0.36384   0.36833
 Alpha virt. eigenvalues --    0.37419   0.38600   0.39347   0.39522   0.40221
 Alpha virt. eigenvalues --    0.40769   0.43211   0.43570   0.44879   0.45005
 Alpha virt. eigenvalues --    0.47272   0.47307   0.48031   0.48234   0.48803
 Alpha virt. eigenvalues --    0.49952   0.50728   0.52281   0.52413   0.52834
 Alpha virt. eigenvalues --    0.53067   0.54548   0.54799   0.55334   0.55611
 Alpha virt. eigenvalues --    0.56407   0.56803   0.57614   0.58665   0.59028
 Alpha virt. eigenvalues --    0.59459   0.59779   0.59987   0.60287   0.60820
 Alpha virt. eigenvalues --    0.61597   0.61822   0.62273   0.62978   0.63560
 Alpha virt. eigenvalues --    0.63897   0.64534   0.65651   0.65871   0.66585
 Alpha virt. eigenvalues --    0.66668   0.67880   0.68088   0.69740   0.69863
 Alpha virt. eigenvalues --    0.71720   0.72133   0.72972   0.73636   0.74414
 Alpha virt. eigenvalues --    0.74602   0.74700   0.75378   0.75821   0.78383
 Alpha virt. eigenvalues --    0.79738   0.81596   0.83238   0.83728   0.84709
 Alpha virt. eigenvalues --    0.86354   0.86600   0.88330   0.88852   0.90506
 Alpha virt. eigenvalues --    0.91546   0.92360   0.92460   0.93023   0.93192
 Alpha virt. eigenvalues --    0.93428   0.96192   0.96585   0.96806   0.98487
 Alpha virt. eigenvalues --    0.99543   1.00140   1.01376   1.01824   1.01912
 Alpha virt. eigenvalues --    1.03040   1.03986   1.04746   1.06541   1.07790
 Alpha virt. eigenvalues --    1.08664   1.09103   1.09802   1.11437   1.13401
 Alpha virt. eigenvalues --    1.14228   1.15424   1.16517   1.17214   1.19081
 Alpha virt. eigenvalues --    1.19340   1.20451   1.21566   1.21708   1.21709
 Alpha virt. eigenvalues --    1.24161   1.24247   1.25767   1.25990   1.27129
 Alpha virt. eigenvalues --    1.27183   1.29478   1.29816   1.31944   1.32278
 Alpha virt. eigenvalues --    1.32961   1.34703   1.34903   1.35637   1.37274
 Alpha virt. eigenvalues --    1.37289   1.38133   1.39373   1.40252   1.40590
 Alpha virt. eigenvalues --    1.40990   1.42084   1.42208   1.44353   1.44770
 Alpha virt. eigenvalues --    1.45819   1.47948   1.48094   1.49377   1.50702
 Alpha virt. eigenvalues --    1.50930   1.51293   1.52114   1.52906   1.54667
 Alpha virt. eigenvalues --    1.55420   1.56234   1.56287   1.56864   1.58129
 Alpha virt. eigenvalues --    1.58410   1.58916   1.59175   1.59965   1.61181
 Alpha virt. eigenvalues --    1.61561   1.62676   1.63228   1.64160   1.64589
 Alpha virt. eigenvalues --    1.65621   1.66005   1.66266   1.67976   1.69002
 Alpha virt. eigenvalues --    1.70515   1.71085   1.73869   1.73942   1.76200
 Alpha virt. eigenvalues --    1.78080   1.79418   1.80101   1.80357   1.81343
 Alpha virt. eigenvalues --    1.83756   1.84830   1.86241   1.87012   1.91145
 Alpha virt. eigenvalues --    1.92895   1.93695   1.97880   2.02820   2.02966
 Alpha virt. eigenvalues --    2.11283   2.12236   2.19351   2.19801   2.20492
 Alpha virt. eigenvalues --    2.20953   2.26346   2.29984   2.32283   2.35668
 Alpha virt. eigenvalues --    2.35987   2.37466   2.37498   2.42024   2.44778
 Alpha virt. eigenvalues --    2.45283   2.45954   2.46277   2.46699   2.48637
 Alpha virt. eigenvalues --    2.49514   2.52502   2.53659   2.56253   2.56998
 Alpha virt. eigenvalues --    2.57037   2.60717   2.61841   2.63123   2.66570
 Alpha virt. eigenvalues --    2.66685   2.69119   2.69832   2.71871   2.72717
 Alpha virt. eigenvalues --    2.76217   2.76512   2.76873   2.77567   2.77798
 Alpha virt. eigenvalues --    2.78142   2.80105   2.80619   2.80783   2.82344
 Alpha virt. eigenvalues --    2.82683   2.83805   2.84523   2.86521   2.87025
 Alpha virt. eigenvalues --    2.89248   2.91023   2.92134   2.92576   2.93826
 Alpha virt. eigenvalues --    2.93887   2.97854   2.98623   2.99393   2.99517
 Alpha virt. eigenvalues --    2.99625   3.00985   3.01097   3.02094   3.02193
 Alpha virt. eigenvalues --    3.02414   3.03173   3.03440   3.04273   3.05456
 Alpha virt. eigenvalues --    3.06098   3.07498   3.07555   3.07933   3.09062
 Alpha virt. eigenvalues --    3.11413   3.12297   3.12700   3.13831   3.15879
 Alpha virt. eigenvalues --    3.15980   3.16658   3.17237   3.18822   3.20556
 Alpha virt. eigenvalues --    3.21154   3.23106   3.23707   3.23899   3.24042
 Alpha virt. eigenvalues --    3.26203   3.27437   3.28913   3.28953   3.29628
 Alpha virt. eigenvalues --    3.30016   3.31794   3.31835   3.32998   3.33168
 Alpha virt. eigenvalues --    3.33479   3.34121   3.34641   3.35485   3.35636
 Alpha virt. eigenvalues --    3.37044   3.37329   3.38521   3.38914   3.39172
 Alpha virt. eigenvalues --    3.39827   3.40068   3.40224   3.41293   3.42013
 Alpha virt. eigenvalues --    3.42440   3.43070   3.43166   3.44534   3.44684
 Alpha virt. eigenvalues --    3.45232   3.45601   3.47181   3.48252   3.49039
 Alpha virt. eigenvalues --    3.49111   3.50138   3.52679   3.53074   3.54023
 Alpha virt. eigenvalues --    3.54280   3.55600   3.57004   3.57981   3.59231
 Alpha virt. eigenvalues --    3.60381   3.61455   3.61797   3.63555   3.64101
 Alpha virt. eigenvalues --    3.64249   3.65737   3.65938   3.66692   3.67567
 Alpha virt. eigenvalues --    3.68484   3.68486   3.69639   3.70503   3.71216
 Alpha virt. eigenvalues --    3.71466   3.71511   3.72105   3.73112   3.73715
 Alpha virt. eigenvalues --    3.74172   3.75248   3.76093   3.78376   3.78619
 Alpha virt. eigenvalues --    3.78990   3.80324   3.81748   3.83954   3.84271
 Alpha virt. eigenvalues --    3.86785   3.86810   3.87074   3.90791   3.91872
 Alpha virt. eigenvalues --    3.93038   3.93717   3.97332   3.97681   3.99309
 Alpha virt. eigenvalues --    4.01516   4.01605   4.02642   4.02701   4.04612
 Alpha virt. eigenvalues --    4.06290   4.06506   4.07908   4.08286   4.08380
 Alpha virt. eigenvalues --    4.08671   4.09704   4.10632   4.11259   4.11949
 Alpha virt. eigenvalues --    4.12436   4.12469   4.13424   4.14375   4.15221
 Alpha virt. eigenvalues --    4.15566   4.16037   4.16483   4.16536   4.16696
 Alpha virt. eigenvalues --    4.17786   4.19660   4.19979   4.21760   4.21826
 Alpha virt. eigenvalues --    4.22508   4.23703   4.24245   4.26433   4.26804
 Alpha virt. eigenvalues --    4.27951   4.28700   4.29782   4.30478   4.32456
 Alpha virt. eigenvalues --    4.32461   4.35538   4.37185   4.37251   4.38162
 Alpha virt. eigenvalues --    4.40115   4.40512   4.40598   4.41615   4.41769
 Alpha virt. eigenvalues --    4.42470   4.45015   4.45346   4.46619   4.46783
 Alpha virt. eigenvalues --    4.47791   4.48858   4.50278   4.51484   4.52912
 Alpha virt. eigenvalues --    4.53179   4.54321   4.55149   4.57117   4.57250
 Alpha virt. eigenvalues --    4.57808   4.58004   4.59400   4.59498   4.61084
 Alpha virt. eigenvalues --    4.61543   4.62407   4.63241   4.64578   4.65877
 Alpha virt. eigenvalues --    4.65953   4.66501   4.67236   4.67757   4.67795
 Alpha virt. eigenvalues --    4.68528   4.69505   4.70224   4.70930   4.70936
 Alpha virt. eigenvalues --    4.73552   4.74404   4.75590   4.79217   4.81739
 Alpha virt. eigenvalues --    4.85597   4.87214   4.87964   4.88805   4.91771
 Alpha virt. eigenvalues --    4.92306   4.97794   4.98434   4.99597   5.02805
 Alpha virt. eigenvalues --    5.03520   5.03983   5.04957   5.05006   5.06346
 Alpha virt. eigenvalues --    5.06990   5.10155   5.11117   5.11826   5.12075
 Alpha virt. eigenvalues --    5.13210   5.15035   5.16691   5.17693   5.17859
 Alpha virt. eigenvalues --    5.19250   5.22374   5.26651   5.27268   5.30322
 Alpha virt. eigenvalues --    5.31351   5.32367   5.34595   5.35530   5.36038
 Alpha virt. eigenvalues --    5.36624   5.36689   5.38272   5.38967   5.39926
 Alpha virt. eigenvalues --    5.43446   5.44098   5.45841   5.48516   5.51996
 Alpha virt. eigenvalues --    5.52874   5.53158   5.54739   5.55447   5.59004
 Alpha virt. eigenvalues --    5.66106   5.66797   5.68078   5.71711   5.72597
 Alpha virt. eigenvalues --    5.74716   5.77042   5.82221   5.83813   5.84326
 Alpha virt. eigenvalues --    5.91720   5.92468   5.96445   6.04562   6.06689
 Alpha virt. eigenvalues --    6.07429   6.09018   6.10772   6.12105   6.30935
 Alpha virt. eigenvalues --    6.32816   6.35095   6.36614   6.41565   6.42823
 Alpha virt. eigenvalues --    6.47383   6.47452   6.49542   6.50768   6.77894
 Alpha virt. eigenvalues --    6.78248   7.19654   7.20462   9.29688   9.48262
 Alpha virt. eigenvalues --   12.71677  12.83390  13.16643  13.24537  13.39519
 Alpha virt. eigenvalues --   13.40235  13.63445  13.89208  13.94442  14.07940
 Alpha virt. eigenvalues --   16.06409  16.15107
          Condensed to atoms (all electrons):
               1          2          3          4          5          6
     1  C    4.913429   0.515566  -0.069214  -0.020756  -0.071164   0.510582
     2  C    0.515566   4.956021   0.488547  -0.043379  -0.022633  -0.056167
     3  C   -0.069214   0.488547   4.961344   0.495540  -0.075029  -0.022253
     4  C   -0.020756  -0.043379   0.495540   4.958414   0.529636  -0.061670
     5  C   -0.071164  -0.022633  -0.075029   0.529636   4.910151   0.510805
     6  C    0.510582  -0.056167  -0.022253  -0.061670   0.510805   4.932439
     7  C    0.004589  -0.047694   0.351240  -0.055237   0.003681  -0.001091
     8  C   -0.000031  -0.001024  -0.046337  -0.003366   0.000021   0.000007
     9  C    0.000361  -0.000602   0.004316   0.000372   0.000067   0.000038
    10  C    0.000815  -0.009326  -0.000603  -0.000299   0.000126  -0.000319
    11  C    0.000469   0.000815   0.000360  -0.000168  -0.000020  -0.000054
    12  C   -0.000054  -0.000319   0.000038   0.000015   0.000002   0.000001
    13  C   -0.000020   0.000126   0.000067  -0.000012  -0.000002   0.000002
    14  C   -0.000168  -0.000300   0.000372  -0.000014  -0.000012   0.000015
    15  H   -0.000199   0.004938  -0.039309  -0.007077   0.000052   0.000025
    16  H    0.000078  -0.006127  -0.036482   0.005615  -0.000097  -0.000022
    17  H    0.000014  -0.000326   0.007160   0.000266   0.000012  -0.000003
    18  H   -0.000117   0.000924   0.000006   0.000603   0.000112  -0.000024
    19  H   -0.000383  -0.001495   0.000429   0.001280   0.000611   0.000041
    20  H   -0.000001  -0.000042   0.000168   0.000006   0.000000   0.000000
    21  H    0.000039   0.000053  -0.000010  -0.000017  -0.000005   0.000002
    22  H   -0.000001  -0.000002   0.000001   0.000000   0.000000   0.000000
    23  H    0.000000   0.000004  -0.000004   0.000000   0.000000   0.000000
    24  H   -0.044145   0.434885  -0.046646   0.005341  -0.001097   0.005805
    25  H   -0.000975   0.005084  -0.048072   0.432934  -0.042034   0.005419
    26  H    0.004808  -0.000812   0.005815  -0.044668   0.435599  -0.042747
    27  H   -0.041433   0.004262  -0.000203   0.004349  -0.041622   0.434410
    28  H    0.436099  -0.044330   0.005936  -0.000826   0.004974  -0.043784
               7          8          9         10         11         12
     1  C    0.004589  -0.000031   0.000361   0.000815   0.000469  -0.000054
     2  C   -0.047694  -0.001024  -0.000602  -0.009326   0.000815  -0.000319
     3  C    0.351240  -0.046337   0.004316  -0.000603   0.000360   0.000038
     4  C   -0.055237  -0.003366   0.000372  -0.000299  -0.000168   0.000015
     5  C    0.003681   0.000021   0.000067   0.000126  -0.000020   0.000002
     6  C   -0.001091   0.000007   0.000038  -0.000319  -0.000054   0.000001
     7  C    4.894144   0.335017  -0.046336  -0.001024  -0.000031   0.000007
     8  C    0.335017   4.894140   0.351240  -0.047696   0.004589  -0.001091
     9  C   -0.046336   0.351240   4.961359   0.488557  -0.069216  -0.022252
    10  C   -0.001024  -0.047696   0.488557   4.956020   0.515556  -0.056169
    11  C   -0.000031   0.004589  -0.069216   0.515556   4.913423   0.510593
    12  C    0.000007  -0.001091  -0.022252  -0.056169   0.510593   4.932438
    13  C    0.000021   0.003681  -0.075030  -0.022633  -0.071167   0.510792
    14  C   -0.003367  -0.055235   0.495532  -0.043381  -0.020753  -0.061670
    15  H    0.438388  -0.045441   0.007160  -0.000326   0.000014  -0.000003
    16  H    0.428648  -0.036383   0.000006   0.000924  -0.000117  -0.000024
    17  H   -0.045443   0.438386  -0.039308   0.004938  -0.000199   0.000025
    18  H   -0.036380   0.428646  -0.036482  -0.006126   0.000077  -0.000022
    19  H   -0.000436  -0.002998  -0.046646   0.434885  -0.044144   0.005805
    20  H   -0.000626  -0.001619  -0.048069   0.005084  -0.000975   0.005419
    21  H    0.000017  -0.000172   0.005937  -0.044330   0.436102  -0.043790
    22  H   -0.000001   0.000057  -0.000204   0.004263  -0.041439   0.434413
    23  H    0.000025  -0.000211   0.005815  -0.000812   0.004808  -0.042747
    24  H   -0.002997  -0.000437   0.000428  -0.001496  -0.000383   0.000041
    25  H   -0.001620  -0.000626   0.000168  -0.000042  -0.000001   0.000000
    26  H   -0.000211   0.000025  -0.000004   0.000004   0.000000   0.000000
    27  H    0.000057  -0.000001   0.000001  -0.000002  -0.000001   0.000000
    28  H   -0.000172   0.000017  -0.000010   0.000053   0.000039   0.000002
              13         14         15         16         17         18
     1  C   -0.000020  -0.000168  -0.000199   0.000078   0.000014  -0.000117
     2  C    0.000126  -0.000300   0.004938  -0.006127  -0.000326   0.000924
     3  C    0.000067   0.000372  -0.039309  -0.036482   0.007160   0.000006
     4  C   -0.000012  -0.000014  -0.007077   0.005615   0.000266   0.000603
     5  C   -0.000002  -0.000012   0.000052  -0.000097   0.000012   0.000112
     6  C    0.000002   0.000015   0.000025  -0.000022  -0.000003  -0.000024
     7  C    0.000021  -0.003367   0.438388   0.428648  -0.045443  -0.036380
     8  C    0.003681  -0.055235  -0.045441  -0.036383   0.438386   0.428646
     9  C   -0.075030   0.495532   0.007160   0.000006  -0.039308  -0.036482
    10  C   -0.022633  -0.043381  -0.000326   0.000924   0.004938  -0.006126
    11  C   -0.071167  -0.020753   0.000014  -0.000117  -0.000199   0.000077
    12  C    0.510792  -0.061670  -0.000003  -0.000024   0.000025  -0.000022
    13  C    4.910157   0.529648   0.000012   0.000112   0.000052  -0.000097
    14  C    0.529648   4.958414   0.000266   0.000602  -0.007077   0.005615
    15  H    0.000012   0.000266   0.556636  -0.027005  -0.004596  -0.002977
    16  H    0.000112   0.000602  -0.027005   0.556918  -0.002976   0.005116
    17  H    0.000052  -0.007077  -0.004596  -0.002976   0.556636  -0.027005
    18  H   -0.000097   0.005615  -0.002977   0.005116  -0.027005   0.556918
    19  H   -0.001096   0.005341  -0.000053   0.000065   0.000241   0.001295
    20  H   -0.042032   0.432932  -0.000146   0.000891   0.001035   0.000158
    21  H    0.004975  -0.000826  -0.000001   0.000000   0.000015  -0.000028
    22  H   -0.041623   0.004349   0.000000   0.000000  -0.000002  -0.000002
    23  H    0.435600  -0.044668  -0.000001   0.000009  -0.000020   0.000015
    24  H    0.000612   0.001281   0.000240   0.001294  -0.000053   0.000065
    25  H    0.000000   0.000006   0.001035   0.000158  -0.000146   0.000891
    26  H    0.000000   0.000000  -0.000020   0.000015  -0.000001   0.000009
    27  H    0.000000   0.000000  -0.000002  -0.000002   0.000000   0.000000
    28  H   -0.000005  -0.000017   0.000015  -0.000028  -0.000001   0.000000
              19         20         21         22         23         24
     1  C   -0.000383  -0.000001   0.000039  -0.000001   0.000000  -0.044145
     2  C   -0.001495  -0.000042   0.000053  -0.000002   0.000004   0.434885
     3  C    0.000429   0.000168  -0.000010   0.000001  -0.000004  -0.046646
     4  C    0.001280   0.000006  -0.000017   0.000000   0.000000   0.005341
     5  C    0.000611   0.000000  -0.000005   0.000000   0.000000  -0.001097
     6  C    0.000041   0.000000   0.000002   0.000000   0.000000   0.005805
     7  C   -0.000436  -0.000626   0.000017  -0.000001   0.000025  -0.002997
     8  C   -0.002998  -0.001619  -0.000172   0.000057  -0.000211  -0.000437
     9  C   -0.046646  -0.048069   0.005937  -0.000204   0.005815   0.000428
    10  C    0.434885   0.005084  -0.044330   0.004263  -0.000812  -0.001496
    11  C   -0.044144  -0.000975   0.436102  -0.041439   0.004808  -0.000383
    12  C    0.005805   0.005419  -0.043790   0.434413  -0.042747   0.000041
    13  C   -0.001096  -0.042032   0.004975  -0.041623   0.435600   0.000612
    14  C    0.005341   0.432932  -0.000826   0.004349  -0.044668   0.001281
    15  H   -0.000053  -0.000146  -0.000001   0.000000  -0.000001   0.000240
    16  H    0.000065   0.000891   0.000000   0.000000   0.000009   0.001294
    17  H    0.000241   0.001035   0.000015  -0.000002  -0.000020  -0.000053
    18  H    0.001295   0.000158  -0.000028  -0.000002   0.000015   0.000065
    19  H    0.500936  -0.000211  -0.005284  -0.000215   0.000052  -0.000011
    20  H   -0.000211   0.507263   0.000058  -0.000237  -0.005285  -0.000017
    21  H   -0.005284   0.000058   0.502338  -0.004916  -0.000219  -0.000002
    22  H   -0.000215  -0.000237  -0.004916   0.499894  -0.004843   0.000001
    23  H    0.000052  -0.005285  -0.000219  -0.004843   0.502829   0.000004
    24  H   -0.000011  -0.000017  -0.000002   0.000001   0.000004   0.500933
    25  H   -0.000017   0.000000   0.000000   0.000000   0.000000  -0.000211
    26  H    0.000004   0.000000   0.000000   0.000000   0.000000   0.000052
    27  H    0.000001   0.000000   0.000000   0.000000   0.000000  -0.000215
    28  H   -0.000002   0.000000   0.000000   0.000000   0.000000  -0.005284
              25         26         27         28
     1  C   -0.000975   0.004808  -0.041433   0.436099
     2  C    0.005084  -0.000812   0.004262  -0.044330
     3  C   -0.048072   0.005815  -0.000203   0.005936
     4  C    0.432934  -0.044668   0.004349  -0.000826
     5  C   -0.042034   0.435599  -0.041622   0.004974
     6  C    0.005419  -0.042747   0.434410  -0.043784
     7  C   -0.001620  -0.000211   0.000057  -0.000172
     8  C   -0.000626   0.000025  -0.000001   0.000017
     9  C    0.000168  -0.000004   0.000001  -0.000010
    10  C   -0.000042   0.000004  -0.000002   0.000053
    11  C   -0.000001   0.000000  -0.000001   0.000039
    12  C    0.000000   0.000000   0.000000   0.000002
    13  C    0.000000   0.000000   0.000000  -0.000005
    14  C    0.000006   0.000000   0.000000  -0.000017
    15  H    0.001035  -0.000020  -0.000002   0.000015
    16  H    0.000158   0.000015  -0.000002  -0.000028
    17  H   -0.000146  -0.000001   0.000000  -0.000001
    18  H    0.000891   0.000009   0.000000   0.000000
    19  H   -0.000017   0.000004   0.000001  -0.000002
    20  H    0.000000   0.000000   0.000000   0.000000
    21  H    0.000000   0.000000   0.000000   0.000000
    22  H    0.000000   0.000000   0.000000   0.000000
    23  H    0.000000   0.000000   0.000000   0.000000
    24  H   -0.000211   0.000052  -0.000215  -0.005284
    25  H    0.507269  -0.005285  -0.000237   0.000058
    26  H   -0.005285   0.502830  -0.004843  -0.000219
    27  H   -0.000237  -0.004843   0.499887  -0.004915
    28  H    0.000058  -0.000219  -0.004915   0.502331
 Mulliken charges:
               1
     1  C   -0.138191
     2  C   -0.176649
     3  C    0.062822
     4  C   -0.196883
     5  C   -0.142136
     6  C   -0.171458
     7  C   -0.213168
     8  C   -0.213160
     9  C    0.062802
    10  C   -0.176640
    11  C   -0.138180
    12  C   -0.171450
    13  C   -0.142139
    14  C   -0.196885
    15  H    0.118373
    16  H    0.108811
    17  H    0.118375
    18  H    0.108809
    19  H    0.152007
    20  H    0.146247
    21  H    0.150063
    22  H    0.150506
    23  H    0.149647
    24  H    0.152011
    25  H    0.146243
    26  H    0.149647
    27  H    0.150510
    28  H    0.150066
 Sum of Mulliken charges =   0.00000
 Mulliken charges with hydrogens summed into heavy atoms:
               1
     1  C    0.011876
     2  C   -0.024637
     3  C    0.062822
     4  C   -0.050640
     5  C    0.007511
     6  C   -0.020949
     7  C    0.014016
     8  C    0.014024
     9  C    0.062802
    10  C   -0.024633
    11  C    0.011883
    12  C   -0.020944
    13  C    0.007508
    14  C   -0.050638
 Electronic spatial extent (au):  <R**2>=           3083.3228
 Charge=              0.0000 electrons
 Dipole moment (field-independent basis, Debye):
    X=              0.0000    Y=              0.2801    Z=              0.0000  Tot=              0.2801
 Quadrupole moment (field-independent basis, Debye-Ang):
   XX=            -84.0247   YY=            -78.0253   ZZ=            -83.4496
   XY=             -0.0005   XZ=             -6.8107   YZ=             -0.0001
 Traceless Quadrupole moment (field-independent basis, Debye-Ang):
   XX=             -2.1915   YY=              3.8079   ZZ=             -1.6164
   XY=             -0.0005   XZ=             -6.8107   YZ=             -0.0001
 Octapole moment (field-independent basis, Debye-Ang**2):
  XXX=             -0.0028  YYY=             -1.3717  ZZZ=              0.0006  XYY=             -0.0008
  XXY=            -19.2532  XXZ=              0.0010  XZZ=              0.0025  YZZ=             -0.7801
  YYZ=             -0.0003  XYZ=             -9.8970
 Hexadecapole moment (field-independent basis, Debye-Ang**3):
 XXXX=          -3038.8783 YYYY=           -844.8131 ZZZZ=           -432.0872 XXXY=             -0.0094
 XXXZ=           -157.1427 YYYX=              0.0005 YYYZ=              0.0010 ZZZX=            -22.8772
 ZZZY=             -0.0026 XXYY=           -602.9860 XXZZ=           -587.1309 YYZZ=           -209.0236
 XXYZ=             -0.0013 YYXZ=              5.3510 ZZXY=             -0.0026
 N-N= 7.975012206401D+02 E-N=-2.848054993731D+03  KE= 5.374952853084D+02
 1\1\GINC-MEGATRON\SP\RMP2-FC\CC-pVTZ\C14H14\STYLIANAKIS\14-Feb-2016\0\
 \# mp2/cc-pVTZ\\DiPhEt_g_single_point\\0,1\C\C,1,1.397835\C,2,1.40226,
 1,120.972\C,3,1.40388,2,118.203,1,-0.098,0\C,4,1.39669,3,121.084,2,0.1
 85,0\C,5,1.398198,4,120.075,3,-0.112,0\C,3,1.514063,2,121.337,1,179.16
 4,0\C,7,1.555299,3,114.415,2,-97.403,0\C,8,1.514064,7,114.415,3,67.435
 ,0\C,9,1.402258,8,121.337,7,-97.41,0\C,10,1.397837,9,120.972,8,179.165
 ,0\C,11,1.396995,10,120.2,9,-0.064,0\C,12,1.398201,11,119.467,10,0.14,
 0\C,13,1.396688,12,120.075,11,-0.053,0\H,7,1.097109,8,107.713,9,-170.9
 52,0\H,7,1.096153,8,108.79,9,-55.613,0\H,8,1.097109,7,107.713,3,-170.9
 52,0\H,8,1.096152,7,108.79,3,-55.613,0\H,10,1.086823,9,119.363,8,-0.73
 ,0\H,14,1.088038,9,119.394,8,1.369,0\H,11,1.086512,10,119.708,9,179.88
 7,0\H,12,1.08624,11,120.282,10,179.807,0\H,13,1.086599,14,119.824,9,-1
 79.646,0\H,2,1.086823,3,119.364,7,-0.731,0\H,4,1.088038,3,119.394,7,1.
 37,0\H,5,1.0866,4,119.824,3,-179.646,0\H,6,1.086241,5,120.251,4,-179.7
 21,0\H,1,1.086513,2,119.708,3,179.887,0\\Version=EM64L-G09RevD.01\Stat
 e=1-A\HF=-538.4888242\MP2=-540.7305743\RMSD=9.273e-09\PG=C01 [X(C14H14
 )]\\@


 MORNING PEOPLE ARE USUALLY ADMIRED AS EARLY BIRDS.
 RECALL BEN FRANKLIN'S APHORISM THAT THE EARLY BIRD GETS THE WORM.
 I IDENTIFY WITH THE WORM. --  CRAIG JAGGER, MINNEAPOLIS, KS.
 Job cpu time:       0 days  2 hours 54 minutes 26.1 seconds.
 File lengths (MBytes):  RWF=    204 Int=      0 D2E=      0 Chk=     17 Scr=      1
 Normal termination of Gaussian 09 at Sun Feb 14 01:36:40 2016.
