 Entering Link 1 = C:\G03W\l1.exe PID=      3292.
  
 Copyright (c) 1988,1990,1992,1993,1995,1998,2003,2004, Gaussian, Inc.
                  All Rights Reserved.
  
 This is the Gaussian(R) 03 program.  It is based on the
 the Gaussian(R) 98 system (copyright 1998, Gaussian, Inc.),
 the Gaussian(R) 94 system (copyright 1995, Gaussian, Inc.),
 the Gaussian 92(TM) system (copyright 1992, Gaussian, Inc.),
 the Gaussian 90(TM) system (copyright 1990, Gaussian, Inc.),
 the Gaussian 88(TM) system (copyright 1988, Gaussian, Inc.),
 the Gaussian 86(TM) system (copyright 1986, Carnegie Mellon
 University), and the Gaussian 82(TM) system (copyright 1983,
 Carnegie Mellon University). Gaussian is a federally registered
 trademark of Gaussian, Inc.
  
 This software contains proprietary and confidential information,
 including trade secrets, belonging to Gaussian, Inc.
  
 This software is provided under written license and may be
 used, copied, transmitted, or stored only in accord with that
 written license.
  
 The following legend is applicable only to US Government
 contracts under FAR:
  
                    RESTRICTED RIGHTS LEGEND
  
 Use, reproduction and disclosure by the US Government is
 subject to restrictions as set forth in subparagraphs (a)
 and (c) of the Commercial Computer Software - Restricted
 Rights clause in FAR 52.227-19.
  
 Gaussian, Inc.
 340 Quinnipiac St., Bldg. 40, Wallingford CT 06492
  
  
 ---------------------------------------------------------------
 Warning -- This program may not be used in any manner that
 competes with the business of Gaussian, Inc. or will provide
 assistance to any competitor of Gaussian, Inc.  The licensee
 of this program is prohibited from giving any competitor of
 Gaussian, Inc. access to this program.  By using this program,
 the user acknowledges that Gaussian, Inc. is engaged in the
 business of creating and licensing software in the field of
 computational chemistry and represents and warrants to the
 licensee that it is not a competitor of Gaussian, Inc. and that
 it will not use this program in any manner prohibited above.
 ---------------------------------------------------------------
  

 Cite this work as:
 Gaussian 03, Revision D.01,
 M. J. Frisch, G. W. Trucks, H. B. Schlegel, G. E. Scuseria, 
 M. A. Robb, J. R. Cheeseman, J. A. Montgomery, Jr., T. Vreven, 
 K. N. Kudin, J. C. Burant, J. M. Millam, S. S. Iyengar, J. Tomasi, 
 V. Barone, B. Mennucci, M. Cossi, G. Scalmani, N. Rega, 
 G. A. Petersson, H. Nakatsuji, M. Hada, M. Ehara, K. Toyota, 
 R. Fukuda, J. Hasegawa, M. Ishida, T. Nakajima, Y. Honda, O. Kitao, 
 H. Nakai, M. Klene, X. Li, J. E. Knox, H. P. Hratchian, J. B. Cross, 
 V. Bakken, C. Adamo, J. Jaramillo, R. Gomperts, R. E. Stratmann, 
 O. Yazyev, A. J. Austin, R. Cammi, C. Pomelli, J. W. Ochterski, 
 P. Y. Ayala, K. Morokuma, G. A. Voth, P. Salvador, J. J. Dannenberg, 
 V. G. Zakrzewski, S. Dapprich, A. D. Daniels, M. C. Strain, 
 O. Farkas, D. K. Malick, A. D. Rabuck, K. Raghavachari, 
 J. B. Foresman, J. V. Ortiz, Q. Cui, A. G. Baboul, S. Clifford, 
 J. Cioslowski, B. B. Stefanov, G. Liu, A. Liashenko, P. Piskorz, 
 I. Komaromi, R. L. Martin, D. J. Fox, T. Keith, M. A. Al-Laham, 
 C. Y. Peng, A. Nanayakkara, M. Challacombe, P. M. W. Gill, 
 B. Johnson, W. Chen, M. W. Wong, C. Gonzalez, and J. A. Pople, 
 Gaussian, Inc., Wallingford CT, 2004.
 
 ******************************************
 Gaussian 03:  IA32W-G03RevD.01 13-Oct-2005
                13-Dec-2007 
 ******************************************
 --------------
 # opt dreiding
 --------------
 1/6=10,10=10,14=-1,18=4000020,38=1,56=1,64=1/1,3;
 2/9=110,17=6,18=5,40=1/2;
 3/5=30,11=9,16=1,25=1,30=1/1;
 4/20=9,22=1001,24=3/2;
 7/44=-1/16;
 1/6=10,10=10,14=-1,18=4000020,64=1/3(2);
 2/9=110/2;
 99//99;
 2/9=110/2;
 3/5=30,11=9,16=1,25=1,30=1/1;
 4/16=2,20=9,22=1001,24=3/2;
 7/44=-1/16;
 1/6=10,10=10,14=-1,18=4000020,64=1/3(-4);
 2/9=110/2;
 99//99;
 -----------------------
 2,3-dimethylbutane-anti
 -----------------------
 Symbolic Z-matrix:
 Charge =  0 Multiplicity = 1
 C                     0.7806   -1.808     0.001 
 C                     0.7266   -0.269     0.02 
 C                    -0.7264    0.269    -0.02 
 C                    -0.7804    1.808    -0.001 
 C                     1.5026    0.234     1.252 
 C                    -1.5024   -0.234    -1.252 
 H                     1.8266   -2.179     0.095 
 H                     0.1916   -2.24      0.843 
 H                     0.3906   -2.233    -0.951 
 H                     1.2586    0.101    -0.891 
 H                    -1.2594   -0.101     0.891 
 H                    -1.8274    2.179    -0.095 
 H                    -0.3914    2.233     0.951 
 H                    -0.1924    2.24     -0.843 
 H                     1.6526    1.337     1.235 
 H                     0.9726   -0.032     2.195 
 H                     2.5226   -0.212     1.3 
 H                    -2.5224    0.212    -1.3 
 H                    -0.9724    0.032    -2.195 
 H                    -1.6534   -1.337    -1.235 
 
 Include all MM classes
 MMInit generated parameter data with length LenPar=  2074.

 GradGradGradGradGradGradGradGradGradGradGradGradGradGradGradGradGradGrad
 Berny optimization.
 Initialization pass.
 No Z-matrix variables, so optimization will use Cartesian coordinates.
 Trust Radius=1.00D-01 FncErr=1.00D-07 GrdErr=1.00D-07
 Number of steps in this run=   2 maximum allowed number of steps=   2.
 GradGradGradGradGradGradGradGradGradGradGradGradGradGradGradGradGradGrad

                          Input orientation:                          
 ---------------------------------------------------------------------
 Center     Atomic     Atomic              Coordinates (Angstroms)
 Number     Number      Type              X           Y           Z
 ---------------------------------------------------------------------
    1          6      10061003        0.780600   -1.808000    0.001000
    2          6      10061003        0.726600   -0.269000    0.020000
    3          6      10061003       -0.726400    0.269000   -0.020000
    4          6      10061003       -0.780400    1.808000   -0.001000
    5          6      10061003        1.502600    0.234000    1.252000
    6          6      10061003       -1.502400   -0.234000   -1.252000
    7          1      10011000        1.826600   -2.179000    0.095000
    8          1      10011000        0.191600   -2.240000    0.843000
    9          1      10011000        0.390600   -2.233000   -0.951000
   10          1      10011000        1.258600    0.101000   -0.891000
   11          1      10011000       -1.259400   -0.101000    0.891000
   12          1      10011000       -1.827400    2.179000   -0.095000
   13          1      10011000       -0.391400    2.233000    0.951000
   14          1      10011000       -0.192400    2.240000   -0.843000
   15          1      10011000        1.652600    1.337000    1.235000
   16          1      10011000        0.972600   -0.032000    2.195000
   17          1      10011000        2.522600   -0.212000    1.300000
   18          1      10011000       -2.522400    0.212000   -1.300000
   19          1      10011000       -0.972400    0.032000   -2.195000
   20          1      10011000       -1.653400   -1.337000   -1.235000
 ---------------------------------------------------------------------
                    Distance matrix (angstroms):
                    1          2          3          4          5
     1  C    0.000000
     2  C    1.540064   0.000000
     3  C    2.566207   1.549920   0.000000
     4  C    3.938551   2.566207   1.540064   0.000000
     5  C    2.501210   1.540457   2.566642   3.042955   0.000000
     6  C    3.042955   2.566642   1.540457   2.501210   3.939424
     7  H    1.113819   2.205385   3.538889   4.764644   2.695588
     8  H    1.114679   2.201907   2.807592   4.247755   2.829607
     9  H    1.113117   2.216536   2.893865   4.313168   3.489390
    10  H    2.160655   1.117965   2.174187   2.804188   2.160943
    11  H    2.804915   2.175100   1.118441   2.160876   2.805564
    12  H    4.765191   3.539611   2.205884   1.114758   4.084891
    13  H    4.313440   2.894251   2.216385   1.112767   2.770169
    14  H    4.247984   2.807919   2.201664   1.114151   3.359477
    15  H    3.489150   2.216515   2.894009   2.769301   1.113283
    16  H    2.829254   2.201661   2.807744   3.358724   1.113959
    17  H    2.696142   2.206188   3.539740   4.084460   1.114280
    18  H    4.084460   3.539740   2.206188   2.696142   4.765901
    19  H    3.358724   2.807744   2.201661   2.829254   4.248322
    20  H    2.770179   2.894831   2.216933   3.489400   4.314342
                    6          7          8          9         10
     6  C    0.000000
     7  H    4.084076   0.000000
     8  H    3.358973   1.799014   0.000000
     9  H    2.769486   1.777394   1.805017   0.000000
    10  H    2.804580   2.548180   3.102503   2.490899   0.000000
    11  H    2.160830   3.804615   2.585155   3.265102   3.091384
    12  H    2.695708   5.690341   4.948107   5.011787   3.804615
    13  H    3.489071   5.011787   4.512126   4.916735   3.265102
    14  H    2.829144   4.948107   4.802130   4.512126   2.585155
    15  H    4.313610   3.700288   3.883698   4.372201   2.490544
    16  H    4.248322   3.122327   2.704280   3.883354   3.102077
    17  H    4.765901   2.409467   3.123331   3.700928   2.548754
    18  H    1.114280   5.155260   4.239168   3.819083   3.804676
    19  H    1.113959   4.238752   3.968164   2.921563   2.585061
    20  H    1.113418   3.819459   2.921903   2.249757   3.265873
                   11         12         13         14         15
    11  H    0.000000
    12  H    2.548180   0.000000
    13  H    2.490899   1.777394   0.000000
    14  H    3.102503   1.799014   1.805017   0.000000
    15  H    3.265873   3.819459   2.249757   2.921903   0.000000
    16  H    2.585924   4.239413   2.922030   3.968457   1.805038
    17  H    3.805670   5.156104   3.819846   4.239809   1.777787
    18  H    2.548258   2.409178   3.700352   3.122584   5.012233
    19  H    3.102169   3.122601   3.883205   2.703991   4.512045
    20  H    2.490544   3.700288   4.372201   3.883698   4.917399
                   16         17         18         19         20
    16  H    0.000000
    17  H    1.798868   0.000000
    18  H    4.948695   5.691380   0.000000
    19  H    4.802002   4.948695   1.798868   0.000000
    20  H    4.512627   5.013066   1.777298   1.805415   0.000000
 Stoichiometry    C6H14
 Framework group  C1[X(C6H14)]
 Deg. of freedom    54
 Full point group                 C1
 Largest Abelian subgroup         C1      NOp   1
 Largest concise Abelian subgroup C1      NOp   1
                         Standard orientation:                         
 ---------------------------------------------------------------------
 Center     Atomic     Atomic              Coordinates (Angstroms)
 Number     Number      Type              X           Y           Z
 ---------------------------------------------------------------------
    1          6      10061003       -1.519758    1.251135    0.056555
    2          6      10061003       -0.705007    0.000261   -0.321984
    3          6      10061003        0.704852   -0.000318    0.321871
    4          6      10061003        1.519604   -1.251193   -0.056668
    5          6      10061003       -1.521237   -1.250074    0.056751
    6          6      10061003        1.521082    1.250017   -0.056864
    7          1      10011000       -2.551427    1.205645   -0.360797
    8          1      10011000       -1.606800    1.352848    1.163166
    9          1      10011000       -1.069292    2.186537   -0.344857
   10          1      10011000       -0.578951    0.000106   -1.432820
   11          1      10011000        0.579568    0.000124    1.433273
   12          1      10011000        2.552045   -1.205414    0.361250
   13          1      10011000        1.069910   -2.186307    0.345310
   14          1      10011000        1.607418   -1.352617   -1.162713
   15          1      10011000       -1.071251   -2.185663   -0.345225
   16          1      10011000       -1.608369   -1.351431    1.162662
   17          1      10011000       -2.553231   -1.203821   -0.360942
   18          1      10011000        2.553077    1.203764    0.360829
   19          1      10011000        1.608214    1.351374   -1.162775
   20          1      10011000        1.071868    2.185893    0.345678
 ---------------------------------------------------------------------
 Rotational constants (GHZ):      4.1838362      2.8375354      1.8550923
 Standard basis: Dummy (5D, 7F)
 There are    20 symmetry adapted basis functions of A   symmetry.
 Integral buffers will be    262144 words long.
 Raffenetti 1 integral format.
 Two-electron integral symmetry is turned on.
    20 basis functions,    20 primitive gaussians,    20 cartesian basis functions
    13 alpha electrons       13 beta electrons
       nuclear repulsion energy        68.5727792743 Hartrees.
 NAtoms=   20 NActive=   20 NUniq=   20 SFac= 7.50D-01 NAtFMM=   80 NAOKFM=F Big=F
 Dreiding calculation of energy and first derivatives.
 MO and density RWFs will be updated without deorthogonalization.
 NRF= 0 NRA=   0 NVA=  20 HaveQM=F
 Convergence limit is  0.750E-04 MaxStp=  5000 StMxLn= 1.00D-04 StpMin= 1.00D-06.
 Convergence criteria           0.00011250 0.00007500 0.00045000 0.00030000
  Step  NS  ND Rises OKQ   Scale  Max. Force  RMS Force Max. Disp.  RMS Disp.     Energy   Flag
     1   0   0   F    T  1.00D+00 0.02533630 0.01147348 0.02533630 0.01147348    0.0302196 ----
     2   0   0   F    F  2.27D-01 0.02533630 0.01147348 0.02533630 0.01147348    0.0255518 ----
     3   0   0   F    T  3.95D+00 0.01237779 0.00341554 0.01237500 0.00356366    0.0253869 ----
     4   0   0   T    F  4.55D-01 0.01237779 0.00341554 0.04889526 0.01408051    0.0256653 ----
     5   0   0   F    T  3.03D+00 0.00555641 0.00184072 0.00421756 0.00211435    0.0247578 ----
     6   0   0   F    F  4.69D-02 0.00555641 0.00184072 0.01276917 0.00640145    0.0244366 ----
     7   0   0   F    T  3.09D+00 0.00386612 0.00155426 0.00570474 0.00216989    0.0244360 ----
     8   0   0   F    F -2.53D-01 0.00386612 0.00155426 0.01761855 0.00670149    0.0242881 ----
     9   0   0   F    T  3.02D+00 0.00267891 0.00115014 0.00389195 0.00165728    0.0242689 ----
    10   0   0   F    F  1.00D+00 0.00267891 0.00115014 0.01174986 0.00500335    0.0240893 ----
    11   0   0   F    T  2.78D+00 0.00478423 0.00160272 0.00736962 0.00360289    0.0240295 ----
    12   0   0   F    F -1.88D-01 0.00478423 0.00160272 0.02048120 0.01001293    0.0238649 ----
    13   0   0   F    T  1.46D+01 0.00087239 0.00045658 0.00123761 0.00055519    0.0238556 ----
    14   0   0   T    F  3.73D-01 0.00087239 0.00045658 0.01812477 0.00813073    0.0239172 ----
    15   0   0   F    T  2.44D+00 0.00164572 0.00063307 0.00271838 0.00124165    0.0238214 ----
    16   0   0   F    F -6.06D-02 0.00164572 0.00063307 0.00664081 0.00303326    0.0237939 ----
    17   0   0   F    T  9.15D+00 0.00079987 0.00024573 0.00065804 0.00031143    0.0237938 ----
    18   0   0   T    F  2.43D-01 0.00079987 0.00024573 0.00602047 0.00284933    0.0238288 ----
    19   0   0   F    T  1.70D+00 0.00065528 0.00025004 0.00106716 0.00040799    0.0237898 ----
    20   0   0   F    F  2.49D+00 0.00065528 0.00025004 0.00181272 0.00069302    0.0237843 ----
    21   0   0   F    T  1.08D+01 0.00035799 0.00015714 0.00048730 0.00022470    0.0237787 ---+
    22   0   0   T    F  2.17D-01 0.00035799 0.00015714 0.00524795 0.00241993    0.0237994 ----
    23   0   0   F    T  4.85D+00 0.00022318 0.00008557 0.00023901 0.00010842    0.0237769 --++
    24   0   0   F    F  1.11D+00 0.00022318 0.00008557 0.00115928 0.00052588    0.0237753 ----
    25   0   0   F    T  1.88D+00 0.00060378 0.00019382 0.00131014 0.00058915    0.0237747 ----
    26   0   0   F    F  7.35D-01 0.00060378 0.00019382 0.00246221 0.00110722    0.0237717 ----
    27   0   0   F    T  4.14D+00 0.00075567 0.00016601 0.00109130 0.00046434    0.0237710 ----
    28   0   0   F    F  2.00D-01 0.00075567 0.00016601 0.00451591 0.00192149    0.0237670 ----
    29   0   0   F    T  4.36D+00 0.00052028 0.00017214 0.00135693 0.00052804    0.0237669 ----
    30   0   0   F    F -4.91D-01 0.00052028 0.00017214 0.00592289 0.00230482    0.0237668 ----
    31   0   0   F    T  2.82D+00 0.00059671 0.00014770 0.00107836 0.00041591    0.0237649 ----
    32   0   0   F    F  6.89D-01 0.00059671 0.00014770 0.00304346 0.00117382    0.0237623 ----
    33   0   0   F    T  5.01D+00 0.00042287 0.00013957 0.00096977 0.00039608    0.0237618 ----
    34   0   0   T    F  4.58D-01 0.00042287 0.00013957 0.00485449 0.00198270    0.0237623 ----
    35   0   0   F    T  4.85D+00 0.00019611 0.00008992 0.00043513 0.00018734    0.0237605 --++
    36   0   0   F    F  5.45D-01 0.00019611 0.00008992 0.00211068 0.00090874    0.0237589 ----
    37   0   0   F    T  3.55D+00 0.00040035 0.00012715 0.00090821 0.00039565    0.0237586 ----
    38   0   0   F    F  2.24D-01 0.00040035 0.00012715 0.00322245 0.00140380    0.0237566 ----
    39   0   0   F    T  3.63D+00 0.00044886 0.00013587 0.00114075 0.00047317    0.0237565 ----
    40   0   0   F    F -4.44D-01 0.00044886 0.00013587 0.00414262 0.00171830    0.0237561 ----
    41   0   0   F    T  5.76D+00 0.00020991 0.00007576 0.00041552 0.00016581    0.0237554 --++
    42   0   0   T    F  4.36D-01 0.00020991 0.00007576 0.00239210 0.00095457    0.0237557 ----
    43   0   0   F    T  4.33D+00 0.00017800 0.00005277 0.00023599 0.00009614    0.0237550 -+++
    44   0   0   F    F -2.45D-01 0.00017800 0.00005277 0.00102126 0.00041604    0.0237547 -+--
    45   0   0   F    T  4.17D+00 0.00012427 0.00004249 0.00016321 0.00007541    0.0237547 -+++
    46   0   0   F    F -3.93D-01 0.00012427 0.00004249 0.00068013 0.00031423    0.0237546 -+--
    47   0   0   F    T  3.75D+00 0.00008552 0.00003105 0.00009777 0.00005084    0.0237546 ====
 Energy=    0.023754583004 NIter=   0.
 Dipole moment=       0.000000       0.000000       0.000000
 ***** Axes restored to original set *****
 -------------------------------------------------------------------
 Center     Atomic                   Forces (Hartrees/Bohr)
 Number     Number              X              Y              Z
 -------------------------------------------------------------------
    1          6          -0.000011751    0.000073293   -0.000008806
    2          6           0.000046596    0.000021279   -0.000004465
    3          6           0.000032128   -0.000007554   -0.000089355
    4          6           0.000048242   -0.000065422    0.000035773
    5          6           0.000004119    0.000020934   -0.000000160
    6          6           0.000056620   -0.000029569    0.000042050
    7          1          -0.000031448    0.000010391   -0.000004118
    8          1           0.000012498   -0.000010971   -0.000022801
    9          1          -0.000003790   -0.000047752   -0.000008604
   10          1          -0.000017568   -0.000040495    0.000054039
   11          1          -0.000042169    0.000019653    0.000008206
   12          1           0.000007660    0.000006734    0.000000374
   13          1          -0.000010163    0.000038481   -0.000016228
   14          1          -0.000025450   -0.000001024    0.000031790
   15          1           0.000005771   -0.000012052    0.000021562
   16          1           0.000020714    0.000013465   -0.000027983
   17          1          -0.000056896    0.000012636   -0.000017434
   18          1           0.000018177   -0.000009802   -0.000002461
   19          1          -0.000037982   -0.000016150    0.000040567
   20          1          -0.000015308    0.000023925   -0.000031948
 -------------------------------------------------------------------
 Cartesian Forces:  Max     0.000089355 RMS     0.000031046

 GradGradGradGradGradGradGradGradGradGradGradGradGradGradGradGradGradGrad
 Berny optimization.
 Search for a local minimum.
 Step number   1 out of a maximum of   2
 All quantities printed in internal units (Hartrees-Bohrs-Radians)
 Second derivative matrix not updated -- unit matrix used.
 RFO step:  Lambda=-5.78327334D-08.
 Linear search not attempted -- first point.
 TrRot=  0.000000  0.000000  0.000000  0.000000  0.000000  0.000000
 Variable       Old X    -DE/DX   Delta X   Delta X   Delta X     New X
                                 (Linear)    (Quad)   (Total)
    X1        1.51873  -0.00001   0.00000  -0.00001  -0.00001   1.51872
    Y1       -3.47186   0.00007   0.00000   0.00007   0.00007  -3.47179
    Z1        0.00383  -0.00001   0.00000  -0.00001  -0.00001   0.00382
    X2        1.39410   0.00005   0.00000   0.00005   0.00005   1.39414
    Y2       -0.52775   0.00002   0.00000   0.00002   0.00002  -0.52773
    Z2        0.05683   0.00000   0.00000   0.00000   0.00000   0.05683
    X3       -1.39490   0.00003   0.00000   0.00003   0.00003  -1.39487
    Y3        0.52773  -0.00001   0.00000  -0.00001  -0.00001   0.52772
    Z3       -0.05678  -0.00009   0.00000  -0.00009  -0.00009  -0.05687
    X4       -1.51935   0.00005   0.00000   0.00005   0.00005  -1.51931
    Y4        3.47184  -0.00007   0.00000  -0.00007  -0.00007   3.47177
    Z4       -0.00377   0.00004   0.00000   0.00004   0.00004  -0.00373
    X5        2.90066   0.00000   0.00000   0.00000   0.00000   2.90066
    Y5        0.43856   0.00002   0.00000   0.00002   0.00002   0.43858
    Z5        2.39832   0.00000   0.00000   0.00000   0.00000   2.39832
    X6       -2.90129   0.00006   0.00000   0.00006   0.00006  -2.90123
    Y6       -0.43854  -0.00003   0.00000  -0.00003  -0.00003  -0.43857
    Z6       -2.39848   0.00004   0.00000   0.00004   0.00004  -2.39844
    X7        3.46226  -0.00003   0.00000  -0.00003  -0.00003   3.46223
    Y7       -4.13342   0.00001   0.00000   0.00001   0.00001  -4.13341
    Z7        0.21746   0.00000   0.00000   0.00000   0.00000   0.21746
    X8        0.38278   0.00001   0.00000   0.00001   0.00001   0.38280
    Y8       -4.27416  -0.00001   0.00000  -0.00001  -0.00001  -4.27417
    Z8        1.52864  -0.00002   0.00000  -0.00002  -0.00002   1.52862
    X9        0.83352   0.00000   0.00000   0.00000   0.00000   0.83351
    Y9       -4.20619  -0.00005   0.00000  -0.00005  -0.00005  -4.20624
    Z9       -1.79521  -0.00001   0.00000  -0.00001  -0.00001  -1.79521
   X10        2.39925  -0.00002   0.00000  -0.00002  -0.00002   2.39923
   Y10        0.14538  -0.00004   0.00000  -0.00004  -0.00004   0.14534
   Z10       -1.62219   0.00005   0.00000   0.00005   0.00005  -1.62213
   X11       -2.39974  -0.00004   0.00000  -0.00004  -0.00004  -2.39978
   Y11       -0.14544   0.00002   0.00000   0.00002   0.00002  -0.14542
   Z11        1.62208   0.00001   0.00000   0.00001   0.00001   1.62208
   X12       -3.46281   0.00001   0.00000   0.00001   0.00001  -3.46280
   Y12        4.13334   0.00001   0.00000   0.00001   0.00001   4.13335
   Z12       -0.21738   0.00000   0.00000   0.00000   0.00000  -0.21738
   X13       -0.83411  -0.00001   0.00000  -0.00001  -0.00001  -0.83412
   Y13        4.20612   0.00004   0.00000   0.00004   0.00004   4.20616
   Z13        1.79538  -0.00002   0.00000  -0.00002  -0.00002   1.79537
   X14       -0.38331  -0.00003   0.00000  -0.00003  -0.00003  -0.38334
   Y14        4.27423   0.00000   0.00000   0.00000   0.00000   4.27422
   Z14       -1.52854   0.00003   0.00000   0.00003   0.00003  -1.52851
   X15        3.19492   0.00001   0.00000   0.00001   0.00001   3.19493
   Y15        2.47542  -0.00001   0.00000  -0.00001  -0.00001   2.47541
   Z15        2.29634   0.00002   0.00000   0.00002   0.00002   2.29636
   X16        1.89204   0.00002   0.00000   0.00002   0.00002   1.89206
   Y16       -0.00359   0.00001   0.00000   0.00001   0.00001  -0.00357
   Z16        4.14375  -0.00003   0.00000  -0.00003  -0.00003   4.14372
   X17        4.77074  -0.00006   0.00000  -0.00006  -0.00006   4.77068
   Y17       -0.43108   0.00001   0.00000   0.00001   0.00001  -0.43107
   Z17        2.48470  -0.00002   0.00000  -0.00002  -0.00002   2.48468
   X18       -4.77118   0.00002   0.00000   0.00002   0.00002  -4.77117
   Y18        0.43123  -0.00001   0.00000  -0.00001  -0.00001   0.43122
   Z18       -2.48475   0.00000   0.00000   0.00000   0.00000  -2.48475
   X19       -1.89244  -0.00004   0.00000  -0.00004  -0.00004  -1.89248
   Y19        0.00360  -0.00002   0.00000  -0.00002  -0.00002   0.00359
   Z19       -4.14385   0.00004   0.00000   0.00004   0.00004  -4.14381
   X20       -3.19552  -0.00002   0.00000  -0.00002  -0.00002  -3.19553
   Y20       -2.47543   0.00002   0.00000   0.00002   0.00002  -2.47541
   Z20       -2.29639  -0.00003   0.00000  -0.00003  -0.00003  -2.29642
         Item               Value     Threshold  Converged?
 Maximum Force            0.000089     0.000450     YES
 RMS     Force            0.000031     0.000300     YES
 Maximum Displacement     0.000089     0.001800     YES
 RMS     Displacement     0.000031     0.001200     YES
 Predicted change in Energy=-2.891636D-08
 Optimization completed.
    -- Stationary point found.
 GradGradGradGradGradGradGradGradGradGradGradGradGradGradGradGradGradGrad

                          Input orientation:                          
 ---------------------------------------------------------------------
 Center     Atomic     Atomic              Coordinates (Angstroms)
 Number     Number      Type              X           Y           Z
 ---------------------------------------------------------------------
    1          6      10061003        0.803676   -1.837231    0.002027
    2          6      10061003        0.737724   -0.279273    0.030074
    3          6      10061003       -0.738152    0.279262   -0.030048
    4          6      10061003       -0.804007    1.837218   -0.001995
    5          6      10061003        1.534963    0.232076    1.269138
    6          6      10061003       -1.535297   -0.232063   -1.269223
    7          1      10011000        1.832149   -2.187311    0.115075
    8          1      10011000        0.202560   -2.261789    0.808921
    9          1      10011000        0.441079   -2.225821   -0.949982
   10          1      10011000        1.269629    0.076933   -0.858424
   11          1      10011000       -1.269889   -0.076961    0.858365
   12          1      10011000       -1.832441    2.187270   -0.115030
   13          1      10011000       -0.441393    2.225784    0.950075
   14          1      10011000       -0.202839    2.261823   -0.808868
   15          1      10011000        1.690679    1.309936    1.215171
   16          1      10011000        1.001227   -0.001898    2.192779
   17          1      10011000        2.524567   -0.228118    1.314845
   18          1      10011000       -2.524802    0.228199   -1.314871
   19          1      10011000       -1.001436    0.001906   -2.192833
   20          1      10011000       -1.690995   -1.309942   -1.215196
 ---------------------------------------------------------------------
                    Distance matrix (angstroms):
                    1          2          3          4          5
     1  C    0.000000
     2  C    1.559605   0.000000
     3  C    2.618741   1.579172   0.000000
     4  C    4.010766   2.618683   1.559600   0.000000
     5  C    2.534242   1.559598   2.618618   3.108544   0.000000
     6  C    3.108607   2.618592   1.559631   2.534280   4.010635
     7  H    1.092288   2.201273   3.565318   4.812470   2.696964
     8  H    1.092094   2.196217   2.836502   4.297979   2.864692
     9  H    1.090321   2.199444   2.917585   4.353987   3.487453
    10  H    2.149770   1.095096   2.181359   2.851674   2.149649
    11  H    2.851585   2.181171   1.094951   2.149732   2.851567
    12  H    4.812424   3.565198   2.201178   1.092240   4.132568
    13  H    4.353973   2.917538   2.199467   1.090371   2.825359
    14  H    4.298007   2.836486   2.196286   1.092125   3.384958
    15  H    3.487571   2.199583   2.917547   2.825417   1.090386
    16  H    2.864763   2.196284   2.836450   3.385004   1.092123
    17  H    2.697073   2.201377   3.565319   4.132685   1.092329
    18  H    4.132674   3.565176   2.201249   2.696984   4.812360
    19  H    3.385006   2.836381   2.196334   2.864807   4.297853
    20  H    2.825430   2.917474   2.199558   3.487581   4.353911
                    6          7          8          9         10
     6  C    0.000000
     7  H    4.132671   0.000000
     8  H    3.385058   1.772718   0.000000
     9  H    2.825429   1.752401   1.775366   0.000000
    10  H    2.851639   2.528029   3.064033   2.448990   0.000000
    11  H    2.149681   3.824748   2.635152   3.288636   3.069235
    12  H    2.696966   5.711316   4.978859   5.034025   3.824787
    13  H    3.487538   5.034047   4.535737   4.919934   3.288742
    14  H    2.864758   4.978920   4.821271   4.535801   2.635216
    15  H    4.353952   3.668918   3.890599   4.330238   2.448955
    16  H    4.297951   3.127830   2.767678   3.890572   3.064000
    17  H    4.812475   2.399443   3.127858   3.668948   2.528048
    18  H    1.092266   5.182901   4.260169   3.866757   3.824779
    19  H    1.092156   4.260085   3.947714   2.930579   2.635149
    20  H    1.090405   3.866775   2.930634   2.335576   3.288769
                   11         12         13         14         15
    11  H    0.000000
    12  H    2.527985   0.000000
    13  H    2.448969   1.752412   0.000000
    14  H    3.064013   1.772730   1.775412   0.000000
    15  H    3.288732   3.866720   2.335548   2.930569   0.000000
    16  H    2.635197   4.260060   2.930534   3.947670   1.775379
    17  H    3.824803   5.182872   3.866731   4.260130   1.752402
    18  H    2.528020   2.399362   3.668912   3.127807   5.034039
    19  H    3.064000   3.127882   3.890649   2.767732   4.535738
    20  H    2.448924   3.668904   4.330272   3.890657   4.919976
                   16         17         18         19         20
    16  H    0.000000
    17  H    1.772712   0.000000
    18  H    4.978899   5.711371   0.000000
    19  H    4.821231   4.978897   1.772758   0.000000
    20  H    4.535784   5.034125   1.752440   1.775446   0.000000
 Stoichiometry    C6H14
 Framework group  C1[X(C6H14)]
 Deg. of freedom    54
 Full point group                 C1
 Largest Abelian subgroup         C1      NOp   1
 Largest concise Abelian subgroup C1      NOp   1
                         Standard orientation:                         
 ---------------------------------------------------------------------
 Center     Atomic     Atomic              Coordinates (Angstroms)
 Number     Number      Type              X           Y           Z
 ---------------------------------------------------------------------
    1          6      10061003       -1.553268   -1.267071   -0.058932
    2          6      10061003       -0.724160   -0.000020    0.314604
    3          6      10061003        0.724213    0.000002   -0.314681
    4          6      10061003        1.553243    1.267084    0.058905
    5          6      10061003       -1.553068    1.267171   -0.058876
    6          6      10061003        1.553103   -1.267197    0.058945
    7          1      10011000       -2.569779   -1.199551    0.335074
    8          1      10011000       -1.609103   -1.383727   -1.143341
    9          1      10011000       -1.107757   -2.165047    0.369972
   10          1      10011000       -0.618352    0.000046    1.404576
   11          1      10011000        0.618299   -0.000071   -1.404498
   12          1      10011000        2.569703    1.199558   -0.335098
   13          1      10011000        1.107683    2.165075   -0.370044
   14          1      10011000        1.609054    1.383802    1.143339
   15          1      10011000       -1.107504    2.165191    0.370045
   16          1      10011000       -1.608923    1.383951   -1.143300
   17          1      10011000       -2.569656    1.199892    0.335086
   18          1      10011000        2.569626   -1.199804   -0.334988
   19          1      10011000        1.608847   -1.383930    1.143413
   20          1      10011000        1.107492   -2.165197   -0.370018
 ---------------------------------------------------------------------
 Rotational constants (GHZ):      4.1329167      2.7474493      1.8007887
 1|1|UNPC-UNK|FOpt|Dreiding|ZDO|C6H14|PCUSER|13-Dec-2007|0||# opt dreid
 ing||2,3-dimethylbutane-anti||0,1|C,0.803676086,-1.837230928,0.0020269
 131|C,0.7377236434,-0.2792733717,0.0300742327|C,-0.7381516848,0.279261
 5573,-0.0300477799|C,-0.8040073395,1.8372184052,-0.0019951312|C,1.5349
 631517,0.2320759002,1.269137586|C,-1.5352971673,-0.2320630448,-1.26922
 25881|H,1.8321493513,-2.187311245,0.1150754972|H,0.2025597784,-2.26178
 90822,0.8089208287|H,0.4410789277,-2.2258206493,-0.949982094|H,1.26962
 88181,0.0769327494,-0.858424309|H,-1.2698891521,-0.0769611568,0.858365
 3985|H,-1.832440929,2.1872698855,-0.1150302768|H,-0.4413927314,2.22578
 37638,0.9500748473|H,-0.2028394095,2.2618229396,-0.8088682867|H,1.6906
 790072,1.3099359536,1.2151712949|H,1.0012265477,-0.0018978471,2.192779
 3003|H,2.5245668705,-0.2281175847,1.3148451164|H,-2.5248021658,0.22819
 94462,-1.3148711861|H,-1.0014362509,0.001905871,-2.1928329785|H,-1.690
 9953518,-1.3099415623,-1.2151963848||Version=IA32W-G03RevD.01|HF=0.023
 7546|RMSD=0.000e+000|RMSF=3.105e-005|Thermal=0.|Dipole=0.,0.,0.|PG=C01
  [X(C6H14)]||@


 One man practicing sportsmanship is far better than 50 preaching it.
 -- Knute K. Rockne
 Job cpu time:  0 days  0 hours  0 minutes  3.0 seconds.
 File lengths (MBytes):  RWF=     11 Int=      0 D2E=      0 Chk=      4 Scr=      1
 Normal termination of Gaussian 03 at Thu Dec 13 16:17:55 2007.
