 Entering Link 1 = C:\G03W\l1.exe PID=      1872.
  
 Copyright (c) 1988,1990,1992,1993,1995,1998,2003,2004, Gaussian, Inc.
                  All Rights Reserved.
  
 This is the Gaussian(R) 03 program.  It is based on the
 the Gaussian(R) 98 system (copyright 1998, Gaussian, Inc.),
 the Gaussian(R) 94 system (copyright 1995, Gaussian, Inc.),
 the Gaussian 92(TM) system (copyright 1992, Gaussian, Inc.),
 the Gaussian 90(TM) system (copyright 1990, Gaussian, Inc.),
 the Gaussian 88(TM) system (copyright 1988, Gaussian, Inc.),
 the Gaussian 86(TM) system (copyright 1986, Carnegie Mellon
 University), and the Gaussian 82(TM) system (copyright 1983,
 Carnegie Mellon University). Gaussian is a federally registered
 trademark of Gaussian, Inc.
  
 This software contains proprietary and confidential information,
 including trade secrets, belonging to Gaussian, Inc.
  
 This software is provided under written license and may be
 used, copied, transmitted, or stored only in accord with that
 written license.
  
 The following legend is applicable only to US Government
 contracts under FAR:
  
                    RESTRICTED RIGHTS LEGEND
  
 Use, reproduction and disclosure by the US Government is
 subject to restrictions as set forth in subparagraphs (a)
 and (c) of the Commercial Computer Software - Restricted
 Rights clause in FAR 52.227-19.
  
 Gaussian, Inc.
 340 Quinnipiac St., Bldg. 40, Wallingford CT 06492
  
  
 ---------------------------------------------------------------
 Warning -- This program may not be used in any manner that
 competes with the business of Gaussian, Inc. or will provide
 assistance to any competitor of Gaussian, Inc.  The licensee
 of this program is prohibited from giving any competitor of
 Gaussian, Inc. access to this program.  By using this program,
 the user acknowledges that Gaussian, Inc. is engaged in the
 business of creating and licensing software in the field of
 computational chemistry and represents and warrants to the
 licensee that it is not a competitor of Gaussian, Inc. and that
 it will not use this program in any manner prohibited above.
 ---------------------------------------------------------------
  

 Cite this work as:
 Gaussian 03, Revision D.01,
 M. J. Frisch, G. W. Trucks, H. B. Schlegel, G. E. Scuseria, 
 M. A. Robb, J. R. Cheeseman, J. A. Montgomery, Jr., T. Vreven, 
 K. N. Kudin, J. C. Burant, J. M. Millam, S. S. Iyengar, J. Tomasi, 
 V. Barone, B. Mennucci, M. Cossi, G. Scalmani, N. Rega, 
 G. A. Petersson, H. Nakatsuji, M. Hada, M. Ehara, K. Toyota, 
 R. Fukuda, J. Hasegawa, M. Ishida, T. Nakajima, Y. Honda, O. Kitao, 
 H. Nakai, M. Klene, X. Li, J. E. Knox, H. P. Hratchian, J. B. Cross, 
 V. Bakken, C. Adamo, J. Jaramillo, R. Gomperts, R. E. Stratmann, 
 O. Yazyev, A. J. Austin, R. Cammi, C. Pomelli, J. W. Ochterski, 
 P. Y. Ayala, K. Morokuma, G. A. Voth, P. Salvador, J. J. Dannenberg, 
 V. G. Zakrzewski, S. Dapprich, A. D. Daniels, M. C. Strain, 
 O. Farkas, D. K. Malick, A. D. Rabuck, K. Raghavachari, 
 J. B. Foresman, J. V. Ortiz, Q. Cui, A. G. Baboul, S. Clifford, 
 J. Cioslowski, B. B. Stefanov, G. Liu, A. Liashenko, P. Piskorz, 
 I. Komaromi, R. L. Martin, D. J. Fox, T. Keith, M. A. Al-Laham, 
 C. Y. Peng, A. Nanayakkara, M. Challacombe, P. M. W. Gill, 
 B. Johnson, W. Chen, M. W. Wong, C. Gonzalez, and J. A. Pople, 
 Gaussian, Inc., Wallingford CT, 2004.
 
 ******************************************
 Gaussian 03:  IA32W-G03RevD.01 13-Oct-2005
                13-Dec-2007 
 ******************************************
 --------------
 # opt dreiding
 --------------
 1/6=10,10=10,14=-1,18=4000020,38=1,56=1,64=1/1,3;
 2/9=110,17=6,18=5,40=1/2;
 3/5=30,11=9,16=1,25=1,30=1/1;
 4/20=9,22=1001,24=3/2;
 7/44=-1/16;
 1/6=10,10=10,14=-1,18=4000020,64=1/3(2);
 2/9=110/2;
 99//99;
 2/9=110/2;
 3/5=30,11=9,16=1,25=1,30=1/1;
 4/16=2,20=9,22=1001,24=3/2;
 7/44=-1/16;
 1/6=10,10=10,14=-1,18=4000020,64=1/3(-4);
 2/9=110/2;
 99//99;
 --------
 butane-g
 --------
 Symbolic Z-matrix:
 Charge =  0 Multiplicity = 1
 C                    -0.00221  -0.76874   0.62668 
 C                     0.00179   0.76926   0.62668 
 H                     1.04779  -1.14674   0.63068 
 H                    -0.47721  -1.12674   1.57268 
 C                    -0.76121  -1.37774  -0.55932 
 H                    -1.04821   1.14626   0.63068 
 H                     0.47779   1.12626   1.57168 
 C                     0.76179   1.37726  -0.55932 
 H                    -0.80921  -2.48774  -0.47232 
 H                    -1.80821  -0.99674  -0.60432 
 H                    -0.26621  -1.14574  -1.52932 
 H                     0.80879   2.48826  -0.47332 
 H                     1.80779   0.99726  -0.60532 
 H                     0.26579   1.14526  -1.52932 
 
 Include all MM classes
 MMInit generated parameter data with length LenPar=  1414.

 GradGradGradGradGradGradGradGradGradGradGradGradGradGradGradGradGradGrad
 Berny optimization.
 Initialization pass.
 No Z-matrix variables, so optimization will use Cartesian coordinates.
 Trust Radius=1.00D-01 FncErr=1.00D-07 GrdErr=1.00D-07
 Number of steps in this run=   2 maximum allowed number of steps=   2.
 GradGradGradGradGradGradGradGradGradGradGradGradGradGradGradGradGradGrad

                          Input orientation:                          
 ---------------------------------------------------------------------
 Center     Atomic     Atomic              Coordinates (Angstroms)
 Number     Number      Type              X           Y           Z
 ---------------------------------------------------------------------
    1          6      10061003       -0.002206   -0.768735    0.626676
    2          6      10061003        0.001794    0.769265    0.626676
    3          1      10011000        1.047794   -1.146735    0.630676
    4          1      10011000       -0.477206   -1.126735    1.572676
    5          6      10061003       -0.761206   -1.377735   -0.559324
    6          1      10011000       -1.048206    1.146265    0.630676
    7          1      10011000        0.477794    1.126265    1.571676
    8          6      10061003        0.761794    1.377265   -0.559324
    9          1      10011000       -0.809206   -2.487735   -0.472324
   10          1      10011000       -1.808206   -0.996735   -0.604324
   11          1      10011000       -0.266206   -1.145735   -1.529324
   12          1      10011000        0.808794    2.488265   -0.473324
   13          1      10011000        1.807794    0.997265   -0.605324
   14          1      10011000        0.265794    1.145265   -1.529324
 ---------------------------------------------------------------------
                    Distance matrix (angstroms):
                    1          2          3          4          5
     1  C    0.000000
     2  C    1.538005   0.000000
     3  H    1.115975   2.182931   0.000000
     4  H    1.117455   2.172366   1.792593   0.000000
     5  C    1.534131   2.568730   2.177600   2.165429   0.000000
     6  H    2.182053   1.115637   3.106616   2.525853   2.805182
     7  H    2.171278   1.116714   2.525254   2.447046   3.513730
     8  C    2.568192   1.534229   2.805080   3.514336   3.147944
     9  H    2.194085   3.531794   2.542310   2.478824   1.114438
    10  H    2.197494   2.812511   3.115198   2.554954   1.115076
    11  H    2.204577   2.896098   2.528279   3.109226   1.113440
    12  H    3.532106   2.194587   3.806463   4.348349   4.173518
    13  H    2.812949   2.198055   2.588828   3.804771   3.498929
    14  H    2.895437   2.204406   3.245056   3.916176   2.891567
                    6          7          8          9         10
     6  H    0.000000
     7  H    1.792919   0.000000
     8  C    2.178431   2.164444   0.000000
     9  H    3.805218   4.346873   4.172989   0.000000
    10  H    2.587523   3.803669   3.498971   1.799585   0.000000
    11  H    3.245056   3.915574   2.891922   1.792502   1.804325
    12  H    2.543271   2.479240   1.115314   5.232447   4.360169
    13  H    3.115547   2.554383   1.113837   4.360230   4.129345
    14  H    2.528279   3.108296   1.113885   3.933391   3.121741
                   11         12         13         14
    11  H    0.000000
    12  H    3.934046   0.000000
    13  H    3.122131   1.799585   0.000000
    14  H    2.351958   1.792661   1.803731   0.000000
 Stoichiometry    C4H10
 Framework group  C1[X(C4H10)]
 Deg. of freedom    36
 Full point group                 C1
 Largest Abelian subgroup         C1      NOp   1
 Largest concise Abelian subgroup C1      NOp   1
                         Standard orientation:                         
 ---------------------------------------------------------------------
 Center     Atomic     Atomic              Coordinates (Angstroms)
 Number     Number      Type              X           Y           Z
 ---------------------------------------------------------------------
    1          6      10061003        0.701616    0.626510   -0.314488
    2          6      10061003       -0.701814    0.626843    0.314675
    3          1      10011000        0.614117    0.630157   -1.427021
    4          1      10011000        1.223435    1.572554   -0.029162
    5          6      10061003        1.568859   -0.559427    0.127102
    6          1      10011000       -0.613402    0.631195    1.426794
    7          1      10011000       -1.222957    1.571798    0.027414
    8          6      10061003       -1.568775   -0.559220   -0.127469
    9          1      10011000        2.600307   -0.472656   -0.285885
   10          1      10011000        1.652385   -0.604075    1.238149
   11          1      10011000        1.153650   -1.529504   -0.228287
   12          1      10011000       -2.600707   -0.472990    0.286785
   13          1      10011000       -1.652810   -0.605572   -1.237164
   14          1      10011000       -1.153334   -1.529143    0.229459
 ---------------------------------------------------------------------
 Rotational constants (GHZ):     13.0132104      4.7361307      4.0401683
 Standard basis: Dummy (5D, 7F)
 There are    14 symmetry adapted basis functions of A   symmetry.
 Integral buffers will be    262144 words long.
 Raffenetti 1 integral format.
 Two-electron integral symmetry is turned on.
    14 basis functions,    14 primitive gaussians,    14 cartesian basis functions
     9 alpha electrons        9 beta electrons
       nuclear repulsion energy        36.6401599730 Hartrees.
 NAtoms=   14 NActive=   14 NUniq=   14 SFac= 7.50D-01 NAtFMM=   80 NAOKFM=F Big=F
 Dreiding calculation of energy and first derivatives.
 MO and density RWFs will be updated without deorthogonalization.
 NRF= 0 NRA=   0 NVA=  14 HaveQM=F
 Convergence limit is  0.750E-04 MaxStp=  5000 StMxLn= 1.00D-04 StpMin= 1.00D-06.
 Convergence criteria           0.00011250 0.00007500 0.00045000 0.00030000
  Step  NS  ND Rises OKQ   Scale  Max. Force  RMS Force Max. Disp.  RMS Disp.     Energy   Flag
     1   0   0   F    T  1.00D+00 0.02213445 0.01100414 0.02213445 0.01100414    0.0125251 ----
     2   0   0   F    F  1.70D-01 0.02213445 0.01100414 0.02213445 0.01100414    0.0096189 ----
     3   0   0   F    T  4.16D+00 0.00607047 0.00298875 0.00603213 0.00309702    0.0095564 ----
     4   0   0   F    F -3.08D-01 0.00607047 0.00298875 0.02507914 0.01287616    0.0091234 ----
     5   0   0   F    T  4.30D+00 0.00588812 0.00176777 0.00507553 0.00207353    0.0090168 ----
     6   0   0   T    F  4.09D-01 0.00588812 0.00176777 0.02181683 0.00891292    0.0091417 ----
     7   0   0   F    T  3.57D+00 0.00173518 0.00088162 0.00230481 0.00102214    0.0089014 ----
     8   0   0   F    F -1.65D-01 0.00173518 0.00088162 0.00822299 0.00364672    0.0088547 ----
     9   0   0   F    T  2.59D+00 0.00261210 0.00080731 0.00246497 0.00117797    0.0088528 ----
    10   0   0   F    F  9.20D-01 0.00261210 0.00080731 0.00637527 0.00304665    0.0088004 ----
    11   0   0   F    T  2.08D+00 0.00223817 0.00118833 0.00573212 0.00281643    0.0087848 ----
    12   0   0   F    F  7.30D-01 0.00223817 0.00118833 0.01190476 0.00584930    0.0086973 ----
    13   0   0   F    T  9.98D+00 0.00169426 0.00062341 0.00287792 0.00101417    0.0086783 ----
    14   0   0   T    F  4.02D-01 0.00169426 0.00062341 0.02871249 0.01011817    0.0087175 ----
    15   0   0   F    T  2.05D+00 0.00207853 0.00083139 0.00581773 0.00198778    0.0086456 ----
    16   0   0   F    F  1.06D+00 0.00207853 0.00083139 0.01191172 0.00406995    0.0086006 ----
    17   0   0   F    T  1.28D+01 0.00086599 0.00040679 0.00177571 0.00065398    0.0085844 ----
    18   0   0   T    F  4.98D-01 0.00086599 0.00040679 0.02281252 0.00840172    0.0085847 ----
    19   0   0   F    T  2.98D+00 0.00124068 0.00056863 0.00352324 0.00140275    0.0085622 ----
    20   0   0   F    F -2.67D-01 0.00124068 0.00056863 0.01051044 0.00418464    0.0085493 ----
    21   0   0   F    T  1.32D+01 0.00053763 0.00018113 0.00074454 0.00023154    0.0085473 ---+
    22   0   0   T    F  1.21D-01 0.00053763 0.00018113 0.00985933 0.00306613    0.0086044 ----
    23   0   0   F    T  2.46D+00 0.00032774 0.00011650 0.00045926 0.00015086    0.0085462 ---+
    24   0   0   F    F  9.15D-01 0.00032774 0.00011650 0.00113178 0.00037178    0.0085452 ----
    25   0   0   F    T  3.16D+00 0.00029365 0.00012898 0.00067212 0.00022545    0.0085449 ---+
    26   0   0   F    F  3.08D-01 0.00029365 0.00012898 0.00212235 0.00071190    0.0085435 ----
    27   0   0   F    T  8.43D+00 0.00016966 0.00007667 0.00024964 0.00011056    0.0085435 --++
    28   0   0   F    F -4.62D-01 0.00016966 0.00007667 0.00210336 0.00093150    0.0085433 ----
    29   0   0   F    T  2.57D+00 0.00029771 0.00009522 0.00035984 0.00019532    0.0085429 --++
    30   0   0   F    F  8.85D-01 0.00029771 0.00009522 0.00092368 0.00050136    0.0085422 ----
    31   0   0   F    T  2.25D+00 0.00045189 0.00013589 0.00086862 0.00042038    0.0085420 ----
    32   0   0   F    F  9.67D-01 0.00045189 0.00013589 0.00195263 0.00094501    0.0085407 ----
    33   0   0   F    T  5.49D+00 0.00024553 0.00011804 0.00087397 0.00033835    0.0085403 ----
    34   0   0   F    F -2.29D-01 0.00024553 0.00011804 0.00480069 0.00185852    0.0085391 ----
    35   0   0   F    T  3.08D+00 0.00027908 0.00013553 0.00128641 0.00046605    0.0085390 ----
    36   0   0   F    F  3.14D-01 0.00027908 0.00013553 0.00395585 0.00143316    0.0085375 ----
    37   0   0   F    T  3.35D+00 0.00034679 0.00014629 0.00155726 0.00056263    0.0085375 ----
    38   0   0   F    T  7.09D+00 0.00028905 0.00009747 0.00071931 0.00026545    0.0085359 ---+
    39   0   0   T    F  2.49D-01 0.00028905 0.00009747 0.00510346 0.00188335    0.0085388 ----
    40   0   0   F    T  4.87D+00 0.00012980 0.00005295 0.00028365 0.00009603    0.0085356 -+++
    41   0   0   F    F  2.21D-01 0.00012980 0.00005295 0.00138275 0.00046815    0.0085353 -+--
    42   0   0   F    T  4.01D+00 0.00014631 0.00006144 0.00040093 0.00014262    0.0085352 -+++
    43   0   0   T    F  4.67D-01 0.00014631 0.00006144 0.00160717 0.00057171    0.0085353 -+--
    44   0   0   F    T  3.95D+00 0.00007965 0.00003837 0.00015355 0.00006758    0.0085351 ====
 Energy=    0.008535094230 NIter=   0.
 Dipole moment=       0.000000       0.000000       0.000000
 ***** Axes restored to original set *****
 -------------------------------------------------------------------
 Center     Atomic                   Forces (Hartrees/Bohr)
 Number     Number              X              Y              Z
 -------------------------------------------------------------------
    1          6          -0.000023718    0.000059638   -0.000031725
    2          6           0.000034898   -0.000048403    0.000016205
    3          1           0.000012883    0.000010687    0.000001916
    4          1           0.000007831   -0.000010271    0.000025420
    5          6          -0.000048216   -0.000030941   -0.000000579
    6          1          -0.000022217   -0.000011100    0.000004049
    7          1          -0.000022436   -0.000003891    0.000000242
    8          6           0.000076234    0.000052966   -0.000055815
    9          1           0.000001664   -0.000027275   -0.000005932
   10          1          -0.000094843   -0.000037803    0.000046198
   11          1           0.000038291    0.000057969   -0.000037809
   12          1          -0.000009060    0.000019770    0.000002073
   13          1           0.000082207    0.000030106    0.000052020
   14          1          -0.000033517   -0.000061453   -0.000016263
 -------------------------------------------------------------------
 Cartesian Forces:  Max     0.000094843 RMS     0.000038366

 GradGradGradGradGradGradGradGradGradGradGradGradGradGradGradGradGradGrad
 Berny optimization.
 Search for a local minimum.
 Step number   1 out of a maximum of   2
 All quantities printed in internal units (Hartrees-Bohrs-Radians)
 Second derivative matrix not updated -- unit matrix used.
 RFO step:  Lambda=-6.18208488D-08.
 Linear search not attempted -- first point.
 TrRot=  0.000000  0.000000  0.000000  0.000000  0.000000  0.000000
 Variable       Old X    -DE/DX   Delta X   Delta X   Delta X     New X
                                 (Linear)    (Quad)   (Total)
    X1       -0.01292  -0.00002   0.00000  -0.00002  -0.00002  -0.01294
    Y1       -1.46715   0.00006   0.00000   0.00006   0.00006  -1.46709
    Z1        1.16042  -0.00003   0.00000  -0.00003  -0.00003   1.16039
    X2        0.01304   0.00003   0.00000   0.00003   0.00003   0.01308
    Y2        1.46715  -0.00005   0.00000  -0.00005  -0.00005   1.46710
    Z2        1.16016   0.00002   0.00000   0.00002   0.00002   1.16018
    X3        1.92922   0.00001   0.00000   0.00001   0.00001   1.92923
    Y3       -2.17169   0.00001   0.00000   0.00001   0.00001  -2.17167
    Z3        1.14727   0.00000   0.00000   0.00000   0.00000   1.14727
    X4       -0.89130   0.00001   0.00000   0.00001   0.00001  -0.89129
    Y4       -2.10115  -0.00001   0.00000  -0.00001  -0.00001  -2.10116
    Z4        2.92009   0.00003   0.00000   0.00003   0.00003   2.92012
    X5       -1.47635  -0.00005   0.00000  -0.00005  -0.00005  -1.47640
    Y5       -2.67361  -0.00003   0.00000  -0.00003  -0.00003  -2.67364
    Z5       -1.06177   0.00000   0.00000   0.00000   0.00000  -1.06177
    X6       -1.92906  -0.00002   0.00000  -0.00002  -0.00002  -1.92908
    Y6        2.17170  -0.00001   0.00000  -0.00001  -0.00001   2.17169
    Z6        1.14741   0.00000   0.00000   0.00000   0.00000   1.14742
    X7        0.89195  -0.00002   0.00000  -0.00002  -0.00002   0.89193
    Y7        2.10154   0.00000   0.00000   0.00000   0.00000   2.10154
    Z7        2.91955   0.00000   0.00000   0.00000   0.00000   2.91955
    X8        1.47577   0.00008   0.00000   0.00008   0.00008   1.47585
    Y8        2.67335   0.00005   0.00000   0.00005   0.00005   2.67340
    Z8       -1.06253  -0.00006   0.00000  -0.00006  -0.00006  -1.06259
    X9       -1.55215   0.00000   0.00000   0.00000   0.00000  -1.55215
    Y9       -4.72008  -0.00003   0.00000  -0.00003  -0.00003  -4.72010
    Z9       -0.81280  -0.00001   0.00000  -0.00001  -0.00001  -0.81281
   X10       -3.40629  -0.00009   0.00000  -0.00009  -0.00009  -3.40638
   Y10       -1.94879  -0.00004   0.00000  -0.00004  -0.00004  -1.94882
   Z10       -1.13277   0.00005   0.00000   0.00005   0.00005  -1.13273
   X11       -0.54046   0.00004   0.00000   0.00004   0.00004  -0.54043
   Y11       -2.27450   0.00006   0.00000   0.00006   0.00006  -2.27444
   Z11       -2.85463  -0.00004   0.00000  -0.00004  -0.00004  -2.85466
   X12        1.55151  -0.00001   0.00000  -0.00001  -0.00001   1.55151
   Y12        4.71990   0.00002   0.00000   0.00002   0.00002   4.71992
   Z12       -0.81402   0.00000   0.00000   0.00000   0.00000  -0.81401
   X13        3.40583   0.00008   0.00000   0.00008   0.00008   3.40592
   Y13        1.94882   0.00003   0.00000   0.00003   0.00003   1.94885
   Z13       -1.13397   0.00005   0.00000   0.00005   0.00005  -1.13391
   X14        0.53952  -0.00003   0.00000  -0.00003  -0.00003   0.53949
   Y14        2.27394  -0.00006   0.00000  -0.00006  -0.00006   2.27388
   Z14       -2.85521  -0.00002   0.00000  -0.00002  -0.00002  -2.85522
         Item               Value     Threshold  Converged?
 Maximum Force            0.000095     0.000450     YES
 RMS     Force            0.000038     0.000300     YES
 Maximum Displacement     0.000095     0.001800     YES
 RMS     Displacement     0.000038     0.001200     YES
 Predicted change in Energy=-3.091042D-08
 Optimization completed.
    -- Stationary point found.
 GradGradGradGradGradGradGradGradGradGradGradGradGradGradGradGradGradGrad

                          Input orientation:                          
 ---------------------------------------------------------------------
 Center     Atomic     Atomic              Coordinates (Angstroms)
 Number     Number      Type              X           Y           Z
 ---------------------------------------------------------------------
    1          6      10061003       -0.006835   -0.776383    0.614070
    2          6      10061003        0.006902    0.776383    0.613930
    3          1      10011000        1.020898   -1.149206    0.607107
    4          1      10011000       -0.471655   -1.111881    1.545247
    5          6      10061003       -0.781250   -1.414813   -0.561863
    6          1      10011000       -1.020814    1.149215    0.607185
    7          1      10011000        0.472002    1.112087    1.544957
    8          6      10061003        0.780945    1.414676   -0.562267
    9          1      10011000       -0.821361   -2.497757   -0.430118
   10          1      10011000       -1.802530   -1.031254   -0.599437
   11          1      10011000       -0.286001   -1.203614   -1.510603
   12          1      10011000        0.821026    2.497661   -0.430758
   13          1      10011000        1.802290    1.031270   -0.600069
   14          1      10011000        0.285501    1.203319   -1.510911
 ---------------------------------------------------------------------
                    Distance matrix (angstroms):
                    1          2          3          4          5
     1  C    0.000000
     2  C    1.552827   0.000000
     3  H    1.093289   2.176265   0.000000
     4  H    1.093484   2.159145   1.763296   0.000000
     5  C    1.546004   2.608642   2.164434   2.151169   0.000000
     6  H    2.176265   1.093275   3.074301   2.508803   2.828127
     7  H    2.159202   1.093538   2.508844   2.415889   3.520590
     8  C    2.608660   1.545963   2.828163   3.520527   3.232099
     9  H    2.171844   3.534975   2.507657   2.438239   1.091665
    10  H    2.182219   2.830876   3.072687   2.525351   1.091578
    11  H    2.185108   2.918874   2.489105   3.062859   1.090865
    12  H    3.535023   2.171859   3.796941   4.313284   4.229886
    13  H    2.831020   2.182242   2.611958   3.790291   3.558014
    14  H    2.918942   2.185141   3.249798   3.908137   2.982158
                    6          7          8          9         10
     6  H    0.000000
     7  H    1.763319   0.000000
     8  C    2.164353   2.151140   0.000000
     9  H    3.796865   4.313314   4.229891   0.000000
    10  H    2.611792   3.790228   3.557850   1.772566   0.000000
    11  H    3.249735   3.908131   2.982140   1.768860   1.777580
    12  H    2.507590   2.438255   1.091677   5.258482   4.400539
    13  H    3.072668   2.525339   1.091593   4.400734   4.153159
    14  H    2.489120   3.062913   1.090899   4.011386   3.191234
                   11         12         13         14
    11  H    0.000000
    12  H    4.011360   0.000000
    13  H    3.191354   1.772526   0.000000
    14  H    2.473851   1.768852   1.777606   0.000000
 Stoichiometry    C4H10
 Framework group  C1[X(C4H10)]
 Deg. of freedom    36
 Full point group                 C1
 Largest Abelian subgroup         C1      NOp   1
 Largest concise Abelian subgroup C1      NOp   1
                         Standard orientation:                         
 ---------------------------------------------------------------------
 Center     Atomic     Atomic              Coordinates (Angstroms)
 Number     Number      Type              X           Y           Z
 ---------------------------------------------------------------------
    1          6      10061003       -0.710001    0.618556    0.314213
    2          6      10061003        0.709974    0.618514   -0.314230
    3          1      10011000       -0.625349    0.611749    1.404198
    4          1      10011000       -1.207571    1.549631    0.029205
    5          6      10061003       -1.611018   -0.557551   -0.127458
    6          1      10011000        0.625338    0.611612   -1.404202
    7          1      10011000        1.207610    1.549642   -0.029300
    8          6      10061003        1.611012   -0.557510    0.127472
    9          1      10011000       -2.613969   -0.425879    0.283011
   10          1      10011000       -1.683222   -0.595279   -1.215991
   11          1      10011000       -1.214100   -1.506192    0.236577
   12          1      10011000        2.613955   -0.425928   -0.283076
   13          1      10011000        1.683393   -0.595157    1.216012
   14          1      10011000        1.214112   -1.506253   -0.236422
 ---------------------------------------------------------------------
 Rotational constants (GHZ):     13.3450422      4.5710867      3.9344324
 1|1|UNPC-UNK|FOpt|Dreiding|ZDO|C4H10|PCUSER|13-Dec-2007|0||# opt dreid
 ing||butane-g||0,1|C,-0.0068351214,-0.7763826263,0.6140696445|C,0.0069
 021572,0.7763832255,0.6139304267|H,1.0208977461,-1.1492062199,0.607107
 2557|H,-0.4716551262,-1.1118808354,1.5452468788|C,-0.7812502616,-1.414
 8131211,-0.561862711|H,-1.0208141434,1.14921503,0.6071848565|H,0.47200
 16924,1.1120869946,1.5449574757|C,0.780945011,1.4146763641,-0.56226701
 76|H,-0.8213612011,-2.4977565977,-0.4301178111|H,-1.8025298556,-1.0312
 537084,-0.599437153|H,-0.2860008568,-1.2036135202,-1.5106034121|H,0.82
 10259795,2.4976614836,-0.4307584404|H,1.8022902023,1.031270127,-0.6000
 68814|H,0.2855014576,1.2033193441,-1.5109105986||Version=IA32W-G03RevD
 .01|HF=0.0085351|RMSD=0.000e+000|RMSF=3.837e-005|Thermal=0.|Dipole=0.,
 0.,0.|PG=C01 [X(C4H10)]||@


 One man practicing sportsmanship is far better than 50 preaching it.
 -- Knute K. Rockne
 Job cpu time:  0 days  0 hours  0 minutes  3.0 seconds.
 File lengths (MBytes):  RWF=     11 Int=      0 D2E=      0 Chk=      4 Scr=      1
 Normal termination of Gaussian 03 at Thu Dec 13 16:18:01 2007.
