 Entering Link 1 = C:\G03W\l1.exe PID=      3388.
  
 Copyright (c) 1988,1990,1992,1993,1995,1998,2003,2004, Gaussian, Inc.
                  All Rights Reserved.
  
 This is the Gaussian(R) 03 program.  It is based on the
 the Gaussian(R) 98 system (copyright 1998, Gaussian, Inc.),
 the Gaussian(R) 94 system (copyright 1995, Gaussian, Inc.),
 the Gaussian 92(TM) system (copyright 1992, Gaussian, Inc.),
 the Gaussian 90(TM) system (copyright 1990, Gaussian, Inc.),
 the Gaussian 88(TM) system (copyright 1988, Gaussian, Inc.),
 the Gaussian 86(TM) system (copyright 1986, Carnegie Mellon
 University), and the Gaussian 82(TM) system (copyright 1983,
 Carnegie Mellon University). Gaussian is a federally registered
 trademark of Gaussian, Inc.
  
 This software contains proprietary and confidential information,
 including trade secrets, belonging to Gaussian, Inc.
  
 This software is provided under written license and may be
 used, copied, transmitted, or stored only in accord with that
 written license.
  
 The following legend is applicable only to US Government
 contracts under FAR:
  
                    RESTRICTED RIGHTS LEGEND
  
 Use, reproduction and disclosure by the US Government is
 subject to restrictions as set forth in subparagraphs (a)
 and (c) of the Commercial Computer Software - Restricted
 Rights clause in FAR 52.227-19.
  
 Gaussian, Inc.
 340 Quinnipiac St., Bldg. 40, Wallingford CT 06492
  
  
 ---------------------------------------------------------------
 Warning -- This program may not be used in any manner that
 competes with the business of Gaussian, Inc. or will provide
 assistance to any competitor of Gaussian, Inc.  The licensee
 of this program is prohibited from giving any competitor of
 Gaussian, Inc. access to this program.  By using this program,
 the user acknowledges that Gaussian, Inc. is engaged in the
 business of creating and licensing software in the field of
 computational chemistry and represents and warrants to the
 licensee that it is not a competitor of Gaussian, Inc. and that
 it will not use this program in any manner prohibited above.
 ---------------------------------------------------------------
  

 Cite this work as:
 Gaussian 03, Revision D.01,
 M. J. Frisch, G. W. Trucks, H. B. Schlegel, G. E. Scuseria, 
 M. A. Robb, J. R. Cheeseman, J. A. Montgomery, Jr., T. Vreven, 
 K. N. Kudin, J. C. Burant, J. M. Millam, S. S. Iyengar, J. Tomasi, 
 V. Barone, B. Mennucci, M. Cossi, G. Scalmani, N. Rega, 
 G. A. Petersson, H. Nakatsuji, M. Hada, M. Ehara, K. Toyota, 
 R. Fukuda, J. Hasegawa, M. Ishida, T. Nakajima, Y. Honda, O. Kitao, 
 H. Nakai, M. Klene, X. Li, J. E. Knox, H. P. Hratchian, J. B. Cross, 
 V. Bakken, C. Adamo, J. Jaramillo, R. Gomperts, R. E. Stratmann, 
 O. Yazyev, A. J. Austin, R. Cammi, C. Pomelli, J. W. Ochterski, 
 P. Y. Ayala, K. Morokuma, G. A. Voth, P. Salvador, J. J. Dannenberg, 
 V. G. Zakrzewski, S. Dapprich, A. D. Daniels, M. C. Strain, 
 O. Farkas, D. K. Malick, A. D. Rabuck, K. Raghavachari, 
 J. B. Foresman, J. V. Ortiz, Q. Cui, A. G. Baboul, S. Clifford, 
 J. Cioslowski, B. B. Stefanov, G. Liu, A. Liashenko, P. Piskorz, 
 I. Komaromi, R. L. Martin, D. J. Fox, T. Keith, M. A. Al-Laham, 
 C. Y. Peng, A. Nanayakkara, M. Challacombe, P. M. W. Gill, 
 B. Johnson, W. Chen, M. W. Wong, C. Gonzalez, and J. A. Pople, 
 Gaussian, Inc., Wallingford CT, 2004.
 
 ******************************************
 Gaussian 03:  IA32W-G03RevD.01 13-Oct-2005
                13-Dec-2007 
 ******************************************
 --------------
 # opt dreiding
 --------------
 1/6=10,10=10,14=-1,18=4000020,38=1,56=1,64=1/1,3;
 2/9=110,17=6,18=5,40=1/2;
 3/5=30,11=9,16=1,25=1,30=1/1;
 4/20=9,22=1001,24=3/2;
 7/44=-1/16;
 1/6=10,10=10,14=-1,18=4000020,64=1/3(2);
 2/9=110/2;
 99//99;
 2/9=110/2;
 3/5=30,11=9,16=1,25=1,30=1/1;
 4/16=2,20=9,22=1001,24=3/2;
 7/44=-1/16;
 1/6=10,10=10,14=-1,18=4000020,64=1/3(-4);
 2/9=110/2;
 99//99;
 ---------------------
 cyclohexene-halfchair
 ---------------------
 Symbolic Z-matrix:
 Charge =  0 Multiplicity = 1
 C                    -1.20859  -0.73415  -0.38465 
 C                    -0.14359  -1.45815  -0.00965 
 C                     1.16641  -0.84415   0.40835 
 C                    -1.21059   0.77185  -0.42065 
 C                     0.21141   1.34685  -0.37165 
 C                     1.01941   0.64985   0.73035 
 H                    -2.14159  -1.25015  -0.66865 
 H                    -0.20759  -2.56015  -0.01665 
 H                     1.89741  -0.99415  -0.42065 
 H                     1.55741  -1.37815   1.30635 
 H                    -1.80959   1.13685   0.44635 
 H                    -1.71659   1.11885  -1.35265 
 H                     0.17241   2.44785  -0.19465 
 H                     0.72141   1.18785  -1.35265 
 H                     0.49241   0.77985   1.70535 
 H                     2.02741   1.11885   0.83535 
 
 I=    1 IAn=  6 Valence= 6.
          JB=  1 J=    2 IAn=  6 IBT= 2 Dist= 1.34D+00
          JB=  2 J=    4 IAn=  6 IBT= 1 Dist= 1.51D+00
          JB=  3 J=    7 IAn=  1 IBT= 1 Dist= 1.10D+00
 I=    2 IAn=  6 Valence= 6.
          JB=  1 J=    1 IAn=  6 IBT= 2 Dist= 1.34D+00
          JB=  2 J=    3 IAn=  6 IBT= 1 Dist= 1.51D+00
          JB=  3 J=    8 IAn=  1 IBT= 1 Dist= 1.10D+00
 Include all MM classes
 MMInit generated parameter data with length LenPar=  1832.

 GradGradGradGradGradGradGradGradGradGradGradGradGradGradGradGradGradGrad
 Berny optimization.
 Initialization pass.
 No Z-matrix variables, so optimization will use Cartesian coordinates.
 Trust Radius=1.00D-01 FncErr=1.00D-07 GrdErr=1.00D-07
 Number of steps in this run=   2 maximum allowed number of steps=   2.
 GradGradGradGradGradGradGradGradGradGradGradGradGradGradGradGradGradGrad

                          Input orientation:                          
 ---------------------------------------------------------------------
 Center     Atomic     Atomic              Coordinates (Angstroms)
 Number     Number      Type              X           Y           Z
 ---------------------------------------------------------------------
    1          6      10061002       -1.208587   -0.734152   -0.384652
    2          6      10061002       -0.143587   -1.458152   -0.009652
    3          6      10061003        1.166413   -0.844152    0.408348
    4          6      10061003       -1.210587    0.771848   -0.420652
    5          6      10061003        0.211413    1.346848   -0.371652
    6          6      10061003        1.019413    0.649848    0.730348
    7          1      10011000       -2.141587   -1.250152   -0.668652
    8          1      10011000       -0.207587   -2.560152   -0.016652
    9          1      10011000        1.897413   -0.994152   -0.420652
   10          1      10011000        1.557413   -1.378152    1.306348
   11          1      10011000       -1.809587    1.136848    0.446348
   12          1      10011000       -1.716587    1.118848   -1.352652
   13          1      10011000        0.172413    2.447848   -0.194652
   14          1      10011000        0.721413    1.187848   -1.352652
   15          1      10011000        0.492413    0.779848    1.705348
   16          1      10011000        2.027413    1.118848    0.835348
 ---------------------------------------------------------------------
                    Distance matrix (angstroms):
                    1          2          3          4          5
     1  C    0.000000
     2  C    1.341278   0.000000
     3  C    2.506307   1.505928   0.000000
     4  C    1.506432   2.506055   2.991459   0.000000
     5  C    2.519351   2.850455   2.514141   1.534637   0.000000
     6  C    2.850029   2.518697   1.535360   2.512486   1.533974
     7  H    1.103359   2.114131   3.502518   2.239810   3.516991
     8  H    2.114640   1.103879   2.239008   3.503063   3.945407
     9  H    3.117071   2.133049   1.115393   3.574692   2.885356
    10  H    3.305295   2.152128   1.115545   3.907282   3.471747
    11  H    2.133636   3.117293   3.575246   1.115220   2.190357
    12  H    2.151441   3.304377   3.907196   1.115827   2.175208
    13  H    3.473958   3.923126   3.491262   2.184660   1.115819
    14  H    2.890676   3.090824   2.725467   2.185018   1.117024
    15  H    3.090906   2.890392   2.184917   2.723995   2.171262
    16  H    3.923481   3.473931   2.185639   3.490357   2.192416
                    6          7          8          9         10
     6  C    0.000000
     7  H    3.944505   0.000000
     8  H    3.516765   2.425193   0.000000
     9  H    2.190530   4.054696   2.654543   0.000000
    10  H    2.175777   4.195189   2.502534   1.801551   0.000000
    11  H    2.884626   2.655413   4.055685   4.362877   4.289699
    12  H    3.470525   2.502127   4.194880   4.288868   4.901466
    13  H    2.192222   4.387992   5.025550   3.856691   4.336992
    14  H    2.171897   3.822103   4.086006   2.648155   3.788606
    15  H    1.115909   4.085919   3.822419   3.104992   2.439342
    16  H    1.116714   5.025409   4.388185   2.461545   2.584134
                   11         12         13         14         15
    11  H    0.000000
    12  H    1.801492   0.000000
    13  H    2.461285   2.583704   0.000000
    14  H    3.105634   2.438976   1.797210   0.000000
    15  H    2.647968   3.787607   2.548455   3.093585   0.000000
    16  H    3.856710   4.336459   2.503631   2.549067   1.796676
                   16
    16  H    0.000000
 Stoichiometry    C6H10
 Framework group  C1[X(C6H10)]
 Deg. of freedom    42
 Full point group                 C1
 Largest Abelian subgroup         C1      NOp   1
 Largest concise Abelian subgroup C1      NOp   1
                         Standard orientation:                         
 ---------------------------------------------------------------------
 Center     Atomic     Atomic              Coordinates (Angstroms)
 Number     Number      Type              X           Y           Z
 ---------------------------------------------------------------------
    1          6      10061002       -0.663548    1.305627   -0.051586
    2          6      10061002        0.673737    1.300125    0.051679
    3          6      10061003        1.491436    0.037311    0.118682
    4          6      10061003       -1.490532    0.048302   -0.119167
    5          6      10061003       -0.695655   -1.183906    0.333542
    6          6      10061003        0.685689   -1.188917   -0.333496
    7          1      10011000       -1.198636    2.268975   -0.106737
    8          1      10011000        1.217079    2.259417    0.107248
    9          1      10011000        1.840617   -0.091777    1.170115
   10          1      10011000        2.394120    0.144293   -0.527969
   11          1      10011000       -1.841412   -0.077738   -1.170219
   12          1      10011000       -2.392216    0.163466    0.527959
   13          1      10011000       -1.257573   -2.114553    0.082155
   14          1      10011000       -0.564081   -1.166891    1.442659
   15          1      10011000        0.554653   -1.171806   -1.441553
   16          1      10011000        1.240677   -2.124640   -0.081581
 ---------------------------------------------------------------------
 Rotational constants (GHZ):      4.7076243      4.5427852      2.5607440
 Standard basis: Dummy (5D, 7F)
 There are    16 symmetry adapted basis functions of A   symmetry.
 Integral buffers will be    262144 words long.
 Raffenetti 1 integral format.
 Two-electron integral symmetry is turned on.
    16 basis functions,    16 primitive gaussians,    16 cartesian basis functions
    11 alpha electrons       11 beta electrons
       nuclear repulsion energy        52.3095371492 Hartrees.
 NAtoms=   16 NActive=   16 NUniq=   16 SFac= 7.50D-01 NAtFMM=   80 NAOKFM=F Big=F
 Dreiding calculation of energy and first derivatives.
 MO and density RWFs will be updated without deorthogonalization.
 NRF= 0 NRA=   0 NVA=  16 HaveQM=F
 Convergence limit is  0.750E-04 MaxStp=  5000 StMxLn= 1.00D-04 StpMin= 1.00D-06.
 Convergence criteria           0.00011250 0.00007500 0.00045000 0.00030000
  Step  NS  ND Rises OKQ   Scale  Max. Force  RMS Force Max. Disp.  RMS Disp.     Energy   Flag
     1   0   0   F    T  1.00D+00 0.05602116 0.02199703 0.05602116 0.02199703    0.0441824 ----
     2   0   0   F    T  1.64D+00 0.04687893 0.01179715 0.04122279 0.01338663    0.0325897 ----
     3   0   0   F    F -1.91D-01 0.04687893 0.01179715 0.06773765 0.02199703    0.0284007 ----
     4   0   0   F    T  2.32D+00 0.01641546 0.00651308 0.01812056 0.00767382    0.0281535 ----
     5   0   0   F    F -8.16D-02 0.01641546 0.00651308 0.04202121 0.01779543    0.0259992 ----
     6   0   0   F    T  3.63D+00 0.00839121 0.00373492 0.01160072 0.00450575    0.0259819 ----
     7   0   0   F    F -1.51D-01 0.00839121 0.00373492 0.04207717 0.01634288    0.0249852 ----
     8   0   0   F    T  4.87D+00 0.00484991 0.00229612 0.00605105 0.00285146    0.0249527 ----
     9   0   0   T    F  4.92D-01 0.00484991 0.00229612 0.02943940 0.01387285    0.0249738 ----
    10   0   0   F    T  2.81D+00 0.00369662 0.00175405 0.00543346 0.00242994    0.0246499 ----
    11   0   0   F    F  1.15D-01 0.00369662 0.00175405 0.01525163 0.00682081    0.0244211 ----
    12   0   0   F    T  3.78D+00 0.00401018 0.00136760 0.00450166 0.00201232    0.0244187 ----
    13   0   0   F    F -8.15D-02 0.00401018 0.00136760 0.01701671 0.00760677    0.0242639 ----
    14   0   0   F    T  4.54D+00 0.00245142 0.00103392 0.00326700 0.00153965    0.0242627 ----
    15   0   0   T    F  3.65D-01 0.00245142 0.00103392 0.01482618 0.00698717    0.0243490 ----
    16   0   0   F    T  1.30D+00 0.00339069 0.00107108 0.00513006 0.00196903    0.0242202 ----
    17   0   0   F    F  2.20D+00 0.00339069 0.00107108 0.00664359 0.00254996    0.0241600 ----
    18   0   0   F    T  1.27D+00 0.00505886 0.00189445 0.01723367 0.00644069    0.0241060 ----
    19   0   0   F    F  1.61D+00 0.00505886 0.00189445 0.02186465 0.00817141    0.0239302 ----
    20   0   0   F    T  9.56D+00 0.00220022 0.00101717 0.00638098 0.00223381    0.0238233 ----
    21   0   0   T    F  3.31D-01 0.00220022 0.00101717 0.06097438 0.02134546    0.0240650 ----
    22   0   0   F    T  2.03D+00 0.00371821 0.00122481 0.01080546 0.00348831    0.0237448 ----
    23   0   0   F    F  5.95D-01 0.00371821 0.00122481 0.02189789 0.00706926    0.0236447 ----
    24   0   0   F    T  3.48D+00 0.00325972 0.00114038 0.01046855 0.00323708    0.0236285 ----
    25   0   0   F    F -2.10D-01 0.00325972 0.00114038 0.03645935 0.01127393    0.0235489 ----
    26   0   0   F    T  2.23D+00 0.00408982 0.00123462 0.01311786 0.00399767    0.0235428 ----
    27   0   0   F    F -3.88D-01 0.00408982 0.00123462 0.02921043 0.00890190    0.0235130 ----
    28   0   0   F    T  3.50D+00 0.00232104 0.00072294 0.00479834 0.00155489    0.0234929 ----
    29   0   0   T    F  4.27D-01 0.00232104 0.00072294 0.01681559 0.00544907    0.0235079 ----
    30   0   0   F    T  2.79D+00 0.00099346 0.00047973 0.00209240 0.00083586    0.0234742 ----
    31   0   0   F    F  9.58D-01 0.00099346 0.00047973 0.00582877 0.00232846    0.0234513 ----
    32   0   0   F    T  5.49D+00 0.00130052 0.00043964 0.00197452 0.00083116    0.0234441 ----
    33   0   0   T    F  3.02D-01 0.00130052 0.00043964 0.01083089 0.00455917    0.0234775 ----
    34   0   0   F    T  6.60D+00 0.00034443 0.00016879 0.00047110 0.00020871    0.0234364 ---+
    35   0   0   F    F -4.01D-01 0.00034443 0.00016879 0.00310835 0.00137707    0.0234349 ----
    36   0   0   F    T  1.45D+00 0.00113691 0.00026301 0.00132128 0.00057097    0.0234337 ----
    37   0   0   F    T  3.29D+00 0.00045805 0.00014931 0.00057034 0.00025094    0.0234314 ---+
    38   0   0   F    F -4.84D-01 0.00045805 0.00014931 0.00187606 0.00082543    0.0234313 ----
    39   0   0   F    T  4.20D+00 0.00021413 0.00008200 0.00024728 0.00010143    0.0234305 --++
    40   0   0   T    F  4.92D-01 0.00021413 0.00008200 0.00103921 0.00042627    0.0234305 ----
    41   0   0   F    T  1.92D+00 0.00020830 0.00007283 0.00030021 0.00010897    0.0234302 -+++
    42   0   0   F    F  1.37D+00 0.00020830 0.00007283 0.00057790 0.00020977    0.0234298 -+-+
    43   0   0   F    T  4.13D+00 0.00027148 0.00006922 0.00034522 0.00012033    0.0234296 -+++
    44   0   0   T    F  4.59D-01 0.00027148 0.00006922 0.00142431 0.00049647    0.0234297 -+--
    45   0   0   F    T  3.31D+00 0.00017682 0.00004541 0.00017412 0.00006888    0.0234294 -+++
    46   0   0   T    F  3.11D-01 0.00017682 0.00004541 0.00057555 0.00022767    0.0234296 -+-+
    47   0   0   F    T  2.58D+00 0.00006807 0.00002212 0.00007474 0.00002750    0.0234293 ====
 Energy=    0.023429334877 NIter=   0.
 Dipole moment=       0.000000       0.000000       0.000000
 ***** Axes restored to original set *****
 -------------------------------------------------------------------
 Center     Atomic                   Forces (Hartrees/Bohr)
 Number     Number              X              Y              Z
 -------------------------------------------------------------------
    1          6           0.000034616   -0.000012720    0.000001255
    2          6          -0.000081982    0.000002987   -0.000010619
    3          6           0.000050924   -0.000013260    0.000008683
    4          6          -0.000021106    0.000022274   -0.000007973
    5          6          -0.000006242    0.000023191    0.000002159
    6          6           0.000028190   -0.000058533   -0.000004133
    7          1          -0.000008821   -0.000007516    0.000013519
    8          1           0.000022184   -0.000001972   -0.000010172
    9          1          -0.000000496    0.000003236    0.000018422
   10          1          -0.000011909    0.000013486   -0.000003990
   11          1          -0.000005667    0.000003104   -0.000009997
   12          1           0.000005601   -0.000007627   -0.000003436
   13          1          -0.000030125    0.000028659    0.000014149
   14          1           0.000003243   -0.000008002   -0.000015542
   15          1          -0.000016708    0.000008275    0.000022006
   16          1           0.000038299    0.000004419   -0.000014331
 -------------------------------------------------------------------
 Cartesian Forces:  Max     0.000081982 RMS     0.000022122

 GradGradGradGradGradGradGradGradGradGradGradGradGradGradGradGradGradGrad
 Berny optimization.
 Search for a local minimum.
 Step number   1 out of a maximum of   2
 All quantities printed in internal units (Hartrees-Bohrs-Radians)
 Second derivative matrix not updated -- unit matrix used.
 RFO step:  Lambda=-2.34914348D-08.
 Linear search not attempted -- first point.
 TrRot=  0.000000  0.000000  0.000000  0.000000  0.000000  0.000000
 Variable       Old X    -DE/DX   Delta X   Delta X   Delta X     New X
                                 (Linear)    (Quad)   (Total)
    X1       -2.27857   0.00003   0.00000   0.00003   0.00003  -2.27854
    Y1       -1.38339  -0.00001   0.00000  -0.00001  -0.00001  -1.38340
    Z1       -0.74336   0.00000   0.00000   0.00000   0.00000  -0.74336
    X2       -0.27267  -0.00008   0.00000  -0.00008  -0.00008  -0.27275
    Y2       -2.75395   0.00000   0.00000   0.00000   0.00000  -2.75395
    Z2       -0.00049  -0.00001   0.00000  -0.00001  -0.00001  -0.00050
    X3        2.12091   0.00005   0.00000   0.00005   0.00005   2.12096
    Y3       -1.65063  -0.00001   0.00000  -0.00001  -0.00001  -1.65064
    Z3        0.79183   0.00001   0.00000   0.00001   0.00001   0.79184
    X4       -2.29558  -0.00002   0.00000  -0.00002  -0.00002  -2.29560
    Y4        1.36697   0.00002   0.00000   0.00002   0.00002   1.36699
    Z4       -0.84297  -0.00001   0.00000  -0.00001  -0.00001  -0.84298
    X5        0.36458  -0.00001   0.00000  -0.00001  -0.00001   0.36457
    Y5        2.59903   0.00002   0.00000   0.00002   0.00002   2.59905
    Z5       -0.65858   0.00000   0.00000   0.00000   0.00000  -0.65858
    X6        1.99805   0.00003   0.00000   0.00003   0.00003   1.99808
    Y6        1.23139  -0.00006   0.00000  -0.00006  -0.00006   1.23133
    Z6        1.34656   0.00000   0.00000   0.00000   0.00000   1.34655
    X7       -3.84941  -0.00001   0.00000  -0.00001  -0.00001  -3.84942
    Y7       -2.29055  -0.00001   0.00000  -0.00001  -0.00001  -2.29056
    Z7       -1.23665   0.00001   0.00000   0.00001   0.00001  -1.23664
    X8       -0.41739   0.00002   0.00000   0.00002   0.00002  -0.41737
    Y8       -4.62823   0.00000   0.00000   0.00000   0.00000  -4.62823
    Z8       -0.00718  -0.00001   0.00000  -0.00001  -0.00001  -0.00719
    X9        3.50478   0.00000   0.00000   0.00000   0.00000   3.50478
    Y9       -1.99808   0.00000   0.00000   0.00000   0.00000  -1.99808
    Z9       -0.70192   0.00002   0.00000   0.00002   0.00002  -0.70190
   X10        2.77593  -0.00001   0.00000  -0.00001  -0.00001   2.77591
   Y10       -2.61819   0.00001   0.00000   0.00001   0.00001  -2.61818
   Z10        2.49550   0.00000   0.00000   0.00000   0.00000   2.49550
   X11       -3.47177  -0.00001   0.00000  -0.00001  -0.00001  -3.47177
   Y11        2.05078   0.00000   0.00000   0.00000   0.00000   2.05079
   Z11        0.71136  -0.00001   0.00000  -0.00001  -0.00001   0.71135
   X12       -3.17543   0.00001   0.00000   0.00001   0.00001  -3.17543
   Y12        1.97024  -0.00001   0.00000  -0.00001  -0.00001   1.97023
   Z12       -2.61201   0.00000   0.00000   0.00000   0.00000  -2.61201
   X13        0.17957  -0.00003   0.00000  -0.00003  -0.00003   0.17954
   Y13        4.59744   0.00003   0.00000   0.00003   0.00003   4.59747
   Z13       -0.16952   0.00001   0.00000   0.00001   0.00001  -0.16951
   X14        1.30746   0.00000   0.00000   0.00000   0.00000   1.30747
   Y14        2.47696  -0.00001   0.00000  -0.00001  -0.00001   2.47695
   Z14       -2.49478  -0.00002   0.00000  -0.00002  -0.00002  -2.49480
   X15        1.16831  -0.00002   0.00000  -0.00002  -0.00002   1.16830
   Y15        1.53671   0.00001   0.00000   0.00001   0.00001   1.53672
   Z15        3.21571   0.00002   0.00000   0.00002   0.00002   3.21573
   X16        3.90518   0.00004   0.00000   0.00004   0.00004   3.90522
   Y16        2.02493   0.00000   0.00000   0.00000   0.00000   2.02493
   Z16        1.35921  -0.00001   0.00000  -0.00001  -0.00001   1.35920
         Item               Value     Threshold  Converged?
 Maximum Force            0.000082     0.000450     YES
 RMS     Force            0.000022     0.000300     YES
 Maximum Displacement     0.000082     0.001800     YES
 RMS     Displacement     0.000022     0.001200     YES
 Predicted change in Energy=-1.174572D-08
 Optimization completed.
    -- Stationary point found.
 GradGradGradGradGradGradGradGradGradGradGradGradGradGradGradGradGradGrad

                          Input orientation:                          
 ---------------------------------------------------------------------
 Center     Atomic     Atomic              Coordinates (Angstroms)
 Number     Number      Type              X           Y           Z
 ---------------------------------------------------------------------
    1          6      10061002       -1.205769   -0.732060   -0.393369
    2          6      10061002       -0.144292   -1.457330   -0.000258
    3          6      10061003        1.122339   -0.873473    0.419019
    4          6      10061003       -1.214769    0.723368   -0.446082
    5          6      10061003        0.192927    1.375346   -0.348507
    6          6      10061003        1.057323    0.651625    0.712568
    7          1      10011000       -2.037021   -1.212106   -0.654406
    8          1      10011000       -0.220875   -2.449152   -0.003801
    9          1      10011000        1.854652   -1.057341   -0.371441
   10          1      10011000        1.468957   -1.385487    1.320563
   11          1      10011000       -1.837179    1.085227    0.376438
   12          1      10011000       -1.680368    1.042604   -1.382215
   13          1      10011000        0.095027    2.432860   -0.089706
   14          1      10011000        0.691880    1.310748   -1.320181
   15          1      10011000        0.618245    0.813190    1.701679
   16          1      10011000        2.066533    1.071545    0.719266
 ---------------------------------------------------------------------
                    Distance matrix (angstroms):
                    1          2          3          4          5
     1  C    0.000000
     2  C    1.344354   0.000000
     3  C    2.469830   1.456378   0.000000
     4  C    1.456409   2.469842   2.959794   0.000000
     5  C    2.529728   2.873856   2.551489   1.554415   0.000000
     6  C    2.873893   2.529760   1.554452   2.551474   1.548171
     7  H    0.994769   2.017540   3.353874   2.113187   3.429454
     8  H    2.017470   0.994781   2.113236   3.353851   3.862232
     9  H    3.077737   2.072087   1.093122   3.549344   2.946154
    10  H    3.243253   2.086217   1.093198   3.843265   3.469330
    11  H    2.072152   3.077720   3.549235   1.093104   2.175096
    12  H    2.086263   3.243301   3.843301   1.093179   2.165295
    13  H    3.435258   3.898570   3.499430   2.182872   1.093113
    14  H    2.938217   3.178622   2.825056   2.178159   1.094202
    15  H    3.178687   2.938250   2.178110   2.825046   2.167989
    16  H    3.898578   3.435211   2.182831   3.499458   2.177805
                    6          7          8          9         10
     6  C    0.000000
     7  H    3.862263   0.000000
     8  H    3.429546   2.291714   0.000000
     9  H    2.175172   3.905015   2.525888   0.000000
    10  H    2.165393   4.027710   2.396008   1.766158   0.000000
    11  H    2.946037   2.525930   3.904978   4.333536   4.233951
    12  H    3.469284   2.395961   4.027717   4.234123   4.808210
    13  H    2.177718   4.260316   4.892976   3.918820   4.296081
    14  H    2.167963   3.775573   4.086909   2.803568   3.853189
    15  H    1.094181   4.086980   3.775667   3.053754   2.388125
    16  H    1.093108   4.892975   4.260326   2.401394   2.599166
                   11         12         13         14         15
    11  H    0.000000
    12  H    1.766145   0.000000
    13  H    2.401421   2.599118   0.000000
    14  H    3.053771   2.388160   1.769021   0.000000
    15  H    2.803458   3.853136   2.471062   3.063434   0.000000
    16  H    3.918761   4.296083   2.528725   2.471080   1.769017
                   16
    16  H    0.000000
 Stoichiometry    C6H10
 Framework group  C1[X(C6H10)]
 Deg. of freedom    42
 Full point group                 C1
 Largest Abelian subgroup         C1      NOp   1
 Largest concise Abelian subgroup C1      NOp   1
                         Standard orientation:                         
 ---------------------------------------------------------------------
 Center     Atomic     Atomic              Coordinates (Angstroms)
 Number     Number      Type              X           Y           Z
 ---------------------------------------------------------------------
    1          6      10061002        0.670227    1.295378    0.050067
    2          6      10061002       -0.670390    1.295283   -0.050099
    3          6      10061003       -1.475774    0.083362   -0.110431
    4          6      10061003        1.475762    0.083524    0.110501
    5          6      10061003        0.715683   -1.210266   -0.295197
    6          6      10061003       -0.715511   -1.210401    0.295156
    7          1      10011000        1.141771    2.170097    0.095631
    8          1      10011000       -1.141942    2.170011   -0.095697
    9          1      10011000       -1.846868   -0.022435   -1.133179
   10          1      10011000       -2.340792    0.197929    0.548129
   11          1      10011000        1.846743   -0.022310    1.133266
   12          1      10011000        2.340815    0.198120   -0.547975
   13          1      10011000        1.263152   -2.088316    0.057226
   14          1      10011000        0.652105   -1.267905   -1.386029
   15          1      10011000       -0.651985   -1.268051    1.385970
   16          1      10011000       -1.262977   -2.088422   -0.057326
 ---------------------------------------------------------------------
 Rotational constants (GHZ):      4.7371856      4.6154206      2.5639230
 1|1|UNPC-UNK|FOpt|Dreiding|ZDO|C6H10|PCUSER|13-Dec-2007|0||# opt dreid
 ing||cyclohexene-halfchair||0,1|C,-1.2057694182,-0.7320595038,-0.39336
 85491|C,-0.1442920093,-1.4573296305,-0.0002581829|C,1.1223392359,-0.87
 34734992,0.4190193415|C,-1.2147692229,0.7233678551,-0.4460818986|C,0.1
 929267761,1.3753462737,-0.3485073324|C,1.0573225897,0.6516245844,0.712
 5679678|H,-2.0370210341,-1.2121064945,-0.6544064074|H,-0.2208754103,-2
 .4491517055,-0.0038014888|H,1.8546517441,-1.0573408789,-0.3714406254|H
 ,1.4689569702,-1.3854872823,1.3205627009|H,-1.8371790138,1.0852274644,
 0.3764381194|H,-1.6803677021,1.042604411,-1.3822151184|H,0.0950268898,
 2.4328597162,-0.0897062329|H,0.691879662,1.3107482248,-1.3201814768|H,
 0.61824513,0.8131903198,1.701678867|H,2.0665334528,1.0715454253,0.7192
 655961||Version=IA32W-G03RevD.01|HF=0.0234293|RMSD=0.000e+000|RMSF=2.2
 12e-005|Thermal=0.|Dipole=0.,0.,0.|PG=C01 [X(C6H10)]||@


 One man practicing sportsmanship is far better than 50 preaching it.
 -- Knute K. Rockne
 Job cpu time:  0 days  0 hours  0 minutes  2.0 seconds.
 File lengths (MBytes):  RWF=     11 Int=      0 D2E=      0 Chk=      4 Scr=      1
 Normal termination of Gaussian 03 at Thu Dec 13 16:18:15 2007.
