 Entering Link 1 = C:\G03W\l1.exe PID=      3220.
  
 Copyright (c) 1988,1990,1992,1993,1995,1998,2003,2004, Gaussian, Inc.
                  All Rights Reserved.
  
 This is the Gaussian(R) 03 program.  It is based on the
 the Gaussian(R) 98 system (copyright 1998, Gaussian, Inc.),
 the Gaussian(R) 94 system (copyright 1995, Gaussian, Inc.),
 the Gaussian 92(TM) system (copyright 1992, Gaussian, Inc.),
 the Gaussian 90(TM) system (copyright 1990, Gaussian, Inc.),
 the Gaussian 88(TM) system (copyright 1988, Gaussian, Inc.),
 the Gaussian 86(TM) system (copyright 1986, Carnegie Mellon
 University), and the Gaussian 82(TM) system (copyright 1983,
 Carnegie Mellon University). Gaussian is a federally registered
 trademark of Gaussian, Inc.
  
 This software contains proprietary and confidential information,
 including trade secrets, belonging to Gaussian, Inc.
  
 This software is provided under written license and may be
 used, copied, transmitted, or stored only in accord with that
 written license.
  
 The following legend is applicable only to US Government
 contracts under FAR:
  
                    RESTRICTED RIGHTS LEGEND
  
 Use, reproduction and disclosure by the US Government is
 subject to restrictions as set forth in subparagraphs (a)
 and (c) of the Commercial Computer Software - Restricted
 Rights clause in FAR 52.227-19.
  
 Gaussian, Inc.
 340 Quinnipiac St., Bldg. 40, Wallingford CT 06492
  
  
 ---------------------------------------------------------------
 Warning -- This program may not be used in any manner that
 competes with the business of Gaussian, Inc. or will provide
 assistance to any competitor of Gaussian, Inc.  The licensee
 of this program is prohibited from giving any competitor of
 Gaussian, Inc. access to this program.  By using this program,
 the user acknowledges that Gaussian, Inc. is engaged in the
 business of creating and licensing software in the field of
 computational chemistry and represents and warrants to the
 licensee that it is not a competitor of Gaussian, Inc. and that
 it will not use this program in any manner prohibited above.
 ---------------------------------------------------------------
  

 Cite this work as:
 Gaussian 03, Revision D.01,
 M. J. Frisch, G. W. Trucks, H. B. Schlegel, G. E. Scuseria, 
 M. A. Robb, J. R. Cheeseman, J. A. Montgomery, Jr., T. Vreven, 
 K. N. Kudin, J. C. Burant, J. M. Millam, S. S. Iyengar, J. Tomasi, 
 V. Barone, B. Mennucci, M. Cossi, G. Scalmani, N. Rega, 
 G. A. Petersson, H. Nakatsuji, M. Hada, M. Ehara, K. Toyota, 
 R. Fukuda, J. Hasegawa, M. Ishida, T. Nakajima, Y. Honda, O. Kitao, 
 H. Nakai, M. Klene, X. Li, J. E. Knox, H. P. Hratchian, J. B. Cross, 
 V. Bakken, C. Adamo, J. Jaramillo, R. Gomperts, R. E. Stratmann, 
 O. Yazyev, A. J. Austin, R. Cammi, C. Pomelli, J. W. Ochterski, 
 P. Y. Ayala, K. Morokuma, G. A. Voth, P. Salvador, J. J. Dannenberg, 
 V. G. Zakrzewski, S. Dapprich, A. D. Daniels, M. C. Strain, 
 O. Farkas, D. K. Malick, A. D. Rabuck, K. Raghavachari, 
 J. B. Foresman, J. V. Ortiz, Q. Cui, A. G. Baboul, S. Clifford, 
 J. Cioslowski, B. B. Stefanov, G. Liu, A. Liashenko, P. Piskorz, 
 I. Komaromi, R. L. Martin, D. J. Fox, T. Keith, M. A. Al-Laham, 
 C. Y. Peng, A. Nanayakkara, M. Challacombe, P. M. W. Gill, 
 B. Johnson, W. Chen, M. W. Wong, C. Gonzalez, and J. A. Pople, 
 Gaussian, Inc., Wallingford CT, 2004.
 
 ******************************************
 Gaussian 03:  IA32W-G03RevD.01 13-Oct-2005
                28-Mar-2008 
 ******************************************
 --------------
 # opt dreiding
 --------------
 1/6=10,10=10,14=-1,18=4000020,38=1,56=1,64=1/1,3;
 2/9=110,17=6,18=5,40=1/2;
 3/5=30,11=9,16=1,25=1,30=1/1;
 4/20=9,22=1001,24=3/2;
 7/44=-1/16;
 1/6=10,10=10,14=-1,18=4000020,64=1/3(2);
 2/9=110/2;
 99//99;
 2/9=110/2;
 3/5=30,11=9,16=1,25=1,30=1/1;
 4/16=2,20=9,22=1001,24=3/2;
 7/44=-1/16;
 1/6=10,10=10,14=-1,18=4000020,64=1/3(-4);
 2/9=110/2;
 99//99;
 --------
 DiPhEt-a
 --------
 Symbolic Z-matrix:
 Charge =  0 Multiplicity = 1
 C                     0.10287  -0.75906   0.03953 
 C                    -0.10313   0.75994  -0.03847 
 C                     1.22387   1.48294  -0.02447 
 C                    -1.22413  -1.48306   0.02553 
 C                     1.81287   1.87594   1.18253 
 C                     1.89587   1.76794  -1.21947 
 C                     3.03987   2.54094   1.19853 
 C                     3.69687   2.82294   0.00053 
 C                     3.12287   2.43294  -1.21047 
 C                    -1.89613  -1.76806   1.21953 
 C                    -1.81213  -1.87506  -1.18247 
 C                    -3.03913  -2.54106  -1.19947 
 C                    -3.69713  -2.82306  -0.00147 
 C                    -3.12313  -2.43406   1.20953 
 H                     0.72887  -1.10506  -0.81647 
 H                     0.66487  -1.02306   0.96653 
 H                    -0.66613   1.02294  -0.96447 
 H                    -0.72913   1.10594   0.81853 
 H                     1.30687   1.65394   2.13753 
 H                     1.45587   1.45994  -2.18247 
 H                     3.49087   2.84294   2.15953 
 H                     4.66787   3.34694   0.01053 
 H                     3.64087   2.64894  -2.16047 
 H                    -1.45713  -1.46106   2.18353 
 H                    -1.30613  -1.65306  -2.13647 
 H                    -3.49013  -2.84206  -2.15947 
 H                    -4.66713  -3.34706  -0.01247 
 H                    -3.64113  -2.65106   2.15953 
 
 I=    5 IAn=  6 Valence=36.
          JB=  1 J=    3 IAn=  6 IBT=12 Dist= 1.40D+00
          JB=  2 J=    7 IAn=  6 IBT=12 Dist= 1.40D+00
          JB=  3 J=   19 IAn=  1 IBT= 1 Dist= 1.10D+00
 I=    6 IAn=  6 Valence=36.
          JB=  1 J=    3 IAn=  6 IBT=12 Dist= 1.40D+00
          JB=  2 J=    9 IAn=  6 IBT=12 Dist= 1.40D+00
          JB=  3 J=   20 IAn=  1 IBT= 1 Dist= 1.10D+00
 I=    7 IAn=  6 Valence=36.
          JB=  1 J=    5 IAn=  6 IBT=12 Dist= 1.40D+00
          JB=  2 J=    8 IAn=  6 IBT=12 Dist= 1.40D+00
          JB=  3 J=   21 IAn=  1 IBT= 1 Dist= 1.10D+00
 I=    8 IAn=  6 Valence=36.
          JB=  1 J=    7 IAn=  6 IBT=12 Dist= 1.40D+00
          JB=  2 J=    9 IAn=  6 IBT=12 Dist= 1.40D+00
          JB=  3 J=   22 IAn=  1 IBT= 1 Dist= 1.10D+00
 I=    9 IAn=  6 Valence=36.
          JB=  1 J=    6 IAn=  6 IBT=12 Dist= 1.40D+00
          JB=  2 J=    8 IAn=  6 IBT=12 Dist= 1.40D+00
          JB=  3 J=   23 IAn=  1 IBT= 1 Dist= 1.10D+00
 I=   10 IAn=  6 Valence=36.
          JB=  1 J=    4 IAn=  6 IBT=12 Dist= 1.40D+00
          JB=  2 J=   14 IAn=  6 IBT=12 Dist= 1.40D+00
          JB=  3 J=   24 IAn=  1 IBT= 1 Dist= 1.10D+00
 I=   11 IAn=  6 Valence=36.
          JB=  1 J=    4 IAn=  6 IBT=12 Dist= 1.40D+00
          JB=  2 J=   12 IAn=  6 IBT=12 Dist= 1.40D+00
          JB=  3 J=   25 IAn=  1 IBT= 1 Dist= 1.10D+00
 I=   12 IAn=  6 Valence=36.
          JB=  1 J=   11 IAn=  6 IBT=12 Dist= 1.40D+00
          JB=  2 J=   13 IAn=  6 IBT=12 Dist= 1.40D+00
          JB=  3 J=   26 IAn=  1 IBT= 1 Dist= 1.10D+00
 I=   13 IAn=  6 Valence=36.
          JB=  1 J=   12 IAn=  6 IBT=12 Dist= 1.40D+00
          JB=  2 J=   14 IAn=  6 IBT=12 Dist= 1.40D+00
          JB=  3 J=   27 IAn=  1 IBT= 1 Dist= 1.10D+00
 I=   14 IAn=  6 Valence=36.
          JB=  1 J=   10 IAn=  6 IBT=12 Dist= 1.40D+00
          JB=  2 J=   13 IAn=  6 IBT=12 Dist= 1.40D+00
          JB=  3 J=   28 IAn=  1 IBT= 1 Dist= 1.10D+00
 Include all MM classes
 MMInit generated parameter data with length LenPar=  2514.

 GradGradGradGradGradGradGradGradGradGradGradGradGradGradGradGradGradGrad
 Berny optimization.
 Initialization pass.
 No Z-matrix variables, so optimization will use Cartesian coordinates.
 Trust Radius=1.00D-01 FncErr=1.00D-07 GrdErr=1.00D-07
 Number of steps in this run=   2 maximum allowed number of steps=   2.
 GradGradGradGradGradGradGradGradGradGradGradGradGradGradGradGradGradGrad

                          Input orientation:                          
 ---------------------------------------------------------------------
 Center     Atomic     Atomic              Coordinates (Angstroms)
 Number     Number      Type              X           Y           Z
 ---------------------------------------------------------------------
    1          6      10061003        0.102867   -0.759061    0.039531
    2          6      10061003       -0.103133    0.759939   -0.038469
    3          6      10061000        1.223867    1.482939   -0.024469
    4          6      10061000       -1.224133   -1.483061    0.025531
    5          6      10061000        1.812867    1.875939    1.182531
    6          6      10061000        1.895867    1.767939   -1.219469
    7          6      10061000        3.039867    2.540939    1.198531
    8          6      10061000        3.696867    2.822939    0.000531
    9          6      10061000        3.122867    2.432939   -1.210469
   10          6      10061000       -1.896133   -1.768061    1.219531
   11          6      10061000       -1.812133   -1.875061   -1.182469
   12          6      10061000       -3.039133   -2.541061   -1.199469
   13          6      10061000       -3.697133   -2.823061   -0.001469
   14          6      10061000       -3.123133   -2.434061    1.209531
   15          1      10011000        0.728867   -1.105061   -0.816469
   16          1      10011000        0.664867   -1.023061    0.966531
   17          1      10011000       -0.666133    1.022939   -0.964469
   18          1      10011000       -0.729133    1.105939    0.818531
   19          1      10011000        1.306867    1.653939    2.137531
   20          1      10011000        1.455867    1.459939   -2.182469
   21          1      10011000        3.490867    2.842939    2.159531
   22          1      10011000        4.667867    3.346939    0.010531
   23          1      10011000        3.640867    2.648939   -2.160469
   24          1      10011000       -1.457133   -1.461061    2.183531
   25          1      10011000       -1.306133   -1.653061   -2.136469
   26          1      10011000       -3.490133   -2.842061   -2.159469
   27          1      10011000       -4.667133   -3.347061   -0.012469
   28          1      10011000       -3.641133   -2.651061    2.159531
 ---------------------------------------------------------------------
                    Distance matrix (angstroms):
                    1          2          3          4          5
     1  C    0.000000
     2  C    1.534888   0.000000
     3  C    2.507449   1.511243   0.000000
     4  C    1.511721   2.508343   3.846084   0.000000
     5  C    3.342720   2.531275   1.399364   4.673853   0.000000
     6  C    3.344497   2.531171   1.400298   4.674765   2.405859
     7  C    4.567193   3.818452   2.431656   5.979147   1.395711
     8  C    5.074355   4.324059   2.812820   6.538999   2.417310
     9  C    4.568563   3.818323   2.432138   5.979896   2.784385
    10  C    2.531103   3.344876   4.674499   1.399445   5.199691
    11  C    2.531001   3.342550   4.672732   1.399526   5.727465
    12  C    3.818744   4.567780   5.978827   2.431916   6.980381
    13  C    4.324555   5.075046   6.538991   2.812838   7.337749
    14  C    3.818586   4.569414   5.980138   2.431555   6.552933
    15  H    1.115495   2.185345   2.751369   2.160106   3.749322
    16  H    1.115737   2.186078   2.752199   2.159954   3.125502
    17  H    2.185155   1.115174   2.160393   2.751636   3.388607
    18  H    2.185701   1.116262   2.160321   2.752598   2.680888
    19  H    3.416693   2.742683   2.170340   4.550525   1.103334
    20  H    3.419335   2.741754   2.170557   4.551803   3.409359
    21  H    5.380274   4.699673   3.429103   6.745329   2.169171
    22  H    6.139976   5.427468   3.916230   7.618713   3.418838
    23  H    5.382556   4.699866   3.429860   6.746869   3.887771
    24  H    2.742834   3.421029   4.553039   2.170654   4.778124
    25  H    2.742169   3.416340   4.549279   2.170223   5.761750
    26  H    4.699376   5.380038   6.744305   3.428682   7.845400
    27  H    5.427094   6.139888   7.617934   3.915379   8.408219
    28  H    4.700170   5.383639   6.747447   3.429296   7.155024
                    6          7          8          9         10
     6  C    0.000000
     7  C    2.784419   0.000000
     8  C    2.417649   1.395126   0.000000
     9  C    1.395649   2.412848   1.395742   0.000000
    10  C    5.729859   6.552253   7.337908   6.981666   0.000000
    11  C    5.198277   6.979407   7.336196   6.550868   2.405849
    12  C    6.551496   8.278368   8.694032   7.919030   2.784877
    13  C    7.337742   8.694807   9.303148   8.694804   2.418154
    14  C    6.981920   7.920437   8.695409   8.279892   1.396132
    15  H    3.127048   4.763849   4.990561   4.289979   3.387549
    16  H    3.752817   4.289119   4.991783   4.767078   2.679133
    17  H    2.680279   4.551629   4.817364   4.050326   3.751325
    18  H    3.388556   4.050801   4.817332   4.551447   3.127709
    19  H    3.410186   2.161430   3.412540   3.887647   4.776193
    20  H    1.102648   3.887001   3.412527   2.161111   5.764503
    21  H    3.888096   1.103687   2.168898   3.414736   7.152950
    22  H    3.419082   2.170568   1.103412   2.171005   8.408983
    23  H    2.169485   3.414051   2.168717   1.103395   7.848099
    24  H    5.766234   6.099938   7.048536   6.903541   1.102845
    25  H    4.774613   6.899245   7.044952   6.096631   3.409408
    26  H    7.151552   9.104601   9.402701   8.512226   3.887410
    27  H    8.407915   9.774094  10.393535   9.773828   3.418992
    28  H    7.848794   8.515641   9.405966   9.107999   2.169865
                   11         12         13         14         15
    11  C    0.000000
    12  C    1.396200   0.000000
    13  C    2.417993   1.395597   0.000000
    14  C    2.784397   2.412838   1.395463   0.000000
    15  H    2.680212   4.050507   4.817180   4.550695   0.000000
    16  H    3.388161   4.551428   4.817060   4.049557   1.786032
    17  H    3.123979   4.288176   4.990596   4.765918   2.548787
    18  H    3.750100   4.765400   4.991840   4.291354   3.112477
    19  H    5.762326   6.900820   7.046905   6.099002   4.083170
    20  H    4.775149   6.097484   7.046578   6.901894   2.995615
    21  H    7.845400   9.105561   9.404298   8.514354   5.663208
    22  H    8.407314   9.773970  10.394338   9.775339   6.001663
    23  H    7.152501   8.513637   9.404802   9.107441   4.937469
    24  H    3.409894   3.887649   3.412751   2.161241   3.728985
    25  H    1.102468   2.160972   3.412331   3.886794   2.486751
    26  H    2.169171   1.102543   2.167988   3.413402   4.756131
    27  H    3.418583   2.170021   1.102541   2.170435   5.898288
    28  H    3.887979   3.414291   2.168557   1.103591   5.508502
                   16         17         18         19         20
    16  H    0.000000
    17  H    3.112304   0.000000
    18  H    2.549075   1.786042   0.000000
    19  H    2.991611   3.730053   2.487039   0.000000
    20  H    4.087441   2.485433   3.729014   4.326920   0.000000
    21  H    4.935127   5.509303   4.756454   2.486777   4.990679
    22  H    6.002903   5.899420   5.899369   4.322811   4.322842
    23  H    5.667300   4.756526   5.509282   4.991030   2.487656
    24  H    2.485119   4.087278   2.997115   4.164737   6.006643
    25  H    3.729658   2.990679   4.083753   6.002591   4.161914
    26  H    5.508599   4.933683   5.663772   7.854262   6.555200
    27  H    5.898274   6.000934   6.002301   8.082152   8.081292
    28  H    4.755551   5.666417   4.938935   6.558675   7.857016
                   21         22         23         24         25
    21  H    0.000000
    22  H    2.501509   0.000000
    23  H    4.326955   2.501035   0.000000
    24  H    6.558025   8.084208   7.858247   0.000000
    25  H    7.853715   8.080735   6.555958   4.326900   0.000000
    26  H    9.985357  10.467358   9.000125   4.990180   2.486786
    27  H   10.468364  11.487053  10.468466   4.322443   4.321728
    28  H    9.002747  10.470611   9.988990   2.487274   4.990375
                   26         27         28
    26  H    0.000000
    27  H    2.499993   0.000000
    28  H    4.325857   2.500935   0.000000
 Stoichiometry    C14H14
 Framework group  C1[X(C14H14)]
 Deg. of freedom    78
 Full point group                 C1
 Largest Abelian subgroup         C1      NOp   1
 Largest concise Abelian subgroup C1      NOp   1
                         Standard orientation:                         
 ---------------------------------------------------------------------
 Center     Atomic     Atomic              Coordinates (Angstroms)
 Number     Number      Type              X           Y           Z
 ---------------------------------------------------------------------
    1          6      10061003       -0.408940   -0.002035   -0.648908
    2          6      10061003        0.409298    0.000927    0.649690
    3          6      10061000        1.890660    0.000002    0.350659
    4          6      10061000       -1.890945   -0.001065   -0.350642
    5          6      10061000        2.591467   -1.202514    0.205596
    6          6      10061000        2.591732    1.203345    0.204720
    7          6      10061000        3.958930   -1.206262   -0.073763
    8          6      10061000        4.646588   -0.000303   -0.212205
    9          6      10061000        3.959213    1.206585   -0.074245
   10          6      10061000       -2.592015   -1.203409   -0.204647
   11          6      10061000       -2.590341    1.202439   -0.205399
   12          6      10061000       -3.958444    1.207230    0.073251
   13          6      10061000       -4.646868    0.001237    0.212334
   14          6      10061000       -3.960135   -1.205607    0.073610
   15          1      10011000       -0.149367    0.889467   -1.267110
   16          1      10011000       -0.150217   -0.896561   -1.263526
   17          1      10011000        0.149164    0.894465    1.264128
   18          1      10011000        0.149722   -0.891573    1.267836
   19          1      10011000        2.058682   -2.163378    0.306719
   20          1      10011000        2.059101    2.163542    0.305504
   21          1      10011000        4.496142   -2.163819   -0.186082
   22          1      10011000        5.727303   -0.000511   -0.434854
   23          1      10011000        4.497326    2.163135   -0.187939
   24          1      10011000       -2.060794   -2.164595   -0.305610
   25          1      10011000       -2.057558    2.162304   -0.306579
   26          1      10011000       -4.495015    2.163744    0.186278
   27          1      10011000       -5.726814    0.002477    0.434398
   28          1      10011000       -4.498891   -2.162112    0.186538
 ---------------------------------------------------------------------
 Rotational constants (GHZ):      2.4768580      0.2700584      0.2492175
 Standard basis: Dummy (5D, 7F)
 There are    28 symmetry adapted basis functions of A   symmetry.
 Integral buffers will be    262144 words long.
 Raffenetti 1 integral format.
 Two-electron integral symmetry is turned on.
    28 basis functions,    28 primitive gaussians,    28 cartesian basis functions
    21 alpha electrons       21 beta electrons
       nuclear repulsion energy       136.5750931563 Hartrees.
 NAtoms=   28 NActive=   28 NUniq=   28 SFac= 7.50D-01 NAtFMM=   80 NAOKFM=F Big=F
 Dreiding calculation of energy and first derivatives.
 MO and density RWFs will be updated without deorthogonalization.
 NRF= 0 NRA=   0 NVA=  28 HaveQM=F
 Convergence limit is  0.750E-04 MaxStp=  5000 StMxLn= 1.00D-04 StpMin= 1.00D-06.
 Convergence criteria           0.00011250 0.00007500 0.00045000 0.00030000
  Step  NS  ND Rises OKQ   Scale  Max. Force  RMS Force Max. Disp.  RMS Disp.     Energy   Flag
     1   0   0   F    T  1.00D+00 0.05521834 0.02681333 0.05521834 0.02681333    0.0926252 ----
     2   0   0   F    F -3.03D-02 0.05521834 0.02681333 0.05521834 0.02681333    0.0634282 ----
     3   0   0   F    T  3.28D+00 0.01620333 0.00762175 0.01990000 0.00792369    0.0633999 ----
     4   0   0   F    F -1.63D-01 0.01620333 0.00762175 0.06530108 0.02600128    0.0569478 ----
     5   0   0   F    T  1.88D+00 0.02242277 0.00788830 0.02646165 0.01157895    0.0566948 ----
     6   0   0   T    F  4.93D-01 0.02242277 0.00788830 0.04975702 0.02177242    0.0568240 ----
     7   0   0   F    T  2.31D+00 0.01313726 0.00380476 0.01359809 0.00464633    0.0542710 ----
     8   0   0   F    F -4.84D-01 0.01313726 0.00380476 0.03143728 0.01074181    0.0541848 ----
     9   0   0   F    T  3.54D+00 0.00380688 0.00142668 0.00506134 0.00156717    0.0535455 ----
    10   0   0   F    F -3.61D-01 0.00380688 0.00142668 0.01789967 0.00554237    0.0534138 ----
    11   0   0   F    T  2.74D+00 0.00278444 0.00101627 0.00347480 0.00129095    0.0533523 ----
    12   0   0   T    F  4.20D-01 0.00278444 0.00101627 0.00953642 0.00354294    0.0533977 ----
    13   0   0   F    T  2.97D+00 0.00128151 0.00043831 0.00128574 0.00050040    0.0533024 ----
    14   0   0   F    F -4.06D-01 0.00128151 0.00043831 0.00382002 0.00148672    0.0532948 ----
    15   0   0   F    T  1.77D+00 0.00102620 0.00036256 0.00122631 0.00049883    0.0532881 ----
    16   0   0   F    T  1.24D+00 0.00149009 0.00039847 0.00163865 0.00071511    0.0532780 ----
    17   0   0   F    F  8.87D-02 0.00149009 0.00039847 0.00202487 0.00088365    0.0532688 ----
    18   0   0   F    T  6.07D+00 0.00026428 0.00011579 0.00047436 0.00015855    0.0532687 ---+
    19   0   0   F    F -3.63D-01 0.00026428 0.00011579 0.00287817 0.00096201    0.0532672 ----
    20   0   0   F    T  1.61D+00 0.00049837 0.00017059 0.00114194 0.00038017    0.0532665 ----
    21   0   0   F    F -1.40D-01 0.00049837 0.00017059 0.00184117 0.00061296    0.0532649 ----
    22   0   0   F    T  2.10D+00 0.00036589 0.00012863 0.00067368 0.00025149    0.0532648 ---+
    23   0   0   F    F -3.17D-01 0.00036589 0.00012863 0.00141196 0.00052710    0.0532641 ----
    24   0   0   F    T  2.56D+00 0.00020710 0.00008565 0.00027909 0.00014060    0.0532638 --++
    25   0   0   F    F  2.44D-01 0.00020710 0.00008565 0.00071466 0.00036003    0.0532629 ----
    26   0   0   F    T  2.14D+00 0.00034949 0.00009816 0.00053442 0.00020914    0.0532629 ---+
    27   0   0   F    F -3.73D-01 0.00034949 0.00009816 0.00114410 0.00044774    0.0532625 ----
    28   0   0   F    T  1.92D+00 0.00022874 0.00007592 0.00040603 0.00014635    0.0532623 --++
    29   0   0   F    F  1.43D-01 0.00022874 0.00007592 0.00077853 0.00028061    0.0532618 ---+
    30   0   0   F    T  1.77D+00 0.00025017 0.00007998 0.00045434 0.00018105    0.0532618 ---+
    31   0   0   F    F -1.91D-01 0.00025017 0.00007998 0.00080513 0.00032084    0.0532614 ----
    32   0   0   F    T  2.72D+00 0.00015895 0.00005294 0.00021434 0.00009537    0.0532614 -+++
    33   0   0   F    F  1.98D-01 0.00015895 0.00005294 0.00058352 0.00025963    0.0532610 -+-+
    34   0   0   F    T  2.11D+00 0.00019886 0.00006270 0.00032728 0.00014775    0.0532610 -+++
    35   0   0   F    F -3.16D-01 0.00019886 0.00006270 0.00068919 0.00031114    0.0532608 -+--
    36   0   0   F    T  1.45D+00 0.00018289 0.00005964 0.00030961 0.00014638    0.0532608 -+++
    37   0   0   F    F  7.85D-01 0.00018289 0.00005964 0.00045010 0.00021280    0.0532605 -+-+
    38   0   0   F    T  1.98D+00 0.00023610 0.00006614 0.00048746 0.00019180    0.0532604 -+-+
    39   0   0   F    F  4.77D-01 0.00023610 0.00006614 0.00096553 0.00037990    0.0532599 -+--
    40   0   0   F    T  2.83D+00 0.00018075 0.00006539 0.00059647 0.00019845    0.0532599 -+-+
    41   0   0   F    F -3.48D-01 0.00018075 0.00006539 0.00168598 0.00056095    0.0532596 -+--
    42   0   0   F    T  1.19D+00 0.00025801 0.00007985 0.00100438 0.00030650    0.0532595 ----
    43   0   0   F    F  1.17D+00 0.00025801 0.00007985 0.00119825 0.00036567    0.0532590 ----
    44   0   0   F    T  2.52D+00 0.00018196 0.00007963 0.00109553 0.00031537    0.0532588 ----
    45   0   0   F    F -2.37D-01 0.00018196 0.00007963 0.00275633 0.00079347    0.0532584 ----
    46   0   0   F    T  2.22D+00 0.00020377 0.00007271 0.00099755 0.00027290    0.0532583 -+-+
    47   0   0   F    F  7.06D-02 0.00020377 0.00007271 0.00221381 0.00060564    0.0532578 -+--
    48   0   0   F    T  1.68D+00 0.00025214 0.00008548 0.00144979 0.00038659    0.0532578 ----
    49   0   0   F    F  2.75D-01 0.00025214 0.00008548 0.00243164 0.00064840    0.0532572 ----
    50   0   0   F    T  1.96D+00 0.00023902 0.00008821 0.00160092 0.00042110    0.0532571 ----
    51   0   0   F    F -2.90D-01 0.00023902 0.00008821 0.00314180 0.00082641    0.0532568 ----
    52   0   0   F    T  2.56D+00 0.00018610 0.00006373 0.00088168 0.00022872    0.0532567 -+-+
    53   0   0   F    F  3.48D-01 0.00018610 0.00006373 0.00226051 0.00058641    0.0532561 -+--
    54   0   0   F    T  1.97D+00 0.00031950 0.00008346 0.00154387 0.00040075    0.0532561 ----
    55   0   0   F    F  9.41D-02 0.00031950 0.00008346 0.00304476 0.00079035    0.0532555 ----
    56   0   0   F    T  1.89D+00 0.00029538 0.00008836 0.00174484 0.00045766    0.0532555 ----
    57   0   0   F    F -1.59D-01 0.00029538 0.00008836 0.00329679 0.00086473    0.0532550 ----
    58   0   0   F    T  1.68D+00 0.00027023 0.00008494 0.00162218 0.00043197    0.0532549 ----
    59   0   0   F    F  7.15D-01 0.00027023 0.00008494 0.00273126 0.00072730    0.0532542 ----
    60   0   0   F    T  3.20D+00 0.00023461 0.00007981 0.00144587 0.00038984    0.0532541 ----
    61   0   0   F    F -3.86D-01 0.00023461 0.00007981 0.00462570 0.00124718    0.0532537 ----
    62   0   0   F    T  2.36D+00 0.00019559 0.00007188 0.00118280 0.00032392    0.0532535 -+--
    63   0   0   F    F -4.03D-01 0.00019559 0.00007188 0.00279592 0.00076568    0.0532534 -+--
    64   0   0   F    T  1.66D+00 0.00015871 0.00006524 0.00098150 0.00027462    0.0532532 -+-+
    65   0   0   F    F  5.00D-01 0.00015871 0.00006524 0.00163385 0.00045714    0.0532528 -+--
    66   0   0   F    T  2.51D+00 0.00017057 0.00006418 0.00095178 0.00027357    0.0532528 -+-+
    67   0   0   F    F  2.14D-01 0.00017057 0.00006418 0.00238631 0.00068590    0.0532523 -+--
    68   0   0   F    T  1.54D+00 0.00035176 0.00008942 0.00185203 0.00053874    0.0532523 ----
    69   0   0   F    F  7.00D-01 0.00035176 0.00008942 0.00286134 0.00083234    0.0532515 ----
    70   0   0   F    T  1.20D+00 0.00039386 0.00013177 0.00402361 0.00117768    0.0532514 ----
    71   0   0   F    F  2.41D+00 0.00039386 0.00013177 0.00483486 0.00141513    0.0532499 ----
    72   0   0   F    T  1.37D+00 0.00077517 0.00022708 0.01194430 0.00351104    0.0532484 ----
    73   0   0   F    F  4.97D-01 0.00077517 0.00022708 0.01641841 0.00482621    0.0532444 ----
    74   0   0   F    T  2.41D+00 0.00063741 0.00020979 0.01009585 0.00299184    0.0532439 ----
    75   0   0   F    F  1.02D+00 0.00063741 0.00020979 0.02437924 0.00722464    0.0532372 ----
    76   0   0   F    F -1.50D-02 0.00063741 0.00020979 0.02486413 0.00736833    0.0532348 ----
    77   0   0   F    T  1.39D+00 0.00109544 0.00039514 0.03511673 0.01040928    0.0532348 ----
    78   0   0   F    F  2.49D-01 0.00109544 0.00039514 0.04885683 0.01448211    0.0532234 ----
    79   0   0   F    F -1.67D-02 0.00109544 0.00039514 0.01218595 0.00361215    0.0532229 ----
    80   0   0   F    T  1.90D+00 0.00112061 0.00042085 0.03216559 0.00950456    0.0532229 ----
    81   0   0   F    F  9.93D-02 0.00112061 0.00042085 0.06103151 0.01803410    0.0532068 ----
    82   0   0   F    F -1.75D-02 0.00112061 0.00042085 0.00605809 0.00179010    0.0532067 ----
    83   0   0   F    T  2.32D+00 0.00103521 0.00045637 0.02910980 0.00853849    0.0532067 ----
    84   0   0   F    F  6.77D-01 0.00103521 0.00045637 0.06747888 0.01979291    0.0531752 ----
    85   0   0   F    F -4.09D-02 0.00103521 0.00045637 0.04567139 0.01339634    0.0531682 ----
    86   0   0   F    T  3.05D+00 0.00156462 0.00062213 0.03681237 0.01071364    0.0531682 ----
    87   0   0   F    F -4.38D-01 0.00156462 0.00062213 0.11215451 0.03264075    0.0531585 ----
    88   0   0   F    T  1.43D+00 0.00212724 0.00073611 0.04427618 0.01281068    0.0531399 ----
    89   0   0   F    F  5.08D-01 0.00212724 0.00073611 0.06336018 0.01833236    0.0530950 ----
    90   0   0   F    F -2.55D-02 0.00212724 0.00073611 0.03221529 0.00932103    0.0530891 ----
    91   0   0   F    T  3.15D+00 0.00222325 0.00068575 0.03019835 0.00870268    0.0530890 ----
    92   0   0   F    F -3.79D-01 0.00222325 0.00068575 0.09513366 0.02741601    0.0530646 ----
    93   0   0   F    T  2.00D+00 0.00223202 0.00067620 0.02952016 0.00848897    0.0530510 ----
    94   0   0   F    F -1.66D-01 0.00223202 0.00067620 0.05916657 0.01701424    0.0530204 ----
    95   0   0   F    T  2.19D+00 0.00168614 0.00056188 0.02250050 0.00647473    0.0530192 ----
    96   0   0   F    F -1.68D-01 0.00168614 0.00056188 0.04932056 0.01419245    0.0529962 ----
    97   0   0   F    T  2.60D+00 0.00127824 0.00044901 0.01571083 0.00454802    0.0529952 ----
    98   0   0   F    F -3.87D-01 0.00127824 0.00044901 0.04077797 0.01180454    0.0529871 ----
    99   0   0   F    T  2.69D+00 0.00099564 0.00033440 0.00921482 0.00269424    0.0529818 ----
   100   0   0   F    F -3.42D-01 0.00099564 0.00033440 0.02476387 0.00724049    0.0529757 ----
   101   0   0   F    T  2.59D+00 0.00081319 0.00027194 0.00622174 0.00184030    0.0529735 ----
   102   0   0   F    F -4.03D-01 0.00081319 0.00027194 0.01610963 0.00476499    0.0529709 ----
   103   0   0   F    T  1.97D+00 0.00082701 0.00023821 0.00480348 0.00144616    0.0529687 ----
   104   0   0   F    F  1.50D-02 0.00082701 0.00023821 0.00945089 0.00284534    0.0529640 ----
   105   0   0   F    T  2.57D+00 0.00054465 0.00020758 0.00367080 0.00112293    0.0529640 ----
   106   0   0   F    F -7.77D-02 0.00054465 0.00020758 0.00944070 0.00288799    0.0529597 ----
   107   0   0   F    T  2.33D+00 0.00077254 0.00020725 0.00365413 0.00114190    0.0529597 ----
   108   0   0   F    F -4.38D-01 0.00077254 0.00020725 0.00852383 0.00266365    0.0529587 ----
   109   0   0   F    T  1.99D+00 0.00048388 0.00016596 0.00231192 0.00075105    0.0529573 ----
   110   0   0   F    F  5.36D-01 0.00048388 0.00016596 0.00461147 0.00149809    0.0529542 ----
   111   0   0   F    T  2.68D+00 0.00045607 0.00017564 0.00254882 0.00085938    0.0529538 ----
   112   0   0   F    F -3.15D-01 0.00045607 0.00017564 0.00682458 0.00230102    0.0529519 ----
   113   0   0   F    T  1.69D+00 0.00055379 0.00018141 0.00265968 0.00093387    0.0529514 ----
   114   0   0   F    F  4.30D-01 0.00055379 0.00018141 0.00449092 0.00157686    0.0529484 ----
   115   0   0   F    T  1.71D+00 0.00069154 0.00021400 0.00366003 0.00131585    0.0529481 ----
   116   0   0   F    F  1.80D-01 0.00069154 0.00021400 0.00627022 0.00225427    0.0529442 ----
   117   0   0   F    T  2.22D+00 0.00049793 0.00020258 0.00331052 0.00119712    0.0529442 ----
   118   0   0   F    F  5.43D-01 0.00049793 0.00020258 0.00735815 0.00266079    0.0529390 ----
   119   0   0   F    T  1.44D+00 0.00100243 0.00031118 0.00792404 0.00284097    0.0529383 ----
   120   0   0   F    F  2.86D-01 0.00100243 0.00031118 0.01144938 0.00410490    0.0529311 ----
   121   0   0   F    T  2.24D+00 0.00080898 0.00028355 0.00671429 0.00236092    0.0529307 ----
   122   0   0   F    F  9.02D-02 0.00080898 0.00028355 0.01501833 0.00528085    0.0529225 ----
   123   0   0   F    T  1.61D+00 0.00104602 0.00034938 0.01035091 0.00357798    0.0529224 ----
   124   0   0   F    F  2.98D-01 0.00104602 0.00034938 0.01665489 0.00575706    0.0529123 ----
   125   0   0   F    T  2.38D+00 0.00071681 0.00032928 0.00925181 0.00314188    0.0529117 ----
   126   0   0   F    F  1.42D-01 0.00071681 0.00032928 0.02200271 0.00747203    0.0528995 ----
   127   0   0   F    T  1.64D+00 0.00135770 0.00042604 0.01548202 0.00520393    0.0528993 ----
   128   0   0   F    F -1.42D-01 0.00135770 0.00042604 0.02538945 0.00853409    0.0528888 ----
   129   0   0   F    T  2.98D+00 0.00078579 0.00029735 0.00743660 0.00245971    0.0528885 ----
   130   0   0   F    F -1.40D-01 0.00078579 0.00029735 0.02212523 0.00731809    0.0528793 ----
   131   0   0   F    T  2.85D+00 0.00077424 0.00028242 0.00672441 0.00220611    0.0528790 ----
   132   0   0   F    F -4.96D-01 0.00077424 0.00028242 0.01918009 0.00629252    0.0528788 ----
   133   0   0   F    T  1.83D+00 0.00076477 0.00024838 0.00531967 0.00172903    0.0528742 ----
   134   0   0   F    F  1.13D-01 0.00076477 0.00024838 0.00976061 0.00317246    0.0528690 ----
   135   0   0   F    T  2.40D+00 0.00058129 0.00022651 0.00459383 0.00146927    0.0528689 ----
   136   0   0   F    F  6.83D-02 0.00058129 0.00022651 0.01104020 0.00353104    0.0528634 ----
   137   0   0   F    T  2.05D+00 0.00086697 0.00025134 0.00581656 0.00184146    0.0528634 ----
   138   0   0   F    F -2.04D-02 0.00086697 0.00025134 0.01191499 0.00377215    0.0528581 ----
   139   0   0   F    T  1.47D+00 0.00108812 0.00029227 0.00802208 0.00252197    0.0528581 ----
   140   0   0   F    F  1.02D+00 0.00108812 0.00029227 0.01175428 0.00369530    0.0528502 ----
   141   0   0   F    T  1.99D+00 0.00109415 0.00035357 0.01201706 0.00375297    0.0528475 ----
   142   0   0   F    F -3.32D-02 0.00109415 0.00035357 0.02391505 0.00746876    0.0528374 ----
   143   0   0   F    T  1.98D+00 0.00100613 0.00034692 0.01171313 0.00364169    0.0528374 ----
   144   0   0   F    F  2.12D-01 0.00100613 0.00034692 0.02322448 0.00722065    0.0528255 ----
   145   0   0   F    T  2.27D+00 0.00114598 0.00036023 0.01244876 0.00386013    0.0528252 ----
   146   0   0   F    F -2.00D-01 0.00114598 0.00036023 0.02821667 0.00874946    0.0528158 ----
   147   0   0   F    T  1.59D+00 0.00136132 0.00038890 0.01456953 0.00439639    0.0528152 ----
   148   0   0   F    F  4.04D-01 0.00136132 0.00038890 0.02319581 0.00699940    0.0528021 ----
   149   0   0   F    T  2.57D+00 0.00096163 0.00037220 0.01304981 0.00382406    0.0528009 ----
   150   0   0   F    F -1.83D-02 0.00096163 0.00037220 0.03353695 0.00982752    0.0527862 ----
   151   0   0   F    T  1.83D+00 0.00126306 0.00044031 0.01830845 0.00525861    0.0527862 ----
   152   0   0   F    F -1.20D-01 0.00126306 0.00044031 0.03358796 0.00964724    0.0527733 ----
   153   0   0   F    T  2.16D+00 0.00106348 0.00038174 0.01401957 0.00393280    0.0527730 ----
   154   0   0   F    F -3.58D-02 0.00106348 0.00038174 0.03025407 0.00848693    0.0527603 ----
   155   0   0   F    T  2.16D+00 0.00096889 0.00037250 0.01370864 0.00378363    0.0527603 ----
   156   0   0   F    F  1.26D-01 0.00096889 0.00037250 0.02964862 0.00818311    0.0527464 ----
   157   0   0   F    T  2.52D+00 0.00126604 0.00036027 0.01337431 0.00364858    0.0527462 ----
   158   0   0   F    F -4.33D-01 0.00126604 0.00036027 0.03376601 0.00921154    0.0527430 ----
   159   0   0   F    T  1.91D+00 0.00102404 0.00030730 0.01011885 0.00273664    0.0527385 ----
   160   0   0   F    F  2.09D-01 0.00102404 0.00030730 0.01930762 0.00522175    0.0527296 ----
   161   0   0   F    T  2.72D+00 0.00065518 0.00027988 0.00859854 0.00232432    0.0527293 ----
   162   0   0   F    F -2.01D-01 0.00065518 0.00027988 0.02336156 0.00631499    0.0527226 ----
   163   0   0   F    T  2.04D+00 0.00099828 0.00028828 0.00914645 0.00248031    0.0527222 ----
   164   0   0   F    F -1.36D-01 0.00099828 0.00028828 0.01861335 0.00504752    0.0527162 ----
   165   0   0   F    T  1.71D+00 0.00091527 0.00029233 0.00939046 0.00255734    0.0527160 ----
   166   0   0   F    F  4.51D-01 0.00091527 0.00029233 0.01601643 0.00436182    0.0527080 ----
   167   0   0   F    T  2.66D+00 0.00070372 0.00028174 0.00861041 0.00237754    0.0527071 ----
   168   0   0   F    F -3.27D-01 0.00070372 0.00028174 0.02291468 0.00632729    0.0527026 ----
   169   0   0   F    T  1.68D+00 0.00089445 0.00029016 0.00904887 0.00252962    0.0527012 ----
   170   0   0   F    F  4.47D-01 0.00089445 0.00029016 0.01522337 0.00425571    0.0526934 ----
   171   0   0   F    T  2.97D+00 0.00094417 0.00026243 0.00735594 0.00207501    0.0526925 ----
   172   0   0   T    F  4.23D-01 0.00094417 0.00026243 0.02183395 0.00615906    0.0526957 ----
   173   0   0   F    T  2.10D+00 0.00055564 0.00020146 0.00432984 0.00123854    0.0526889 ----
   174   0   0   F    F  1.99D-01 0.00055564 0.00020146 0.00910316 0.00260394    0.0526847 ----
   175   0   0   F    T  3.16D+00 0.00057503 0.00017797 0.00339240 0.00098862    0.0526846 ----
   176   0   0   F    F -4.28D-01 0.00057503 0.00017797 0.01071744 0.00312330    0.0526836 ----
   177   0   0   F    T  1.62D+00 0.00067490 0.00018610 0.00370113 0.00110085    0.0526822 ----
   178   0   0   F    F  1.24D-01 0.00067490 0.00018610 0.00600213 0.00178525    0.0526796 ----
   179   0   0   F    T  2.39D+00 0.00041861 0.00016059 0.00271849 0.00083841    0.0526796 ----
   180   0   0   F    T  2.53D+00 0.00041519 0.00015503 0.00241733 0.00079145    0.0526770 ----
   181   0   0   F    F -2.08D-01 0.00041519 0.00015503 0.00612770 0.00200625    0.0526751 ----
   182   0   0   F    T  1.47D+00 0.00066769 0.00017887 0.00312679 0.00108184    0.0526749 ----
   183   0   0   F    F  5.58D-01 0.00066769 0.00017887 0.00459085 0.00158839    0.0526722 ----
   184   0   0   F    T  1.82D+00 0.00063910 0.00020061 0.00371435 0.00135700    0.0526718 ----
   185   0   0   F    F  6.63D-01 0.00063910 0.00020061 0.00677464 0.00247504    0.0526675 ----
   186   0   0   F    T  1.92D+00 0.00072900 0.00025274 0.00566650 0.00214863    0.0526667 ----
   187   0   0   F    F  4.83D-01 0.00072900 0.00025274 0.01085279 0.00411518    0.0526599 ----
   188   0   0   F    T  1.30D+00 0.00114823 0.00037561 0.01243044 0.00469769    0.0526590 ----
   189   0   0   F    F  7.62D-01 0.00114823 0.00037561 0.01615143 0.00610391    0.0526479 ----
   190   0   0   F    T  2.01D+00 0.00101103 0.00041184 0.01471213 0.00536440    0.0526453 ----
   191   0   0   F    F  2.31D-01 0.00101103 0.00041184 0.02950288 0.01075746    0.0526281 ----
   192   0   0   F    T  2.15D+00 0.00119140 0.00045706 0.01698658 0.00615821    0.0526275 ----
   193   0   0   F    F -5.92D-02 0.00119140 0.00045706 0.03651595 0.01323826    0.0526097 ----
   194   0   0   F    T  2.03D+00 0.00124358 0.00046880 0.01669928 0.00613197    0.0526096 ----
   195   0   0   F    F -1.37D-01 0.00124358 0.00046880 0.03391642 0.01245409    0.0525939 ----
   196   0   0   F    T  2.36D+00 0.00092942 0.00040889 0.01215066 0.00455710    0.0525934 ----
   197   0   0   F    F -1.98D-01 0.00092942 0.00040889 0.02865162 0.01074577    0.0525809 ----
   198   0   0   F    T  1.73D+00 0.00114164 0.00042865 0.01308811 0.00499719    0.0525801 ----
   199   0   0   F    F  3.67D-01 0.00114164 0.00042865 0.02258510 0.00862324    0.0525632 ----
   200   0   0   F    T  3.41D+00 0.00094073 0.00035865 0.00881367 0.00345373    0.0525619 ----
   201   0   0   F    F -4.69D-01 0.00094073 0.00035865 0.03008423 0.01178881    0.0525598 ----
   202   0   0   F    T  1.48D+00 0.00150537 0.00039732 0.01142969 0.00421459    0.0525521 ----
   203   0   0   F    F  3.17D-01 0.00150537 0.00039732 0.01696447 0.00625548    0.0525399 ----
   204   0   0   F    T  3.15D+00 0.00082527 0.00031393 0.00753510 0.00261272    0.0525391 ----
   205   0   0   F    F -3.44D-01 0.00082527 0.00031393 0.02376795 0.00824130    0.0525329 ----
   206   0   0   F    T  2.33D+00 0.00097224 0.00029525 0.00675322 0.00232363    0.0525306 ----
   207   0   0   F    F -2.62D-01 0.00097224 0.00029525 0.01570239 0.00540284    0.0525251 ----
   208   0   0   F    T  1.93D+00 0.00087111 0.00027671 0.00588670 0.00206149    0.0525243 ----
   209   0   0   F    F -1.36D-01 0.00087111 0.00027671 0.01137859 0.00398472    0.0525190 ----
   210   0   0   F    T  2.75D+00 0.00052664 0.00021386 0.00357390 0.00124972    0.0525189 ----
   211   0   0   F    F  6.73D-02 0.00052664 0.00021386 0.00984096 0.00344118    0.0525133 ----
   212   0   0   F    T  1.48D+00 0.00082027 0.00030000 0.00734109 0.00248074    0.0525133 ----
   213   0   0   F    F  3.68D-01 0.00082027 0.00030000 0.01086898 0.00367291    0.0525062 ----
   214   0   0   F    T  2.10D+00 0.00074400 0.00029261 0.00725746 0.00239847    0.0525056 ----
   215   0   0   F    F  1.36D-01 0.00074400 0.00029261 0.01520489 0.00502496    0.0524972 ----
   216   0   0   F    T  1.51D+00 0.00102008 0.00036507 0.01146183 0.00376952    0.0524971 ----
   217   0   0   F    F  4.96D-01 0.00102008 0.00036507 0.01735832 0.00570873    0.0524858 ----
   218   0   0   F    T  2.81D+00 0.00069927 0.00032661 0.00918294 0.00303883    0.0524844 ----
   219   0   0   F    F -3.00D-01 0.00069927 0.00032661 0.02580433 0.00853919    0.0524772 ----
   220   0   0   F    T  1.93D+00 0.00092769 0.00033151 0.00938112 0.00309696    0.0524755 ----
   221   0   0   F    F -1.47D-01 0.00092769 0.00033151 0.01809940 0.00597510    0.0524681 ----
   222   0   0   F    T  2.91D+00 0.00080497 0.00025224 0.00538095 0.00174978    0.0524679 ----
   223   0   0   F    F -4.85D-01 0.00080497 0.00025224 0.01566864 0.00509513    0.0524675 ----
   224   0   0   F    T  2.57D+00 0.00050670 0.00019251 0.00324553 0.00102322    0.0524639 ----
   225   0   0   F    F -1.32D-01 0.00050670 0.00019251 0.00833049 0.00262636    0.0524605 ----
   226   0   0   F    T  2.69D+00 0.00047721 0.00017379 0.00276374 0.00084631    0.0524604 ----
   227   0   0   T    F  4.95D-01 0.00047721 0.00017379 0.00744365 0.00227937    0.0524605 ----
   228   0   0   F    T  1.84D+00 0.00038395 0.00014581 0.00203512 0.00061213    0.0524587 ----
   229   0   0   F    F  3.97D-01 0.00038395 0.00014581 0.00375109 0.00112827    0.0524566 ----
   230   0   0   F    T  3.21D+00 0.00033764 0.00012843 0.00149978 0.00049177    0.0524564 ----
   231   0   0   F    F -3.95D-01 0.00033764 0.00012843 0.00480794 0.00157651    0.0524557 ----
   232   0   0   F    T  1.37D+00 0.00046984 0.00015096 0.00200202 0.00069619    0.0524551 ----
   233   0   0   F    F  6.40D-01 0.00046984 0.00015096 0.00274144 0.00095332    0.0524533 ----
   234   0   0   F    T  2.36D+00 0.00032700 0.00014556 0.00208324 0.00066370    0.0524529 ----
   235   0   0   F    T  1.61D+00 0.00048688 0.00017351 0.00319185 0.00097010    0.0524509 ----
   236   0   0   F    F  2.89D-01 0.00048688 0.00017351 0.00514522 0.00156379    0.0524484 ----
   237   0   0   F    T  2.46D+00 0.00039836 0.00016136 0.00274066 0.00081845    0.0524483 ----
   238   0   0   F    F -7.43D-02 0.00039836 0.00016136 0.00674873 0.00201538    0.0524458 ----
   239   0   0   F    T  1.47D+00 0.00067462 0.00019855 0.00417455 0.00126796    0.0524458 ----
   240   0   0   F    F  4.02D-01 0.00067462 0.00019855 0.00614256 0.00186572    0.0524427 ----
   241   0   0   F    T  2.32D+00 0.00047939 0.00018582 0.00351380 0.00112861    0.0524424 ----
   242   0   0   F    F  1.02D-01 0.00047939 0.00018582 0.00814239 0.00261527    0.0524387 ----
   243   0   0   F    T  2.04D+00 0.00052890 0.00020668 0.00415819 0.00141275    0.0524387 ----
   244   0   0   F    F -1.04D-01 0.00052890 0.00020668 0.00848367 0.00288234    0.0524355 ----
   245   0   0   F    T  1.82D+00 0.00063767 0.00020622 0.00432680 0.00142217    0.0524354 ----
   246   0   0   F    F  8.99D-02 0.00063767 0.00020622 0.00786118 0.00258388    0.0524319 ----
   247   0   0   F    T  2.25D+00 0.00056879 0.00019231 0.00395575 0.00125337    0.0524319 ----
   248   0   0   F    F  5.96D-02 0.00056879 0.00019231 0.00888822 0.00281620    0.0524282 ----
   249   0   0   F    T  2.32D+00 0.00053813 0.00019379 0.00421683 0.00128694    0.0524282 ----
   250   0   0   F    F -2.42D-01 0.00053813 0.00019379 0.00977791 0.00298413    0.0524257 ----
   251   0   0   F    T  1.66D+00 0.00048241 0.00019852 0.00464071 0.00136335    0.0524254 ----
   252   0   0   F    F  2.74D-01 0.00048241 0.00019852 0.00769933 0.00226191    0.0524221 ----
   253   0   0   F    T  2.40D+00 0.00055091 0.00018540 0.00430153 0.00120101    0.0524219 ----
   254   0   0   F    F  4.08D-02 0.00055091 0.00018540 0.01032051 0.00288154    0.0524183 ----
   255   0   0   F    T  2.01D+00 0.00071985 0.00020575 0.00561081 0.00149151    0.0524183 ----
   256   0   0   F    F -8.40D-02 0.00071985 0.00020575 0.01128168 0.00299898    0.0524150 ----
   257   0   0   F    T  1.59D+00 0.00058111 0.00022071 0.00681682 0.00172880    0.0524150 ----
   258   0   0   F    F  4.07D-01 0.00058111 0.00022071 0.01083197 0.00274707    0.0524108 ----
   259   0   0   F    T  2.79D+00 0.00055036 0.00019729 0.00578797 0.00138689    0.0524104 ----
   260   0   0   F    F  6.64D-03 0.00055036 0.00019729 0.01613418 0.00386601    0.0524059 ----
   261   0   0   F    T  1.39D+00 0.00097518 0.00027987 0.01196357 0.00280123    0.0524059 ----
   262   0   0   F    F  4.02D-01 0.00097518 0.00027987 0.01662074 0.00389169    0.0524000 ----
   263   0   0   F    T  2.21D+00 0.00087234 0.00026199 0.01073521 0.00246647    0.0523994 ----
   264   0   0   F    F  1.82D-01 0.00087234 0.00026199 0.02375140 0.00545701    0.0523921 ----
   265   0   0   F    T  1.79D+00 0.00094374 0.00031517 0.01582690 0.00360937    0.0523919 ----
   266   0   0   F    F  1.04D-01 0.00094374 0.00031517 0.02827835 0.00644896    0.0523838 ----
   267   0   0   F    T  2.18D+00 0.00082409 0.00029684 0.01440621 0.00327408    0.0523837 ----
   268   0   0   F    F -9.86D-02 0.00082409 0.00029684 0.03133675 0.00712186    0.0523766 ----
   269   0   0   F    T  2.41D+00 0.00086128 0.00026626 0.01180694 0.00266814    0.0523765 ----
   270   0   0   F    F -3.17D-01 0.00086128 0.00026626 0.02840664 0.00641935    0.0523726 ----
   271   0   0   F    T  2.06D+00 0.00076109 0.00023704 0.00947442 0.00212449    0.0523716 ----
   272   0   0   F    F -2.89D-02 0.00076109 0.00023704 0.01954088 0.00438175    0.0523669 ----
   273   0   0   F    T  2.82D+00 0.00059640 0.00019922 0.00679337 0.00150843    0.0523668 ----
   274   0   0   F    F -1.96D-01 0.00059640 0.00019922 0.01916358 0.00425517    0.0523633 ----
   275   0   0   F    T  1.55D+00 0.00079189 0.00024056 0.00996562 0.00220710    0.0523631 ----
   276   0   0   F    F  1.28D-01 0.00079189 0.00024056 0.01544011 0.00341954    0.0523589 ----
   277   0   0   F    T  2.30D+00 0.00061422 0.00020997 0.00753660 0.00167667    0.0523588 ----
   278   0   0   F    F  2.11D-01 0.00061422 0.00020997 0.01733779 0.00385715    0.0523538 ----
   279   0   0   F    T  2.35D+00 0.00060688 0.00022835 0.00881642 0.00198512    0.0523537 ----
   280   0   0   F    F -2.64D-01 0.00060688 0.00022835 0.02073829 0.00466947    0.0523503 ----
   281   0   0   F    T  1.62D+00 0.00068086 0.00023489 0.00924860 0.00211750    0.0523499 ----
   282   0   0   F    F  3.55D-01 0.00068086 0.00023489 0.01501303 0.00343728    0.0523451 ----
   283   0   0   F    T  2.38D+00 0.00051998 0.00022411 0.00833529 0.00195806    0.0523448 ----
   284   0   0   F    F -8.23D-02 0.00051998 0.00022411 0.01982759 0.00465774    0.0523402 ----
   285   0   0   F    T  2.08D+00 0.00065527 0.00022796 0.00852371 0.00205354    0.0523402 ----
   286   0   0   F    F  4.18D-02 0.00065527 0.00022796 0.01774161 0.00427432    0.0523354 ----
   287   0   0   F    T  1.80D+00 0.00080645 0.00024946 0.01005048 0.00247337    0.0523354 ----
   288   0   0   F    F -9.68D-02 0.00080645 0.00024946 0.01809547 0.00445320    0.0523312 ----
   289   0   0   F    T  2.59D+00 0.00048001 0.00019767 0.00610447 0.00155344    0.0523312 ----
   290   0   0   F    F  1.19D-01 0.00048001 0.00019767 0.01580574 0.00402217    0.0523265 ----
   291   0   0   F    T  2.05D+00 0.00064955 0.00023473 0.00852359 0.00219845    0.0523264 ----
   292   0   0   F    F -2.97D-01 0.00064955 0.00023473 0.01745022 0.00450086    0.0523237 ----
   293   0   0   F    T  2.40D+00 0.00055999 0.00018077 0.00502714 0.00131648    0.0523231 ----
   294   0   0   F    F -2.45D-02 0.00055999 0.00018077 0.01208912 0.00316584    0.0523199 ----
   295   0   0   F    T  1.85D+00 0.00072208 0.00020244 0.00631679 0.00166664    0.0523199 ----
   296   0   0   F    F -2.26D-02 0.00072208 0.00020244 0.01170561 0.00308843    0.0523168 ----
   297   0   0   F    T  2.34D+00 0.00044549 0.00017666 0.00483149 0.00128924    0.0523168 ----
   298   0   0   F    F -1.09D-01 0.00044549 0.00017666 0.01131237 0.00301862    0.0523141 ----
   299   0   0   F    T  2.23D+00 0.00054681 0.00016978 0.00450505 0.00120541    0.0523140 ----
   300   0   0   F    F -1.35D-01 0.00054681 0.00016978 0.01005108 0.00268936    0.0523117 ----
   301   0   0   F    T  1.63D+00 0.00060739 0.00018403 0.00534765 0.00142867    0.0523117 ----
   302   0   0   F    F  1.95D-01 0.00060739 0.00018403 0.00870872 0.00232661    0.0523090 ----
   303   0   0   F    T  2.84D+00 0.00048632 0.00015127 0.00359935 0.00097805    0.0523089 ----
   304   0   0   F    F  2.33D-01 0.00048632 0.00015127 0.01023095 0.00278004    0.0523057 ----
   305   0   0   F    T  1.45D+00 0.00078375 0.00023500 0.00864779 0.00237123    0.0523056 ----
   306   0   0   F    F  5.04D-02 0.00078375 0.00023500 0.01250515 0.00342892    0.0523020 ----
   307   0   0   F    T  2.47D+00 0.00051321 0.00018423 0.00523964 0.00146094    0.0523020 ----
   308   0   0   F    F  2.59D-01 0.00051321 0.00018423 0.01291725 0.00360164    0.0522978 ----
   309   0   0   F    T  2.44D+00 0.00053968 0.00020737 0.00656676 0.00185944    0.0522976 ----
   310   0   0   F    F -2.76D-01 0.00053968 0.00020737 0.01601127 0.00453373    0.0522949 ----
   311   0   0   F    T  1.59D+00 0.00062817 0.00021771 0.00718532 0.00206021    0.0522944 ----
   312   0   0   F    F  2.75D-01 0.00062817 0.00021771 0.01145390 0.00328412    0.0522906 ----
   313   0   0   F    T  2.78D+00 0.00051517 0.00018589 0.00519895 0.00150879    0.0522904 ----
   314   0   0   F    F -2.76D-01 0.00051517 0.00018589 0.01443320 0.00418866    0.0522879 ----
   315   0   0   F    T  2.15D+00 0.00065581 0.00017910 0.00482421 0.00141247    0.0522874 ----
   316   0   0   F    F -1.64D-01 0.00065581 0.00017910 0.01035577 0.00303205    0.0522851 ----
   317   0   0   F    T  2.41D+00 0.00046046 0.00015373 0.00355263 0.00105381    0.0522850 ----
   318   0   0   F    F -3.80D-01 0.00046046 0.00015373 0.00854855 0.00253573    0.0522841 ----
   319   0   0   F    T  2.20D+00 0.00032141 0.00012563 0.00235156 0.00071550    0.0522835 ----
   320   0   0   F    F  2.02D-01 0.00032141 0.00012563 0.00516551 0.00157169    0.0522818 ----
   321   0   0   F    T  2.33D+00 0.00042264 0.00013294 0.00258105 0.00081214    0.0522818 ----
   322   0   0   F    F -3.09D-01 0.00042264 0.00013294 0.00600622 0.00188990    0.0522808 ----
   323   0   0   F    T  1.73D+00 0.00029897 0.00012729 0.00231950 0.00075513    0.0522806 ----
   324   0   0   F    F  9.78D-01 0.00029897 0.00012729 0.00401410 0.00130682    0.0522788 ----
   325   0   0   F    T  1.67D+00 0.00066098 0.00018162 0.00466846 0.00154856    0.0522783 ----
   326   0   0   F    F  4.51D-02 0.00066098 0.00018162 0.00779148 0.00258449    0.0522759 ----
   327   0   0   F    T  1.97D+00 0.00048935 0.00017010 0.00402196 0.00136984    0.0522759 ----
   328   0   0   F    F  7.87D-01 0.00048935 0.00017010 0.00793011 0.00270092    0.0522724 ----
   329   0   0   F    T  2.25D+00 0.00065303 0.00021177 0.00616848 0.00214078    0.0522716 ----
   330   0   0   F    F -3.69D-01 0.00065303 0.00021177 0.01390857 0.00482698    0.0522698 ----
   331   0   0   F    T  1.82D+00 0.00046127 0.00018585 0.00478059 0.00167247    0.0522689 ----
   332   0   0   F    F  3.90D-01 0.00046127 0.00018585 0.00870693 0.00304608    0.0522655 ----
   333   0   0   F    T  2.63D+00 0.00044458 0.00018083 0.00465503 0.00160800    0.0522652 ----
   334   0   0   F    F -5.82D-02 0.00044458 0.00018083 0.01225342 0.00423274    0.0522619 ----
   335   0   0   F    T  1.80D+00 0.00069145 0.00021123 0.00645080 0.00221964    0.0522618 ----
   336   0   0   F    F -1.57D-01 0.00069145 0.00021123 0.01158497 0.00398624    0.0522591 ----
   337   0   0   F    T  2.07D+00 0.00053437 0.00017936 0.00472950 0.00162529    0.0522590 ----
   338   0   0   F    F  3.54D-01 0.00053437 0.00017936 0.00977918 0.00336060    0.0522555 ----
   339   0   0   F    T  2.82D+00 0.00062986 0.00017805 0.00469435 0.00161615    0.0522552 ----
   340   0   0   F    F -3.87D-01 0.00062986 0.00017805 0.01321519 0.00454967    0.0522538 ----
   341   0   0   F    T  1.80D+00 0.00060128 0.00017388 0.00448183 0.00154800    0.0522529 ----
   342   0   0   F    T  2.31D+00 0.00042849 0.00015371 0.00345459 0.00120797    0.0522506 ----
   343   0   0   F    F -7.69D-02 0.00042849 0.00015371 0.00797571 0.00278888    0.0522485 ----
   344   0   0   F    T  2.31D+00 0.00049652 0.00014605 0.00315056 0.00111599    0.0522485 ----
   345   0   0   F    F -1.15D-01 0.00049652 0.00014605 0.00726768 0.00257436    0.0522467 ----
   346   0   0   F    T  1.89D+00 0.00039858 0.00015148 0.00351607 0.00120212    0.0522467 ----
   347   0   0   F    F -5.21D-02 0.00039858 0.00015148 0.00666123 0.00227742    0.0522449 ----
   348   0   0   F    T  1.92D+00 0.00042192 0.00014563 0.00335825 0.00112280    0.0522449 ----
   349   0   0   F    F  3.81D-01 0.00042192 0.00014563 0.00645661 0.00215870    0.0522427 ----
   350   0   0   F    T  2.32D+00 0.00047642 0.00015493 0.00384954 0.00128452    0.0522426 ----
   351   0   0   F    F -2.55D-01 0.00047642 0.00015493 0.00893318 0.00298083    0.0522410 ----
   352   0   0   F    T  1.80D+00 0.00044310 0.00015112 0.00384811 0.00123536    0.0522408 ----
   353   0   0   F    F  5.09D-01 0.00044310 0.00015112 0.00692178 0.00222210    0.0522385 ----
   354   0   0   F    T  2.05D+00 0.00055726 0.00017303 0.00521320 0.00163579    0.0522382 ----
   355   0   0   F    F -2.15D-01 0.00055726 0.00017303 0.01068439 0.00335252    0.0522364 ----
   356   0   0   F    T  2.06D+00 0.00039308 0.00015189 0.00416995 0.00127440    0.0522362 ----
   357   0   0   F    F  1.86D-01 0.00039308 0.00015189 0.00860666 0.00263033    0.0522339 ----
   358   0   0   F    T  2.63D+00 0.00036496 0.00014611 0.00396574 0.00118602    0.0522338 ----
   359   0   0   F    F -3.14D-01 0.00036496 0.00014611 0.01042704 0.00311837    0.0522326 ----
   360   0   0   F    T  1.76D+00 0.00040693 0.00014743 0.00416751 0.00121311    0.0522322 ----
   361   0   0   F    F -5.47D-02 0.00040693 0.00014743 0.00734415 0.00213779    0.0522307 ----
   362   0   0   F    T  2.69D+00 0.00034426 0.00011552 0.00278384 0.00075262    0.0522307 ----
   363   0   0   F    F -6.23D-02 0.00034426 0.00011552 0.00747521 0.00202095    0.0522293 ----
   364   0   0   F    T  2.30D+00 0.00033781 0.00012007 0.00318435 0.00082278    0.0522293 ----
   365   0   0   F    F -2.81D-01 0.00033781 0.00012007 0.00733430 0.00189506    0.0522284 ----
   366   0   0   F    T  1.67D+00 0.00040853 0.00011872 0.00325900 0.00081440    0.0522283 ----
   367   0   0   F    F  1.82D-01 0.00040853 0.00011872 0.00545009 0.00136193    0.0522271 ----
   368   0   0   F    T  3.11D+00 0.00029810 0.00009368 0.00214886 0.00051708    0.0522271 ----
   369   0   0   F    F -1.11D-01 0.00029810 0.00009368 0.00668958 0.00160970    0.0522261 ----
   370   0   0   F    T  1.80D+00 0.00044199 0.00011544 0.00333910 0.00079523    0.0522261 ----
   371   0   0   F    F -2.41D-01 0.00044199 0.00011544 0.00600997 0.00143132    0.0522254 ----
   372   0   0   F    T  2.40D+00 0.00020100 0.00008597 0.00190220 0.00045174    0.0522253 ----
   373   0   0   F    F  2.85D-01 0.00020100 0.00008597 0.00457199 0.00108577    0.0522244 ----
   374   0   0   F    T  2.03D+00 0.00027459 0.00010536 0.00289272 0.00068766    0.0522244 ----
   375   0   0   F    F -2.00D-01 0.00027459 0.00010536 0.00587066 0.00139559    0.0522237 ----
   376   0   0   F    T  2.36D+00 0.00031906 0.00008675 0.00199212 0.00047410    0.0522236 ----
   377   0   0   F    F -1.24D-01 0.00031906 0.00008675 0.00469334 0.00111694    0.0522230 ----
   378   0   0   F    T  1.81D+00 0.00031288 0.00009206 0.00227251 0.00054179    0.0522230 ----
   379   0   0   F    F  4.94D-02 0.00031288 0.00009206 0.00410232 0.00097803    0.0522223 ----
   380   0   0   F    T  2.31D+00 0.00023210 0.00008267 0.00186357 0.00044445    0.0522223 ----
   381   0   0   F    F -2.37D-02 0.00023210 0.00008267 0.00430356 0.00102636    0.0522216 ----
   382   0   0   F    T  1.81D+00 0.00028605 0.00009156 0.00232904 0.00055257    0.0522216 ----
   383   0   0   F    F  2.30D-01 0.00028605 0.00009156 0.00422334 0.00100201    0.0522209 ----
   384   0   0   F    T  1.80D+00 0.00032109 0.00010149 0.00292572 0.00068616    0.0522209 ----
   385   0   0   F    F  1.62D-01 0.00032109 0.00010149 0.00525472 0.00123238    0.0522200 ----
   386   0   0   F    T  1.78D+00 0.00032871 0.00010942 0.00349658 0.00080494    0.0522199 ----
   387   0   0   F    F  2.98D-01 0.00032871 0.00010942 0.00622058 0.00143203    0.0522188 ----
   388   0   0   F    T  2.31D+00 0.00030319 0.00010883 0.00353742 0.00080335    0.0522188 ----
   389   0   0   F    F  6.51D-02 0.00030319 0.00010883 0.00818451 0.00185870    0.0522176 ----
   390   0   0   F    T  1.71D+00 0.00041484 0.00013018 0.00510822 0.00115845    0.0522176 ----
   391   0   0   F    F -1.10D-01 0.00041484 0.00013018 0.00872944 0.00197967    0.0522165 ----
   392   0   0   F    T  2.38D+00 0.00029539 0.00010324 0.00327693 0.00074114    0.0522165 ----
   393   0   0   F    F  2.40D-01 0.00029539 0.00010324 0.00779122 0.00176213    0.0522152 ----
   394   0   0   F    T  2.46D+00 0.00042855 0.00011241 0.00392047 0.00088994    0.0522152 ----
   395   0   0   F    F -2.59D-01 0.00042855 0.00011241 0.00962819 0.00218558    0.0522143 ----
   396   0   0   F    T  1.51D+00 0.00047137 0.00012298 0.00470433 0.00107505    0.0522142 ----
   397   0   0   F    F  3.24D-01 0.00047137 0.00012298 0.00709019 0.00162028    0.0522130 ----
   398   0   0   F    T  2.93D+00 0.00023195 0.00010077 0.00316483 0.00073322    0.0522129 ----
   399   0   0   F    F -1.02D-01 0.00023195 0.00010077 0.00925995 0.00214531    0.0522118 ----
   400   0   0   F    T  2.21D+00 0.00041377 0.00010941 0.00372067 0.00087165    0.0522118 ----
   401   0   0   F    F -4.13D-01 0.00041377 0.00010941 0.00822381 0.00192660    0.0522115 ----
   402   0   0   F    T  2.12D+00 0.00024175 0.00008511 0.00223974 0.00053370    0.0522112 ----
   403   0   0   F    F  4.20D-01 0.00024175 0.00008511 0.00474908 0.00113164    0.0522103 ----
   404   0   0   F    T  2.38D+00 0.00030966 0.00009516 0.00279278 0.00067451    0.0522102 ----
   405   0   0   F    F -3.82D-01 0.00030966 0.00009516 0.00665181 0.00160653    0.0522099 ----
   406   0   0   F    T  2.14D+00 0.00022075 0.00007827 0.00188068 0.00046394    0.0522097 ----
   407   0   0   F    F  2.28D-01 0.00022075 0.00007827 0.00402743 0.00099353    0.0522090 ----
   408   0   0   F    T  1.74D+00 0.00032025 0.00009582 0.00280727 0.00070266    0.0522090 ----
   409   0   0   F    T  2.26D+00 0.00022867 0.00008344 0.00210056 0.00053882    0.0522083 ----
   410   0   0   F    F  1.13D-01 0.00022867 0.00008344 0.00475550 0.00121984    0.0522076 ----
   411   0   0   F    T  1.80D+00 0.00028458 0.00009801 0.00287738 0.00075531    0.0522076 ----
   412   0   0   F    F  9.35D-02 0.00028458 0.00009801 0.00517160 0.00135755    0.0522068 ----
   413   0   0   F    T  2.42D+00 0.00026044 0.00008817 0.00227858 0.00061426    0.0522068 ----
   414   0   0   F    F -2.72D-01 0.00026044 0.00008817 0.00550650 0.00148444    0.0522063 ----
   415   0   0   F    T  1.78D+00 0.00024956 0.00008728 0.00219506 0.00060664    0.0522062 ----
   416   0   0   F    F  2.13D-01 0.00024956 0.00008728 0.00391154 0.00108102    0.0522056 ----
   417   0   0   F    T  2.71D+00 0.00023923 0.00007759 0.00168158 0.00048385    0.0522055 ----
   418   0   0   F    F -1.31D-01 0.00023923 0.00007759 0.00455806 0.00131151    0.0522050 ----
   419   0   0   F    T  1.94D+00 0.00028333 0.00008515 0.00210078 0.00058837    0.0522049 ----
   420   0   0   F    F -3.31D-01 0.00028333 0.00008515 0.00406906 0.00113963    0.0522046 ----
   421   0   0   F    T  2.55D+00 0.00016764 0.00006004 0.00110628 0.00029876    0.0522045 -+-+
   422   0   0   F    F  2.08D-01 0.00016764 0.00006004 0.00282304 0.00076239    0.0522041 -+--
   423   0   0   F    T  3.06D+00 0.00015084 0.00005961 0.00111753 0.00030076    0.0522041 -+--
   424   0   0   T    F  4.28D-01 0.00015084 0.00005961 0.00342299 0.00092122    0.0522042 -+--
   425   0   0   F    T  1.66D+00 0.00013846 0.00005233 0.00087027 0.00023785    0.0522039 -+-+
   426   0   0   F    F  5.34D-01 0.00013846 0.00005233 0.00144269 0.00039429    0.0522036 -+--
   427   0   0   F    T  2.65D+00 0.00013291 0.00005063 0.00079983 0.00022864    0.0522036 -+-+
   428   0   0   F    F -1.85D-01 0.00013291 0.00005063 0.00211614 0.00060491    0.0522034 -+--
   429   0   0   F    T  1.90D+00 0.00016733 0.00005338 0.00085912 0.00025972    0.0522034 -+-+
   430   0   0   F    T  1.46D+00 0.00016836 0.00005979 0.00106978 0.00033880    0.0522031 -+--
   431   0   0   F    F  8.54D-01 0.00016836 0.00005979 0.00155746 0.00049324    0.0522028 -+--
   432   0   0   F    T  3.19D+00 0.00015193 0.00005723 0.00084860 0.00028627    0.0522027 -+-+
   433   0   0   F    F -2.70D-01 0.00015193 0.00005723 0.00271103 0.00091457    0.0522025 -+--
   434   0   0   F    T  1.35D+00 0.00022063 0.00007447 0.00145872 0.00049606    0.0522024 -+--
   435   0   0   F    F  7.15D-01 0.00022063 0.00007447 0.00196350 0.00066771    0.0522020 -+--
   436   0   0   F    T  2.35D+00 0.00016748 0.00007351 0.00142663 0.00048790    0.0522019 -+--
   437   0   0   F    F -2.00D-01 0.00016748 0.00007351 0.00334755 0.00114485    0.0522015 -+--
   438   0   0   F    T  1.68D+00 0.00023518 0.00007736 0.00159273 0.00054505    0.0522015 ----
   439   0   0   F    F  4.28D-01 0.00023518 0.00007736 0.00267724 0.00091618    0.0522009 ----
   440   0   0   F    T  2.60D+00 0.00022857 0.00007403 0.00146535 0.00050401    0.0522009 -+--
   441   0   0   F    F -1.11D-01 0.00022857 0.00007403 0.00380423 0.00130849    0.0522003 -+--
   442   0   0   F    T  1.79D+00 0.00025855 0.00008361 0.00186831 0.00064828    0.0522003 ----
   443   0   0   F    F -1.99D-01 0.00025855 0.00008361 0.00335244 0.00116325    0.0521999 ----
   444   0   0   F    T  2.23D+00 0.00016163 0.00006663 0.00118185 0.00041726    0.0521999 -+--
   445   0   0   F    F  3.16D-01 0.00016163 0.00006663 0.00263991 0.00093204    0.0521994 -+--
   446   0   0   F    T  2.47D+00 0.00021323 0.00007223 0.00141410 0.00049594    0.0521994 -+--
   447   0   0   F    F -2.19D-01 0.00021323 0.00007223 0.00349688 0.00122639    0.0521990 -+--
   448   0   0   F    T  1.80D+00 0.00022119 0.00007447 0.00151009 0.00053271    0.0521989 -+--
   449   0   0   F    F -3.80D-02 0.00022119 0.00007447 0.00271522 0.00095784    0.0521985 -+--
   450   0   0   F    T  1.90D+00 0.00019673 0.00007066 0.00131317 0.00048522    0.0521985 -+--
   451   0   0   F    F  4.59D-01 0.00019673 0.00007066 0.00249379 0.00092145    0.0521980 -+--
   452   0   0   F    T  2.29D+00 0.00020831 0.00007730 0.00152694 0.00058581    0.0521979 ----
   453   0   0   F    T  1.65D+00 0.00032647 0.00009046 0.00212230 0.00081523    0.0521974 ----
   454   0   0   F    F  2.50D-01 0.00032647 0.00009046 0.00349993 0.00134441    0.0521967 ----
   455   0   0   F    T  1.72D+00 0.00032922 0.00010024 0.00253248 0.00097477    0.0521967 ----
   456   0   0   F    F  4.61D-01 0.00032922 0.00010024 0.00436442 0.00167989    0.0521957 ----
   457   0   0   F    T  2.06D+00 0.00030529 0.00010981 0.00308235 0.00119143    0.0521956 ----
   458   0   0   F    F  5.13D-02 0.00030529 0.00010981 0.00635130 0.00245499    0.0521945 ----
   459   0   0   F    T  2.08D+00 0.00026695 0.00011203 0.00321971 0.00124090    0.0521945 ----
   460   0   0   F    F -1.34D-01 0.00026695 0.00011203 0.00669649 0.00258088    0.0521936 ----
   461   0   0   F    T  2.41D+00 0.00026200 0.00009666 0.00244557 0.00092643    0.0521936 ----
   462   0   0   F    F -2.79D-01 0.00026200 0.00009666 0.00590192 0.00223576    0.0521930 ----
   463   0   0   F    T  1.86D+00 0.00024148 0.00009314 0.00225744 0.00086665    0.0521929 ----
   464   0   0   F    F  3.21D-02 0.00024148 0.00009314 0.00420036 0.00161256    0.0521922 ----
   465   0   0   F    T  3.04D+00 0.00021090 0.00007359 0.00133912 0.00054820    0.0521922 -+--
   466   0   0   F    F -1.66D-01 0.00021090 0.00007359 0.00406552 0.00166432    0.0521916 -+--
   467   0   0   F    T  1.82D+00 0.00022415 0.00008649 0.00182640 0.00076223    0.0521916 ----
   468   0   0   F    F -2.31D-01 0.00022415 0.00008649 0.00332499 0.00138764    0.0521912 ----
   469   0   0   F    T  2.19D+00 0.00017292 0.00006898 0.00115624 0.00048856    0.0521912 -+--
   470   0   0   F    F  2.00D-01 0.00017292 0.00006898 0.00252677 0.00106767    0.0521907 -+--
   471   0   0   F    T  2.88D+00 0.00017181 0.00006557 0.00120363 0.00044532    0.0521906 -+--
   472   0   0   F    F -3.22D-01 0.00017181 0.00006557 0.00346294 0.00128123    0.0521904 -+--
   473   0   0   F    T  1.94D+00 0.00018879 0.00006553 0.00136112 0.00044860    0.0521903 -+--
   474   0   0   F    F -1.87D-01 0.00018879 0.00006553 0.00263535 0.00086857    0.0521900 -+--
   475   0   0   F    T  1.78D+00 0.00016425 0.00006135 0.00133915 0.00039712    0.0521900 -+--
   476   0   0   F    F  8.04D-01 0.00016425 0.00006135 0.00238073 0.00070600    0.0521896 -+--
   477   0   0   F    T  2.88D+00 0.00014694 0.00006443 0.00159808 0.00044156    0.0521895 -+--
   478   0   0   F    F -1.81D-01 0.00014694 0.00006443 0.00460906 0.00127351    0.0521891 -+--
   479   0   0   F    T  1.26D+00 0.00024715 0.00008783 0.00308570 0.00082492    0.0521891 ----
   480   0   0   F    F  7.45D-01 0.00024715 0.00008783 0.00389984 0.00104257    0.0521885 ----
   481   0   0   F    T  2.39D+00 0.00023749 0.00008399 0.00292098 0.00076008    0.0521884 ----
   482   0   0   F    F -2.02D-01 0.00023749 0.00008399 0.00699056 0.00181903    0.0521878 ----
   483   0   0   F    T  2.46D+00 0.00021961 0.00007364 0.00231388 0.00058896    0.0521878 -+--
   484   0   0   F    T  1.70D+00 0.00023613 0.00008840 0.00337646 0.00085129    0.0521872 ----
   485   0   0   F    F -3.63D-02 0.00023613 0.00008840 0.00575405 0.00145073    0.0521867 ----
   486   0   0   F    T  2.43D+00 0.00018340 0.00007176 0.00230356 0.00057558    0.0521867 -+--
   487   0   0   F    F -2.26D-01 0.00018340 0.00007176 0.00559523 0.00139805    0.0521863 -+--
   488   0   0   F    T  2.20D+00 0.00018376 0.00006611 0.00197327 0.00049177    0.0521863 -+--
   489   0   0   F    T  2.03D+00 0.00017539 0.00006867 0.00213255 0.00053401    0.0521859 -+--
   490   0   0   F    T  2.14D+00 0.00021207 0.00006622 0.00200821 0.00050566    0.0521855 -+--
   491   0   0   F    F -2.21D-01 0.00021207 0.00006622 0.00429766 0.00108213    0.0521852 -+--
   492   0   0   F    T  1.75D+00 0.00020783 0.00006508 0.00191402 0.00048299    0.0521852 -+--
   493   0   0   F    F  7.25D-01 0.00020783 0.00006508 0.00334184 0.00084329    0.0521848 -+--
   494   0   0   F    T  2.51D+00 0.00024869 0.00007066 0.00230861 0.00057868    0.0521847 -+--
   495   0   0   F    F -1.00D-01 0.00024869 0.00007066 0.00580303 0.00145460    0.0521842 -+--
   496   0   0   F    T  1.67D+00 0.00025549 0.00008205 0.00314559 0.00078221    0.0521842 ----
   497   0   0   F    F  5.40D-02 0.00025549 0.00008205 0.00526466 0.00130916    0.0521837 ----
   498   0   0   F    T  1.77D+00 0.00018829 0.00008172 0.00316205 0.00077798    0.0521837 ----
   499   0   0   F    F  5.64D-01 0.00018829 0.00008172 0.00560852 0.00137991    0.0521830 ----
   500   0   0   F    T  3.72D+00 0.00018711 0.00007043 0.00239968 0.00058047    0.0521829 -+--
   501   0   0   T    F  4.64D-01 0.00018711 0.00007043 0.00891927 0.00215752    0.0521830 -+--
   502   0   0   F    T  1.47D+00 0.00024316 0.00007615 0.00286142 0.00068316    0.0521825 ----
   503   0   0   F    F  5.28D-01 0.00024316 0.00007615 0.00419312 0.00100111    0.0521821 ----
   504   0   0   F    T  2.31D+00 0.00019512 0.00007460 0.00281156 0.00066331    0.0521820 -+--
   505   0   0   F    F -1.85D-01 0.00019512 0.00007460 0.00648470 0.00152988    0.0521816 -+--
   506   0   0   F    T  2.13D+00 0.00018019 0.00006976 0.00251646 0.00058679    0.0521816 -+--
   507   0   0   F    F  7.06D-02 0.00018019 0.00006976 0.00535008 0.00124754    0.0521811 -+--
   508   0   0   F    T  2.09D+00 0.00020214 0.00007248 0.00276031 0.00063845    0.0521811 -+--
   509   0   0   F    F -9.94D-02 0.00020214 0.00007248 0.00577458 0.00133564    0.0521807 -+--
   510   0   0   F    T  1.92D+00 0.00024191 0.00007161 0.00273166 0.00062692    0.0521807 -+--
   511   0   0   F    T  1.94D+00 0.00020356 0.00007123 0.00272288 0.00062094    0.0521803 -+--
   512   0   0   F    F  2.43D-01 0.00020356 0.00007123 0.00527459 0.00120284    0.0521798 -+--
   513   0   0   F    T  2.46D+00 0.00019089 0.00006995 0.00266048 0.00060815    0.0521798 -+--
   514   0   0   F    F -8.32D-02 0.00019089 0.00006995 0.00653999 0.00149496    0.0521793 -+--
   515   0   0   F    T  1.90D+00 0.00024526 0.00007627 0.00314531 0.00072262    0.0521793 ----
   516   0   0   F    F -2.54D-01 0.00024526 0.00007627 0.00596541 0.00137053    0.0521790 ----
   517   0   0   F    T  2.29D+00 0.00021511 0.00005981 0.00191989 0.00044629    0.0521789 -+--
   518   0   0   F    F  2.50D-01 0.00021511 0.00005981 0.00440068 0.00102296    0.0521785 -+--
   519   0   0   F    T  2.59D+00 0.00020048 0.00006281 0.00208270 0.00049459    0.0521785 -+--
   520   0   0   F    F -3.05D-01 0.00020048 0.00006281 0.00538528 0.00127888    0.0521783 -+--
   521   0   0   F    T  2.03D+00 0.00017791 0.00005886 0.00189242 0.00043774    0.0521782 -+--
   522   0   0   F    F -1.87D-01 0.00017791 0.00005886 0.00384143 0.00088857    0.0521780 -+--
   523   0   0   F    T  1.77D+00 0.00013956 0.00005659 0.00182544 0.00040842    0.0521780 -+--
   524   0   0   F    F  5.90D-01 0.00013956 0.00005659 0.00322929 0.00072251    0.0521776 -+--
   525   0   0   F    T  2.90D+00 0.00017101 0.00005544 0.00183349 0.00039577    0.0521776 -+--
   526   0   0   F    F -3.02D-01 0.00017101 0.00005544 0.00532248 0.00114889    0.0521774 -+--
   527   0   0   F    T  1.68D+00 0.00020117 0.00006073 0.00227673 0.00047881    0.0521773 -+--
   528   0   0   F    F -4.64D-02 0.00020117 0.00006073 0.00381380 0.00080207    0.0521771 -+--
   529   0   0   F    T  2.49D+00 0.00012426 0.00004834 0.00150856 0.00030732    0.0521771 -+--
   530   0   0   F    F  3.56D-02 0.00012426 0.00004834 0.00375465 0.00076488    0.0521768 -+--
   531   0   0   F    T  1.92D+00 0.00017877 0.00005577 0.00205227 0.00041287    0.0521768 -+--
   532   0   0   F    F -4.38D-02 0.00017877 0.00005577 0.00393744 0.00079213    0.0521766 -+--
   533   0   0   F    T  2.13D+00 0.00017260 0.00005149 0.00176527 0.00035504    0.0521766 -+--
   534   0   0   F    F  3.65D-01 0.00017260 0.00005149 0.00376596 0.00075743    0.0521763 -+--
   535   0   0   F    T  1.47D+00 0.00029185 0.00007228 0.00347777 0.00070306    0.0521763 -+--
   536   0   0   F    F  1.17D-01 0.00029185 0.00007228 0.00511292 0.00103362    0.0521759 -+--
   537   0   0   F    T  2.82D+00 0.00013813 0.00005494 0.00199681 0.00040997    0.0521759 -+--
   538   0   0   F    T  2.12D+00 0.00017724 0.00006281 0.00259878 0.00054344    0.0521756 -+--
   539   0   0   F    F -2.09D-01 0.00017724 0.00006281 0.00551895 0.00115409    0.0521753 -+--
   540   0   0   F    T  2.22D+00 0.00014667 0.00005506 0.00190046 0.00041057    0.0521753 -+--
   541   0   0   F    F -2.96D-01 0.00014667 0.00005506 0.00422537 0.00091284    0.0521751 -+--
   542   0   0   F    T  2.21D+00 0.00010581 0.00004582 0.00128259 0.00029084    0.0521751 ++-+
   543   0   0   F    F  1.42D-01 0.00010581 0.00004582 0.00283391 0.00064263    0.0521749 ++--
   544   0   0   F    T  2.75D+00 0.00016473 0.00004360 0.00111625 0.00026688    0.0521749 -+-+
   545   0   0   F    F -4.00D-01 0.00016473 0.00004360 0.00306928 0.00073382    0.0521748 -+--
   546   0   0   F    T  1.69D+00 0.00014766 0.00004272 0.00102379 0.00025970    0.0521747 -+-+
   547   0   0   F    F  2.38D-01 0.00014766 0.00004272 0.00173434 0.00043994    0.0521746 -+--
   548   0   0   F    T  2.19D+00 0.00011248 0.00004148 0.00091185 0.00024823    0.0521746 ++-+
   549   0   0   F    T  1.91D+00 0.00013178 0.00004335 0.00097969 0.00028559    0.0521744 -+-+
   550   0   0   F    F  1.04D-01 0.00013178 0.00004335 0.00186816 0.00054458    0.0521743 -+--
   551   0   0   F    T  2.06D+00 0.00012205 0.00004574 0.00092348 0.00029172    0.0521743 -+-+
   552   0   0   F    F  7.06D-02 0.00012205 0.00004574 0.00190303 0.00060114    0.0521741 -+--
   553   0   0   F    T  1.73D+00 0.00014704 0.00005048 0.00115251 0.00037273    0.0521741 -+--
   554   0   0   F    F  2.85D-01 0.00014704 0.00005048 0.00198996 0.00064357    0.0521738 -+--
   555   0   0   F    T  1.69D+00 0.00017670 0.00005758 0.00154171 0.00048842    0.0521738 -+--
   556   0   0   F    F  3.28D-01 0.00017670 0.00005758 0.00260945 0.00082668    0.0521735 -+--
   557   0   0   F    T  3.03D+00 0.00014074 0.00004936 0.00117927 0.00036271    0.0521735 -+--
   558   0   0   F    F -3.06D-01 0.00014074 0.00004936 0.00356818 0.00109749    0.0521733 -+--
   559   0   0   F    T  1.56D+00 0.00019352 0.00005699 0.00161718 0.00048733    0.0521733 -+--
   560   0   0   F    F  1.47D-01 0.00019352 0.00005699 0.00252635 0.00076130    0.0521731 -+--
   561   0   0   F    T  2.55D+00 0.00011394 0.00004746 0.00116296 0.00034193    0.0521731 -+--
   562   0   0   F    F -1.84D-01 0.00011394 0.00004746 0.00297017 0.00087328    0.0521729 -+--
   563   0   0   F    T  2.61D+00 0.00011823 0.00004214 0.00094991 0.00027277    0.0521729 -+-+
   564   0   0   F    F -3.02D-01 0.00011823 0.00004214 0.00248247 0.00071286    0.0521727 -+--
   565   0   0   F    T  1.63D+00 0.00015400 0.00004442 0.00108497 0.00030604    0.0521727 -+--
   566   0   0   F    F  3.34D-01 0.00015400 0.00004442 0.00176505 0.00049787    0.0521726 -+--
   567   0   0   F    T  2.10D+00 0.00012234 0.00004491 0.00113744 0.00031579    0.0521725 -+--
   568   0   0   F    F  4.19D-02 0.00012234 0.00004491 0.00239156 0.00066397    0.0521724 -+--
   569   0   0   F    T  2.23D+00 0.00013370 0.00004431 0.00113505 0.00031023    0.0521724 -+--
   570   0   0   F    F -1.16D-01 0.00013370 0.00004431 0.00253103 0.00069178    0.0521722 -+--
   571   0   0   F    T  1.54D+00 0.00014708 0.00004990 0.00146730 0.00039616    0.0521722 -+--
   572   0   0   F    F  8.13D-01 0.00014708 0.00004990 0.00226512 0.00061156    0.0521720 -+--
   573   0   0   F    T  2.24D+00 0.00014993 0.00005560 0.00184887 0.00049422    0.0521719 -+--
   574   0   0   F    F -2.73D-01 0.00014993 0.00005560 0.00414700 0.00110854    0.0521717 -+--
   575   0   0   F    T  1.97D+00 0.00014179 0.00005038 0.00154671 0.00040870    0.0521717 -+--
   576   0   0   F    F  2.92D-01 0.00014179 0.00005038 0.00305193 0.00080644    0.0521714 -+--
   577   0   0   F    T  2.00D+00 0.00015092 0.00005665 0.00198628 0.00052053    0.0521714 -+--
   578   0   0   F    F  9.69D-02 0.00015092 0.00005665 0.00397444 0.00104156    0.0521711 -+--
   579   0   0   F    T  1.91D+00 0.00024465 0.00006056 0.00230346 0.00059950    0.0521711 -+--
   580   0   0   F    F -5.93D-02 0.00024465 0.00006056 0.00438965 0.00114245    0.0521708 -+--
   581   0   0   F    T  1.95D+00 0.00019335 0.00005786 0.00213557 0.00055170    0.0521708 -+--
   582   0   0   F    F  2.19D-01 0.00019335 0.00005786 0.00415983 0.00107465    0.0521705 -+--
   583   0   0   F    T  2.55D+00 0.00019472 0.00005560 0.00200203 0.00051328    0.0521705 -+--
   584   0   0   F    F -1.86D-01 0.00019472 0.00005560 0.00511107 0.00131038    0.0521703 -+--
   585   0   0   F    T  1.71D+00 0.00022337 0.00006114 0.00246382 0.00062363    0.0521702 -+--
   586   0   0   F    F -7.11D-02 0.00022337 0.00006114 0.00421344 0.00106649    0.0521700 -+--
   587   0   0   F    T  2.77D+00 0.00012227 0.00004615 0.00145980 0.00035754    0.0521700 -+--
   588   0   0   F    F -5.51D-02 0.00012227 0.00004615 0.00404477 0.00099067    0.0521698 -+--
   589   0   0   F    T  2.01D+00 0.00020965 0.00005254 0.00193467 0.00046542    0.0521698 -+--
   590   0   0   F    F -2.63D-01 0.00020965 0.00005254 0.00389119 0.00093610    0.0521696 -+--
   591   0   0   F    T  2.58D+00 0.00010754 0.00003968 0.00113192 0.00026701    0.0521696 ++-+
   592   0   0   F    F -1.59D-01 0.00010754 0.00003968 0.00292534 0.00069006    0.0521694 ++--
   593   0   0   F    T  1.71D+00 0.00016256 0.00004460 0.00145186 0.00033985    0.0521694 -+--
   594   0   0   F    F  2.83D-01 0.00016256 0.00004460 0.00247985 0.00058049    0.0521693 -+--
   595   0   0   F    T  1.99D+00 0.00017035 0.00004667 0.00159895 0.00037491    0.0521693 -+--
   596   0   0   F    F  9.13D-02 0.00017035 0.00004667 0.00317655 0.00074482    0.0521691 -+--
   597   0   0   F    T  2.21D+00 0.00015162 0.00004603 0.00154863 0.00036754    0.0521691 -+--
   598   0   0   F    F -8.66D-02 0.00015162 0.00004603 0.00342473 0.00081280    0.0521689 -+--
   599   0   0   F    T  1.79D+00 0.00019212 0.00004879 0.00172237 0.00041566    0.0521689 -+--
   600   0   0   F    F  6.95D-02 0.00019212 0.00004879 0.00307622 0.00074238    0.0521687 -+--
   601   0   0   F    T  2.28D+00 0.00010744 0.00004445 0.00140820 0.00034833    0.0521687 ++--
   602   0   0   F    F -1.13D-01 0.00010744 0.00004445 0.00320978 0.00079396    0.0521685 ++--
   603   0   0   F    T  2.93D+00 0.00010000 0.00003666 0.00093123 0.00024029    0.0521685 ++-+
   604   0   0   F    F -4.27D-01 0.00010000 0.00003666 0.00272834 0.00070399    0.0521685 ++--
   605   0   0   F    T  1.71D+00 0.00011230 0.00003606 0.00086989 0.00023540    0.0521684 ++-+
   606   0   0   F    F  1.38D-01 0.00011230 0.00003606 0.00149054 0.00040336    0.0521683 ++--
   607   0   0   F    T  2.94D+00 0.00010381 0.00002909 0.00053335 0.00015588    0.0521683 ++-+
   608   0   0   F    F -3.81D-01 0.00010381 0.00002909 0.00157001 0.00045887    0.0521683 ++--
   609   0   0   F    T  2.03D+00 0.00010388 0.00002728 0.00043758 0.00013976    0.0521683 ====
 Energy=    0.052168255319 NIter=   0.
 Dipole moment=       0.000000       0.000000       0.000000
 ***** Axes restored to original set *****
 -------------------------------------------------------------------
 Center     Atomic                   Forces (Hartrees/Bohr)
 Number     Number              X              Y              Z
 -------------------------------------------------------------------
    1          6          -0.000010907   -0.000021412   -0.000005083
    2          6           0.000035895    0.000026912   -0.000027174
    3          6          -0.000003148   -0.000003009   -0.000006105
    4          6          -0.000017333   -0.000010362    0.000041455
[...]
 All quantities printed in internal units (Hartrees-Bohrs-Radians)
 Second derivative matrix not updated -- unit matrix used.
 RFO step:  Lambda=-6.25175259D-08.
 Linear search not attempted -- first point.
 TrRot=  0.000000  0.000000  0.000000  0.000000  0.000000  0.000000
 Variable       Old X    -DE/DX   Delta X   Delta X   Delta X     New X
                                 (Linear)    (Quad)   (Total)
    X1       -0.02896  -0.00001   0.00000  -0.00001  -0.00001  -0.02898
    Y1       -1.42308  -0.00002   0.00000  -0.00002  -0.00002  -1.42310
    Z1        0.36306  -0.00001   0.00000  -0.00001  -0.00001   0.36305
    X2        0.02968   0.00004   0.00000   0.00004   0.00004   0.02971
    Y2        1.42159   0.00003   0.00000   0.00003   0.00003   1.42162
    Z2       -0.36323  -0.00003   0.00000  -0.00003  -0.00003  -0.36326
    X3        2.61598   0.00000   0.00000   0.00000   0.00000   2.61598
    Y3        2.51816   0.00000   0.00000   0.00000   0.00000   2.51816
    Z3       -0.23264  -0.00001   0.00000  -0.00001  -0.00001  -0.23265
    X4       -2.61559  -0.00002   0.00000  -0.00002  -0.00002  -2.61560
    Y4       -2.51875  -0.00001   0.00000  -0.00001  -0.00001  -2.51876
    Z4        0.23275   0.00004   0.00000   0.00004   0.00004   0.23280
    X5        3.76196  -0.00001   0.00000  -0.00001  -0.00001   3.76195
    Y5        3.05431   0.00001   0.00000   0.00001   0.00001   3.05432
    Z5        2.11141   0.00001   0.00000   0.00001   0.00001   2.11142
    X6        3.96564   0.00002   0.00000   0.00002   0.00002   3.96566
    Y6        3.13921   0.00003   0.00000   0.00003   0.00003   3.13924
    Z6       -2.44234  -0.00001   0.00000  -0.00001  -0.00001  -2.44235
    X7        5.76286   0.00002   0.00000   0.00002   0.00002   5.76288
    Y7        4.79208   0.00004   0.00000   0.00004   0.00004   4.79213
    Z7        2.24341  -0.00001   0.00000  -0.00001  -0.00001   2.24340
    X8        6.95962  -0.00002   0.00000  -0.00002  -0.00002   6.95960
    Y8        5.58713  -0.00002   0.00000  -0.00002  -0.00002   5.58711
    Z8        0.01400   0.00002   0.00000   0.00002   0.00002   0.01402
    X9        5.92617   0.00001   0.00000   0.00001   0.00001   5.92618
    Y9        4.92287   0.00000   0.00000   0.00000   0.00000   4.92287
    Z9       -2.33621  -0.00002   0.00000  -0.00002  -0.00002  -2.33623
   X10       -3.96636   0.00003   0.00000   0.00003   0.00003  -3.96632
   Y10       -3.13733   0.00002   0.00000   0.00002   0.00002  -3.13731
   Z10        2.44244   0.00002   0.00000   0.00002   0.00002   2.44247
   X11       -3.76129  -0.00007   0.00000  -0.00007  -0.00007  -3.76135
   Y11       -3.05598  -0.00007   0.00000  -0.00007  -0.00007  -3.05605
   Z11       -2.11109  -0.00005   0.00000  -0.00005  -0.00005  -2.11114
   X12       -5.76256   0.00004   0.00000   0.00004   0.00004  -5.76252
   Y12       -4.79350   0.00000   0.00000   0.00000   0.00000  -4.79350
   Z12       -2.24245  -0.00003   0.00000  -0.00003  -0.00003  -2.24248
   X13       -6.96015   0.00002   0.00000   0.00002   0.00002  -6.96014
   Y13       -5.58660   0.00000   0.00000   0.00000   0.00000  -5.58659
   Z13       -0.01289   0.00004   0.00000   0.00004   0.00004  -0.01285
   X14       -5.92746  -0.00007   0.00000  -0.00007  -0.00007  -5.92753
   Y14       -4.92032  -0.00007   0.00000  -0.00007  -0.00007  -4.92039
   Z14        2.33715  -0.00002   0.00000  -0.00002  -0.00002   2.33713
   X15        1.21010   0.00002   0.00000   0.00002   0.00002   1.21012
   Y15       -2.48857   0.00004   0.00000   0.00004   0.00004  -2.48853
   Z15       -0.90326   0.00004   0.00000   0.00004   0.00004  -0.90322
   X16        0.72966  -0.00005   0.00000  -0.00005  -0.00005   0.72961
   Y16       -1.64431   0.00000   0.00000   0.00000   0.00000  -1.64431
   Z16        2.27325  -0.00001   0.00000  -0.00001  -0.00001   2.27324
   X17       -0.72832   0.00002   0.00000   0.00002   0.00002  -0.72830
   Y17        1.64254  -0.00001   0.00000  -0.00001  -0.00001   1.64254
   Z17       -2.27371   0.00002   0.00000   0.00002   0.00002  -2.27369
   X18       -1.21014  -0.00001   0.00000  -0.00001  -0.00001  -1.21014
   Y18        2.48679  -0.00002   0.00000  -0.00002  -0.00002   2.48677
   Z18        0.90254  -0.00002   0.00000  -0.00002  -0.00002   0.90252
   X19        3.16251  -0.00001   0.00000  -0.00001  -0.00001   3.16250
   Y19        2.17815  -0.00001   0.00000  -0.00001  -0.00001   2.17814
   Z19        3.72619  -0.00002   0.00000  -0.00002  -0.00002   3.72617
   X20        3.56652  -0.00003   0.00000  -0.00003  -0.00003   3.56650
   Y20        2.26225   0.00003   0.00000   0.00003   0.00003   2.26228
   Z20       -4.11810  -0.00001   0.00000  -0.00001  -0.00001  -4.11812
   X21        6.33691   0.00001   0.00000   0.00001   0.00001   6.33692
   Y21        5.48462  -0.00002   0.00000  -0.00002  -0.00002   5.48460
   Z21        3.95332   0.00001   0.00000   0.00001   0.00001   3.95333
   X22        8.58006   0.00001   0.00000   0.00001   0.00001   8.58007
   Y22        6.63544   0.00002   0.00000   0.00002   0.00002   6.63546
   Z22        0.10145   0.00000   0.00000   0.00000   0.00000   0.10145
   X23        6.58506   0.00003   0.00000   0.00003   0.00003   6.58509
   Y23        5.74272  -0.00002   0.00000  -0.00002  -0.00002   5.74270
   Z23       -3.95676   0.00000   0.00000   0.00000   0.00000  -3.95676
   X24       -3.56773   0.00002   0.00000   0.00002   0.00002  -3.56771
   Y24       -2.25860  -0.00005   0.00000  -0.00005  -0.00005  -2.25865
   Z24        4.11740   0.00002   0.00000   0.00002   0.00002   4.11742
   X25       -3.16167   0.00003   0.00000   0.00003   0.00003  -3.16164
   Y25       -2.18077   0.00003   0.00000   0.00003   0.00003  -2.18074
   Z25       -3.72621   0.00000   0.00000   0.00000   0.00000  -3.72621
   X26       -6.33612  -0.00001   0.00000  -0.00001  -0.00001  -6.33613
   Y26       -5.48735   0.00003   0.00000   0.00003   0.00003  -5.48732
   Z26       -3.95199  -0.00002   0.00000  -0.00002  -0.00002  -3.95200
   X27       -8.58034   0.00000   0.00000   0.00000   0.00000  -8.58034
   Y27       -6.63544   0.00000   0.00000   0.00000   0.00000  -6.63543
   Z27       -0.10014   0.00001   0.00000   0.00001   0.00001  -0.10012
   X28       -6.58740  -0.00002   0.00000  -0.00002  -0.00002  -6.58742
   Y28       -5.73863   0.00004   0.00000   0.00004   0.00004  -5.73859
   Z28        3.95802   0.00002   0.00000   0.00002   0.00002   3.95805
         Item               Value     Threshold  Converged?
 Maximum Force            0.000075     0.000450     YES
 RMS     Force            0.000027     0.000300     YES
 Maximum Displacement     0.000075     0.001800     YES
 RMS     Displacement     0.000027     0.001200     YES
 Predicted change in Energy=-3.125876D-08
 Optimization completed.
    -- Stationary point found.
 GradGradGradGradGradGradGradGradGradGradGradGradGradGradGradGradGradGrad

                          Input orientation:                          
 ---------------------------------------------------------------------
 Center     Atomic     Atomic              Coordinates (Angstroms)
 Number     Number      Type              X           Y           Z
 ---------------------------------------------------------------------
    1          6      10061003       -0.015327   -0.753060    0.192123
    2          6      10061003        0.015705    0.752272   -0.192213
    3          6      10061000        1.384319    1.332554   -0.123108
    4          6      10061000       -1.384108   -1.332864    0.123168
    5          6      10061000        1.990743    1.616270    1.117310
    6          6      10061000        2.098527    1.661197   -1.292431
    7          6      10061000        3.049575    2.535862    1.187163
    8          6      10061000        3.682874    2.956582    0.007409
    9          6      10061000        3.135996    2.605071   -1.236268
   10          6      10061000       -2.098906   -1.660204    1.292486
   11          6      10061000       -1.990387   -1.617157   -1.117143
   12          6      10061000       -3.049417   -2.536609   -1.186654
   13          6      10061000       -3.683153   -2.956299   -0.006821
   14          6      10061000       -3.136677   -2.603721    1.236764
   15          1      10011000        0.640357   -1.316897   -0.477983
   16          1      10011000        0.386118   -0.870129    1.202951
   17          1      10011000       -0.385409    0.869197   -1.203194
   18          1      10011000       -0.640376    1.315952    0.477603
   19          1      10011000        1.673526    1.152629    1.971815
   20          1      10011000        1.887322    1.197131   -2.179206
   21          1      10011000        3.353349    2.902336    2.092008
   22          1      10011000        4.540372    3.511324    0.053686
   23          1      10011000        3.484661    3.038916   -2.093826
   24          1      10011000       -1.887960   -1.195202    2.178835
   25          1      10011000       -1.673084   -1.154011   -1.971824
   26          1      10011000       -3.352929   -2.903779   -2.091301
   27          1      10011000       -4.540523   -3.511321   -0.052991
   28          1      10011000       -3.485901   -3.036754    2.094495
 ---------------------------------------------------------------------
                    Distance matrix (angstroms):
                    1          2          3          4          5
     1  C    0.000000
     2  C    1.553931   0.000000
     3  C    2.531436   1.488155   0.000000
     4  C    1.488116   2.531153   3.850883   0.000000
     5  C    3.239447   2.522324   1.409568   4.590788   0.000000
     6  C    3.535663   2.524831   1.409047   4.805941   2.412568
     7  C    4.604426   3.779978   2.436768   5.979688   1.404155
     8  C    5.241398   4.283335   2.817420   6.639809   2.427267
     9  C    4.821636   3.776126   2.434501   6.147092   2.797974
    10  C    2.524879   3.534962   4.805556   1.409039   5.243206
    11  C    2.522242   3.239459   4.591028   1.409528   5.594393
    12  C    3.779917   4.604414   5.979930   2.436778   6.925162
    13  C    4.283315   5.241128   6.639809   2.817454   7.373274
    14  C    3.776115   4.821014   6.146781   2.434475   6.641764
    15  H    1.094018   2.180210   2.774709   2.111894   3.601663
    16  H    1.093910   2.171606   2.758016   2.124560   2.960463
    17  H    2.171540   1.093914   2.124435   2.757845   3.404256
    18  H    2.180137   1.093998   2.111994   2.773984   2.724372
    19  H    3.106635   2.755299   2.122432   4.352505   1.022629
    20  H    3.611997   2.765681   2.121059   4.733293   3.324664
    21  H    5.321604   4.580426   3.353809   6.652575   2.112036
    22  H    6.241677   5.305228   3.839136   7.653134   3.350095
    23  H    5.643984   4.569303   3.347661   6.908867   3.816688
    24  H    2.765731   3.610881   4.732473   2.120986   4.906685
    25  H    2.755283   3.106919   4.352985   2.122378   5.535417
    26  H    4.580306   5.321742   6.652956   3.353790   7.699407
    27  H    5.305231   6.241540   7.653221   3.839226   8.385657
    28  H    4.569373   5.643315   6.908521   3.347672   7.252528
                    6          7          8          9         10
     6  C    0.000000
     7  C    2.796054   0.000000
     8  C    2.424410   1.403529   0.000000
     9  C    1.403707   2.425959   1.403342   0.000000
    10  C    5.944068   6.642659   7.509669   7.210504   0.000000
    11  C    5.243810   6.925215   7.373574   6.642379   2.412456
    12  C    6.643349   8.280258   8.770671   8.043548   2.796013
    13  C    7.510119   8.770351   9.445672   8.884884   2.424438
    14  C    7.210666   8.042853   8.884512   8.520201   1.403673
    15  H    3.414474   4.839503   5.268315   4.710100   3.279631
    16  H    3.945490   4.323775   5.190534   5.058521   2.609134
    17  H    2.608671   4.504519   4.730081   3.926149   3.944916
    18  H    3.279299   3.950619   4.647929   4.342829   3.413042
    19  H    3.330851   2.102979   3.339255   3.813162   4.754446
    20  H    1.022905   3.804664   3.331810   2.104901   6.008912
    21  H    3.816993   1.022412   2.111181   3.348587   7.154236
    22  H    3.346283   2.111582   1.022342   2.111291   8.506430
    23  H    2.112277   3.347724   2.112168   1.022348   8.045189
    24  H    6.008393   6.267655   7.279190   7.165552   1.022907
    25  H    4.755210   6.774797   7.035669   6.148088   3.330657
    26  H    7.155108   9.018319   9.394197   8.554803   3.816945
    27  H    8.506946   9.783455  10.462393   9.886320   3.346406
    28  H    8.045362   8.636536   9.574307   9.315240   2.112312
                   11         12         13         14         15
    11  C    0.000000
    12  C    1.404197   0.000000
    13  C    2.427257   1.403484   0.000000
    14  C    2.797887   2.425917   1.403371   0.000000
    15  H    2.723875   3.950233   4.647835   4.343070   0.000000
    16  H    3.404213   4.504472   4.730182   3.926393   1.757777
    17  H    2.960627   4.323971   5.190457   5.058066   2.521336
    18  H    3.601232   4.838952   5.267380   4.708682   3.079824
    19  H    5.535127   6.774407   7.035076   6.147236   3.628706
    20  H    4.907629   6.268761   7.280140   7.166303   3.281680
    21  H    7.699349   9.018157   9.393671   8.553861   5.636232
    22  H    8.385880   9.783703  10.462322   9.885876   6.229327
    23  H    7.253211   8.637339   9.574746   9.315272   5.447396
    24  H    3.324456   3.804585   3.331857   2.104926   3.669588
    25  H    1.022577   2.102941   3.339140   3.812978   2.758642
    26  H    2.112084   1.022409   2.111129   3.348555   4.589915
    27  H    3.350145   2.111552   1.022381   2.111395   5.642484
    28  H    3.816601   3.347626   2.112086   1.022339   5.157670
                   16         17         18         19         20
    16  H    0.000000
    17  H    3.067580   0.000000
    18  H    2.521661   1.757747   0.000000
    19  H    2.517960   3.794763   2.759254   0.000000
    20  H    4.238652   2.495085   3.669061   4.156761   0.000000
    21  H    4.881227   5.382409   4.590507   2.428524   4.827031
    22  H    6.146200   5.729215   5.642652   4.178693   4.168929
    23  H    5.979159   4.525301   5.157207   4.834018   2.439457
    24  H    2.495887   4.237632   3.279718   4.270755   6.242478
    25  H    3.794747   2.518387   3.628622   5.663275   4.271695
    26  H    5.382221   4.881624   5.635898   7.630767   6.654730
    27  H    5.729317   6.146289   6.228583   8.029114   8.246666
    28  H    4.525665   5.978650   5.445862   6.647230   8.066092
                   21         22         23         24         25
    21  H    0.000000
    22  H    2.436114   0.000000
    23  H    4.190120   2.439160   0.000000
    24  H    6.653471   8.245672   8.065262   0.000000
    25  H    7.631102   8.029638   6.648147   4.156421   0.000000
    26  H    9.807406  10.395130   9.059154   4.826948   2.428547
    27  H   10.394673  11.480052  10.558134   4.169117   4.178640
    28  H    9.058043  10.557618  10.151086   2.439640   4.833837
                   26         27         28
    26  H    0.000000
    27  H    2.436020   0.000000
    28  H    4.190018   2.439085   0.000000
 Stoichiometry    C14H14
 Framework group  C1[X(C14H14)]
 Deg. of freedom    78
 Full point group                 C1
 Largest Abelian subgroup         C1      NOp   1
 Largest concise Abelian subgroup C1      NOp   1
                         Standard orientation:                         
 ---------------------------------------------------------------------
 Center     Atomic     Atomic              Coordinates (Angstroms)
 Number     Number      Type              X           Y           Z
 ---------------------------------------------------------------------
    1          6      10061003       -0.495414    0.190659    0.567797
    2          6      10061003        0.495255   -0.190982   -0.566939
    3          6      10061000        1.918036   -0.090250   -0.142494
    4          6      10061000       -1.918022    0.090075    0.142875
    5          6      10061000        2.543397    1.163905    0.008835
    6          6      10061000        2.698918   -1.242728    0.075298
    7          6      10061000        3.943917    1.258815   -0.025596
    8          6      10061000        4.721383    0.094196    0.069828
    9          6      10061000        4.098717   -1.161957    0.008727
   10          6      10061000       -2.698528    1.242536   -0.076297
   11          6      10061000       -2.543640   -1.163971   -0.007919
   12          6      10061000       -3.944231   -1.258542    0.026274
   13          6      10061000       -4.721378   -0.093854   -0.070223
   14          6      10061000       -4.098340    1.162200   -0.010199
   15          1      10011000       -0.337722   -0.465173    1.429128
   16          1      10011000       -0.279277    1.210150    0.900305
   17          1      10011000        0.279283   -1.210617   -0.899124
   18          1      10011000        0.337162    0.464553   -1.428399
   19          1      10011000        1.987921    2.010443    0.152330
   20          1      10011000        2.256518   -2.134630    0.310086
   21          1      10011000        4.395060    2.170751   -0.126437
   22          1      10011000        5.734652    0.160529    0.188448
   23          1      10011000        4.659471   -2.010874   -0.091726
   24          1      10011000       -2.255722    2.134008   -0.311966
   25          1      10011000       -1.988412   -2.010683   -0.150976
   26          1      10011000       -4.395619   -2.170276    0.127815
   27          1      10011000       -5.734728   -0.160077   -0.188547
   28          1      10011000       -4.659010    2.011278    0.089269
 ---------------------------------------------------------------------
 Rotational constants (GHZ):      2.6009755      0.2635033      0.2426172
 1|1|UNPC-UNK|FOpt|Dreiding|ZDO|C14H14|PCUSER|28-Mar-2008|0||# opt drei
 ding||DiPhEt-a||0,1|C,-0.0153271417,-0.7530599501,0.1921225911|C,0.015
 7053031,0.7522720659,-0.1922125616|C,1.3843191469,1.3325541341,-0.1231
 078736|C,-1.3841082357,-1.3328640577,0.1231684782|C,1.9907433441,1.616
 2703952,1.1173101863|C,2.0985269902,1.6611967887,-1.292430683|C,3.0495
 748252,2.5358616925,1.1871634727|C,3.6828742465,2.9565819746,0.0074087
 878|C,3.1359956104,2.6050706337,-1.2362679831|C,-2.0989060812,-1.66020
 44854,1.2924862249|C,-1.9903872123,-1.6171565059,-1.1171432697|C,-3.04
 94167734,-2.5366090348,-1.1866535284|C,-3.6831533883,-2.9562989251,-0.
 0068205866|C,-3.1366765639,-2.603721362,1.2367643317|H,0.6403567239,-1
 .3168971286,-0.4779826021|H,0.3861177234,-0.8701293262,1.2029514723|H,
 -0.385409329,0.8691973242,-1.2031937918|H,-0.6403760296,1.3159523163,0
 .477603014|H,1.6735256017,1.1526290662,1.971815224|H,1.8873222203,1.19
 71314869,-2.1792056221|H,3.353348719,2.9023362213,2.0920083508|H,4.540
 3724732,3.5113242956,0.0536856907|H,3.4846614436,3.0389158472,-2.09382
 5658|H,-1.887960415,-1.1952021889,2.1788347229|H,-1.6730844964,-1.1540
 112088,-1.9718241714|H,-3.352928736,-2.9037791233,-2.091301177|H,-4.54
 0522676,-3.5113210642,-0.0529910619|H,-3.4859014935,-3.0367540427,2.09
 44951044||Version=IA32W-G03RevD.01|HF=0.0521683|RMSD=0.000e+000|RMSF=2
 .728e-005|Thermal=0.|Dipole=0.,0.,0.|PG=C01 [X(C14H14)]||@


 ONE THORN OF EXPERIENCE IS WORTH A WHOLE WILDERNESS OF
 WARNING....  LOWELL - AMONG MY BOOKS
 Job cpu time:  0 days  0 hours  0 minutes  6.0 seconds.
 File lengths (MBytes):  RWF=     11 Int=      0 D2E=      0 Chk=      4 Scr=      1
 Normal termination of Gaussian 03 at Fri Mar 28 18:26:26 2008.
