 Entering Link 1 = C:\G03W\l1.exe PID=       664.
  
 Copyright (c) 1988,1990,1992,1993,1995,1998,2003,2004, Gaussian, Inc.
                  All Rights Reserved.
  
 This is the Gaussian(R) 03 program.  It is based on the
 the Gaussian(R) 98 system (copyright 1998, Gaussian, Inc.),
 the Gaussian(R) 94 system (copyright 1995, Gaussian, Inc.),
 the Gaussian 92(TM) system (copyright 1992, Gaussian, Inc.),
 the Gaussian 90(TM) system (copyright 1990, Gaussian, Inc.),
 the Gaussian 88(TM) system (copyright 1988, Gaussian, Inc.),
 the Gaussian 86(TM) system (copyright 1986, Carnegie Mellon
 University), and the Gaussian 82(TM) system (copyright 1983,
 Carnegie Mellon University). Gaussian is a federally registered
 trademark of Gaussian, Inc.
  
 This software contains proprietary and confidential information,
 including trade secrets, belonging to Gaussian, Inc.
  
 This software is provided under written license and may be
 used, copied, transmitted, or stored only in accord with that
 written license.
  
 The following legend is applicable only to US Government
 contracts under FAR:
  
                    RESTRICTED RIGHTS LEGEND
  
 Use, reproduction and disclosure by the US Government is
 subject to restrictions as set forth in subparagraphs (a)
 and (c) of the Commercial Computer Software - Restricted
 Rights clause in FAR 52.227-19.
  
 Gaussian, Inc.
 340 Quinnipiac St., Bldg. 40, Wallingford CT 06492
  
  
 ---------------------------------------------------------------
 Warning -- This program may not be used in any manner that
 competes with the business of Gaussian, Inc. or will provide
 assistance to any competitor of Gaussian, Inc.  The licensee
 of this program is prohibited from giving any competitor of
 Gaussian, Inc. access to this program.  By using this program,
 the user acknowledges that Gaussian, Inc. is engaged in the
 business of creating and licensing software in the field of
 computational chemistry and represents and warrants to the
 licensee that it is not a competitor of Gaussian, Inc. and that
 it will not use this program in any manner prohibited above.
 ---------------------------------------------------------------
  

 Cite this work as:
 Gaussian 03, Revision D.01,
 M. J. Frisch, G. W. Trucks, H. B. Schlegel, G. E. Scuseria, 
 M. A. Robb, J. R. Cheeseman, J. A. Montgomery, Jr., T. Vreven, 
 K. N. Kudin, J. C. Burant, J. M. Millam, S. S. Iyengar, J. Tomasi, 
 V. Barone, B. Mennucci, M. Cossi, G. Scalmani, N. Rega, 
 G. A. Petersson, H. Nakatsuji, M. Hada, M. Ehara, K. Toyota, 
 R. Fukuda, J. Hasegawa, M. Ishida, T. Nakajima, Y. Honda, O. Kitao, 
 H. Nakai, M. Klene, X. Li, J. E. Knox, H. P. Hratchian, J. B. Cross, 
 V. Bakken, C. Adamo, J. Jaramillo, R. Gomperts, R. E. Stratmann, 
 O. Yazyev, A. J. Austin, R. Cammi, C. Pomelli, J. W. Ochterski, 
 P. Y. Ayala, K. Morokuma, G. A. Voth, P. Salvador, J. J. Dannenberg, 
 V. G. Zakrzewski, S. Dapprich, A. D. Daniels, M. C. Strain, 
 O. Farkas, D. K. Malick, A. D. Rabuck, K. Raghavachari, 
 J. B. Foresman, J. V. Ortiz, Q. Cui, A. G. Baboul, S. Clifford, 
 J. Cioslowski, B. B. Stefanov, G. Liu, A. Liashenko, P. Piskorz, 
 I. Komaromi, R. L. Martin, D. J. Fox, T. Keith, M. A. Al-Laham, 
 C. Y. Peng, A. Nanayakkara, M. Challacombe, P. M. W. Gill, 
 B. Johnson, W. Chen, M. W. Wong, C. Gonzalez, and J. A. Pople, 
 Gaussian, Inc., Wallingford CT, 2004.
 
 ******************************************
 Gaussian 03:  IA32W-G03RevD.01 13-Oct-2005
                11-Mar-2008 
 ******************************************
 --------------
 # opt dreiding
 --------------
 1/6=10,10=10,14=-1,18=4000020,38=1,56=1,64=1/1,3;
 2/9=110,17=6,18=5,40=1/2;
 3/5=30,11=9,16=1,25=1,30=1/1;
 4/20=9,22=1001,24=3/2;
 7/44=-1/16;
 1/6=10,10=10,14=-1,18=4000020,64=1/3(2);
 2/9=110/2;
 99//99;
 2/9=110/2;
 3/5=30,11=9,16=1,25=1,30=1/1;
 4/16=2,20=9,22=1001,24=3/2;
 7/44=-1/16;
 1/6=10,10=10,14=-1,18=4000020,64=1/3(-4);
 2/9=110/2;
 99//99;
 ------------
 ethylbenzene
 ------------
 Symbolic Z-matrix:
 Charge =  0 Multiplicity = 1
 C                    -0.2459   -1.01505   0. 
 C                    -0.3249    0.38295   0. 
 C                     0.8751    1.10595   0. 
 C                     0.9891   -1.66905   0. 
 C                     2.1731   -0.93205   0. 
 C                     2.1141    0.46095   0. 
 C                    -1.6339    1.14395   0. 
 C                    -2.9189    0.30495   0. 
 H                    -1.1559   -1.63405   0. 
 H                     0.8471    2.20795   0. 
 H                     1.0291   -2.77105   0. 
 H                     3.1491   -1.44705   0. 
 H                     3.0451    1.05295   0. 
 H                    -1.6449    1.80495   0.899 
 H                    -1.6449    1.80495  -0.899 
 H                    -3.8179    0.96395   0. 
 H                    -2.9869   -0.33905  -0.907 
 H                    -2.9869   -0.33905   0.907 
 
 I=    1 IAn=  6 Valence=36.
          JB=  1 J=    2 IAn=  6 IBT=12 Dist= 1.40D+00
          JB=  2 J=    4 IAn=  6 IBT=12 Dist= 1.40D+00
          JB=  3 J=    9 IAn=  1 IBT= 1 Dist= 1.10D+00
 I=    2 IAn=  6 Valence=36.
          JB=  1 J=    1 IAn=  6 IBT=12 Dist= 1.40D+00
          JB=  2 J=    3 IAn=  6 IBT=12 Dist= 1.40D+00
          JB=  3 J=    7 IAn=  6 IBT= 1 Dist= 1.51D+00
 I=    3 IAn=  6 Valence=36.
          JB=  1 J=    2 IAn=  6 IBT=12 Dist= 1.40D+00
          JB=  2 J=    6 IAn=  6 IBT=12 Dist= 1.40D+00
          JB=  3 J=   10 IAn=  1 IBT= 1 Dist= 1.10D+00
 I=    4 IAn=  6 Valence=36.
          JB=  1 J=    1 IAn=  6 IBT=12 Dist= 1.40D+00
          JB=  2 J=    5 IAn=  6 IBT=12 Dist= 1.39D+00
          JB=  3 J=   11 IAn=  1 IBT= 1 Dist= 1.10D+00
 I=    5 IAn=  6 Valence=36.
          JB=  1 J=    4 IAn=  6 IBT=12 Dist= 1.39D+00
          JB=  2 J=    6 IAn=  6 IBT=12 Dist= 1.39D+00
          JB=  3 J=   12 IAn=  1 IBT= 1 Dist= 1.10D+00
 I=    6 IAn=  6 Valence=36.
          JB=  1 J=    3 IAn=  6 IBT=12 Dist= 1.40D+00
          JB=  2 J=    5 IAn=  6 IBT=12 Dist= 1.39D+00
          JB=  3 J=   13 IAn=  1 IBT= 1 Dist= 1.10D+00
 Include all MM classes
 MMInit generated parameter data with length LenPar=  1634.

 GradGradGradGradGradGradGradGradGradGradGradGradGradGradGradGradGradGrad
 Berny optimization.
 Initialization pass.
 No Z-matrix variables, so optimization will use Cartesian coordinates.
 Trust Radius=1.00D-01 FncErr=1.00D-07 GrdErr=1.00D-07
 Number of steps in this run=   2 maximum allowed number of steps=   2.
 GradGradGradGradGradGradGradGradGradGradGradGradGradGradGradGradGradGrad

                          Input orientation:                          
 ---------------------------------------------------------------------
 Center     Atomic     Atomic              Coordinates (Angstroms)
 Number     Number      Type              X           Y           Z
 ---------------------------------------------------------------------
    1          6      10061000       -0.245897   -1.015052    0.000000
    2          6      10061000       -0.324897    0.382948    0.000000
    3          6      10061000        0.875103    1.105948    0.000000
    4          6      10061000        0.989103   -1.669052    0.000000
    5          6      10061000        2.173103   -0.932052    0.000000
    6          6      10061000        2.114103    0.460948    0.000000
    7          6      10061003       -1.633897    1.143948    0.000000
    8          6      10061003       -2.918897    0.304948    0.000000
    9          1      10011000       -1.155897   -1.634052    0.000000
   10          1      10011000        0.847103    2.207948    0.000000
   11          1      10011000        1.029103   -2.771052    0.000000
   12          1      10011000        3.149103   -1.447052    0.000000
   13          1      10011000        3.045103    1.052948    0.000000
   14          1      10011000       -1.644897    1.804948    0.899000
   15          1      10011000       -1.644897    1.804948   -0.899000
   16          1      10011000       -3.817897    0.963948    0.000000
   17          1      10011000       -2.986897   -0.339052   -0.907000
   18          1      10011000       -2.986897   -0.339052    0.907000
 ---------------------------------------------------------------------
                    Distance matrix (angstroms):
                    1          2          3          4          5
     1  C    0.000000
     2  C    1.400230   0.000000
     3  C    2.399017   1.400974   0.000000
     4  C    1.397477   2.436658   2.777341   0.000000
     5  C    2.420424   2.822982   2.416247   1.394642   0.000000
     6  C    2.783555   2.440247   1.396834   2.408843   1.394249
     7  C    2.566676   1.514134   2.509288   3.846180   4.336245
     8  C    2.981162   2.595172   3.877633   4.378258   5.240099
     9  H    1.100573   2.181479   3.410654   2.145286   3.402212
    10  H    3.403289   2.168919   1.102356   3.879600   3.408501
    11  H    2.170060   3.432351   3.880057   1.102726   2.165792
    12  H    3.422375   3.926522   3.418901   2.171378   1.103540
    13  H    3.886812   3.435957   2.170647   3.411220   2.168089
    14  H    3.273805   2.138384   2.765357   4.451386   4.782938
    15  H    3.273805   2.138384   2.765357   4.451386   4.782938
    16  H    4.083580   3.540990   4.695148   5.480870   6.283860
    17  H    2.965250   2.903477   4.222051   4.289537   5.272561
    18  H    2.965250   2.903477   4.222051   4.289537   5.272561
                    6          7          8          9         10
     6  C    0.000000
     7  C    3.809723   0.000000
     8  C    5.035417   1.534648   0.000000
     9  H    3.883545   2.818824   2.620666   0.000000
    10  H    2.158077   2.699529   4.219498   4.332779   0.000000
    11  H    3.409259   4.734849   5.004846   2.463127   4.982325
    12  H    2.170643   5.439703   6.315863   4.309060   4.319517
    13  H    1.103279   4.679885   6.010724   4.986820   2.482988
    14  H    4.092019   1.115905   2.163626   3.588042   2.679678
    15  H    4.092019   1.115905   2.163626   3.588042   2.679678
    16  H    5.953288   2.191405   1.114667   3.719657   4.828018
    17  H    5.242409   2.202850   1.114455   2.419139   4.691419
    18  H    5.242409   2.202850   1.114455   2.419139   4.691419
                   11         12         13         14         15
    11  H    0.000000
    12  H    2.499475   0.000000
    13  H    4.322873   2.502162   0.000000
    14  H    5.375710   5.862264   4.834233   0.000000
    15  H    5.375710   5.862264   4.834233   1.798000   0.000000
    16  H    6.119120   7.372382   6.863577   2.497481   2.497481
    17  H    4.781791   6.300858   6.256623   3.107947   2.529380
    18  H    4.781791   6.300858   6.256623   2.529380   3.107947
                   16         17         18
    16  H    0.000000
    17  H    1.791932   0.000000
    18  H    1.791932   1.814000   0.000000
 Stoichiometry    C8H10
 Framework group  CS[SG(C8H6),X(H4)]
 Deg. of freedom    31
 Full point group                 CS
 Largest Abelian subgroup         CS      NOp   2
 Largest concise Abelian subgroup CS      NOp   2
                         Standard orientation:                         
 ---------------------------------------------------------------------
 Center     Atomic     Atomic              Coordinates (Angstroms)
 Number     Number      Type              X           Y           Z
 ---------------------------------------------------------------------
    1          6      10061000       -0.844187   -0.614934    0.000000
    2          6      10061000        0.000000    0.502202    0.000000
    3          6      10061000        1.382786    0.277185    0.000000
    4          6      10061000       -0.325553   -1.912609    0.000000
    5          6      10061000        1.054089   -2.116600    0.000000
    6          6      10061000        1.910291   -1.016215    0.000000
    7          6      10061003       -0.505838    1.929343    0.000000
    8          6      10061003       -2.028485    2.120896    0.000000
    9          1      10011000       -1.938554   -0.498226    0.000000
   10          1      10011000        2.074366    1.135616    0.000000
   11          1      10011000       -1.007984   -2.778804    0.000000
   12          1      10011000        1.465150   -3.140724    0.000000
   13          1      10011000        3.003205   -1.167097    0.000000
   14          1      10011000       -0.086596    2.440497    0.899000
   15          1      10011000       -0.086596    2.440497   -0.899000
   16          1      10011000       -2.287671    3.205011    0.000000
   17          1      10011000       -2.496969    1.673814   -0.907000
   18          1      10011000       -2.496969    1.673814    0.907000
 ---------------------------------------------------------------------
 Rotational constants (GHZ):      4.7944114      1.4554713      1.1329777
 Standard basis: Dummy (5D, 7F)
 There are    16 symmetry adapted basis functions of A'  symmetry.
 There are     2 symmetry adapted basis functions of A"  symmetry.
 Integral buffers will be    262144 words long.
 Raffenetti 1 integral format.
 Two-electron integral symmetry is turned on.
    18 basis functions,    18 primitive gaussians,    18 cartesian basis functions
    13 alpha electrons       13 beta electrons
       nuclear repulsion energy        65.2699343551 Hartrees.
 NAtoms=   18 NActive=   18 NUniq=   16 SFac= 9.49D-01 NAtFMM=   80 NAOKFM=F Big=F
 Dreiding calculation of energy and first derivatives.
 MO and density RWFs will be updated without deorthogonalization.
 NRF= 0 NRA=   0 NVA=  18 HaveQM=F
 Convergence limit is  0.750E-04 MaxStp=  5000 StMxLn= 1.00D-04 StpMin= 1.00D-06.
 Convergence criteria           0.00011250 0.00007500 0.00045000 0.00030000
  Step  NS  ND Rises OKQ   Scale  Max. Force  RMS Force Max. Disp.  RMS Disp.     Energy   Flag
     1   0   0   F    T  1.00D+00 0.05852690 0.02412389 0.05852690 0.02412389    0.0515882 ----
     2   0   0   F    F -1.76D-02 0.05852690 0.02412389 0.05852690 0.02412389    0.0361869 ----
     3   0   0   F    T  3.25D+00 0.01640752 0.00700161 0.01937451 0.00729054    0.0361819 ----
     4   0   0   F    F -1.02D-01 0.01640752 0.00700161 0.06298158 0.02369970    0.0323690 ----
     5   0   0   F    T  2.68D+00 0.02571823 0.00594518 0.02209404 0.00792933    0.0323187 ----
     6   0   0   T    F  3.92D-01 0.02571823 0.00594518 0.05927667 0.02127379    0.0337358 ----
     7   0   0   F    T  1.73D+00 0.01183960 0.00371505 0.01768875 0.00482707    0.0313159 ----
     8   0   0   F    F -3.72D-01 0.01183960 0.00371505 0.03053275 0.00833206    0.0310534 ----
     9   0   0   F    T  3.39D+00 0.00331539 0.00138927 0.00415737 0.00154280    0.0309117 ----
    10   0   0   F    F -4.66D-01 0.00331539 0.00138927 0.01410409 0.00523404    0.0308894 ----
    11   0   0   F    T  2.27D+00 0.00236704 0.00097161 0.00295570 0.00123024    0.0308174 ----
    12   0   0   F    F -3.35D-01 0.00236704 0.00097161 0.00670887 0.00279241    0.0307887 ----
    13   0   0   F    T  1.91D+00 0.00171808 0.00071137 0.00330416 0.00097050    0.0307789 ----
    14   0   0   F    F  5.75D-02 0.00171808 0.00071137 0.00632383 0.00185743    0.0307514 ----
    15   0   0   F    T  1.62D+00 0.00298015 0.00071489 0.00433730 0.00121418    0.0307513 ----
    16   0   0   F    F -1.15D-01 0.00298015 0.00071489 0.00701669 0.00196424    0.0307319 ----
    17   0   0   F    T  1.43D+00 0.00186847 0.00065513 0.00417654 0.00121353    0.0307315 ----
    18   0   0   F    F  7.22D-01 0.00186847 0.00065513 0.00598365 0.00173860    0.0307080 ----
    19   0   0   F    T  2.74D+00 0.00169379 0.00057351 0.00338226 0.00109205    0.0307029 ----
    20   0   0   F    F  7.46D-01 0.00169379 0.00057351 0.00927009 0.00299310    0.0306682 ----
    21   0   0   F    T  3.22D+00 0.00213883 0.00066799 0.00467641 0.00162455    0.0306604 ----
    22   0   0   T    F  3.91D-01 0.00213883 0.00066799 0.01504709 0.00522725    0.0306821 ----
    23   0   0   F    T  1.39D+00 0.00170141 0.00060693 0.00425760 0.00147246    0.0306453 ----
    24   0   0   F    F  1.03D+00 0.00170141 0.00060693 0.00590488 0.00204215    0.0306245 ----
    25   0   0   F    T  2.30D+00 0.00186531 0.00064732 0.00508607 0.00180206    0.0306173 ----
    26   0   0   F    F -3.49D-01 0.00186531 0.00064732 0.01170442 0.00414702    0.0306052 ----
    27   0   0   F    T  2.96D+00 0.00120824 0.00043095 0.00211166 0.00091397    0.0306004 ----
    28   0   0   F    F -1.64D-01 0.00120824 0.00043095 0.00624226 0.00270177    0.0305885 ----
    29   0   0   F    T  2.66D+00 0.00123788 0.00039102 0.00212523 0.00084944    0.0305880 ----
    30   0   0   F    T  3.75D+00 0.00100946 0.00030647 0.00165980 0.00060264    0.0305769 ----
    31   0   0   T    F  4.56D-01 0.00100946 0.00030647 0.00621798 0.00225763    0.0305788 ----
    32   0   0   F    T  1.85D+00 0.00089367 0.00027347 0.00128486 0.00055550    0.0305726 ----
    33   0   0   F    F -4.86D-01 0.00089367 0.00027347 0.00238140 0.00102957    0.0305724 ----
    34   0   0   F    T  2.67D+00 0.00036263 0.00013845 0.00055960 0.00019776    0.0305707 ---+
    35   0   0   F    F  6.12D-01 0.00036263 0.00013845 0.00149631 0.00052880    0.0305688 ----
    36   0   0   F    T  3.16D+00 0.00044695 0.00014794 0.00066247 0.00026995    0.0305684 ---+
    37   0   0   F    F -3.26D-01 0.00044695 0.00014794 0.00209142 0.00085223    0.0305675 ----
    38   0   0   F    T  4.73D+00 0.00028549 0.00008421 0.00030726 0.00012147    0.0305672 --++
    39   0   0   T    F  2.17D-01 0.00028549 0.00008421 0.00145374 0.00057472    0.0305696 ----
    40   0   0   F    T  1.28D+00 0.00016685 0.00006502 0.00025073 0.00009732    0.0305670 -+++
    41   0   0   F    F  6.39D-01 0.00016685 0.00006502 0.00032114 0.00012465    0.0305668 -+++
    42   0   0   F    T  3.51D+00 0.00013428 0.00004193 0.00016323 0.00005828    0.0305667 -+++
    43   0   0   F    F -2.58D-01 0.00013428 0.00004193 0.00057215 0.00020429    0.0305666 -+-+
    44   0   0   F    T  1.70D+00 0.00021308 0.00004769 0.00025040 0.00008920    0.0305666 -+++
    45   0   0   F    T  2.07D+00 0.00015195 0.00003822 0.00018167 0.00007333    0.0305665 -+++
    46   0   0   F    F -3.99D-01 0.00015195 0.00003822 0.00037569 0.00015164    0.0305665 -+++
    47   0   0   F    T  2.29D+00 0.00009063 0.00002790 0.00009423 0.00003988    0.0305665 ====
 Energy=    0.030566485849 NIter=   0.
 Dipole moment=       0.000000       0.000000       0.000000
 ***** Axes restored to original set *****
 -------------------------------------------------------------------
 Center     Atomic                   Forces (Hartrees/Bohr)
 Number     Number              X              Y              Z
 -------------------------------------------------------------------
    1          6           0.000082080   -0.000027740    0.000000000
    2          6           0.000008914    0.000060346    0.000000000
    3          6          -0.000031991    0.000041596    0.000000000
    4          6          -0.000016546    0.000047944    0.000000000
    5          6          -0.000059217   -0.000062823    0.000000000
    6          6           0.000032699   -0.000091111    0.000000000
    7          6          -0.000001381    0.000003166    0.000000000
    8          6          -0.000011724    0.000017167    0.000000000
    9          1          -0.000003616   -0.000004062    0.000000000
   10          1          -0.000025987   -0.000039884    0.000000000
   11          1           0.000014273    0.000009905    0.000000000
   12          1           0.000022310    0.000016574    0.000000000
   13          1           0.000032299    0.000039711    0.000000000
   14          1          -0.000019494   -0.000006553    0.000017559
   15          1          -0.000019494   -0.000006553   -0.000017559
   16          1           0.000020012    0.000003463    0.000000000
   17          1          -0.000011567   -0.000000573   -0.000006507
   18          1          -0.000011567   -0.000000573    0.000006507
 -------------------------------------------------------------------
 Cartesian Forces:  Max     0.000091111 RMS     0.000027902

 GradGradGradGradGradGradGradGradGradGradGradGradGradGradGradGradGradGrad
 Berny optimization.
 Search for a local minimum.
 Step number   1 out of a maximum of   2
 All quantities printed in internal units (Hartrees-Bohrs-Radians)
 Second derivative matrix not updated -- unit matrix used.
 RFO step:  Lambda=-4.20397932D-08.
 Linear search not attempted -- first point.
 TrRot=  0.000000  0.000000  0.000000  0.000000  0.000000  0.000000
 Variable       Old X    -DE/DX   Delta X   Delta X   Delta X     New X
                                 (Linear)    (Quad)   (Total)
    X1       -0.45177   0.00008   0.00000   0.00008   0.00008  -0.45169
    Y1       -1.96970  -0.00003   0.00000  -0.00003  -0.00003  -1.96972
    Z1        0.00000   0.00000   0.00000   0.00000   0.00000   0.00000
    X2       -0.62521   0.00001   0.00000   0.00001   0.00001  -0.62520
    Y2        0.69329   0.00006   0.00000   0.00006   0.00006   0.69335
    Z2        0.00000   0.00000   0.00000   0.00000   0.00000   0.00000
    X3        1.64342  -0.00003   0.00000  -0.00003  -0.00003   1.64339
    Y3        2.09546   0.00004   0.00000   0.00004   0.00004   2.09550
    Z3        0.00000   0.00000   0.00000   0.00000   0.00000   0.00000
    X4        1.90600  -0.00002   0.00000  -0.00002  -0.00002   1.90598
    Y4       -3.18587   0.00005   0.00000   0.00005   0.00005  -3.18582
    Z4        0.00000   0.00000   0.00000   0.00000   0.00000   0.00000
    X5        4.13704  -0.00006   0.00000  -0.00006  -0.00006   4.13698
    Y5       -1.75742  -0.00006   0.00000  -0.00006  -0.00006  -1.75748
    Z5        0.00000   0.00000   0.00000   0.00000   0.00000   0.00000
    X6        4.00470   0.00003   0.00000   0.00003   0.00003   4.00474
    Y6        0.88809  -0.00009   0.00000  -0.00009  -0.00009   0.88800
    Z6        0.00000   0.00000   0.00000   0.00000   0.00000   0.00000
    X7       -3.06369   0.00000   0.00000   0.00000   0.00000  -3.06369
    Y7        2.11767   0.00000   0.00000   0.00000   0.00000   2.11768
    Z7        0.00000   0.00000   0.00000   0.00000   0.00000   0.00000
    X8       -5.56759  -0.00001   0.00000  -0.00001  -0.00001  -5.56761
    Y8        0.60672   0.00002   0.00000   0.00002   0.00002   0.60673
    Z8        0.00000   0.00000   0.00000   0.00000   0.00000   0.00000
    X9       -2.03584   0.00000   0.00000   0.00000   0.00000  -2.03584
    Y9       -3.07092   0.00000   0.00000   0.00000   0.00000  -3.07092
    Z9        0.00000   0.00000   0.00000   0.00000   0.00000   0.00000
   X10        1.59604  -0.00003   0.00000  -0.00003  -0.00003   1.59602
   Y10        4.02965  -0.00004   0.00000  -0.00004  -0.00004   4.02961
   Z10        0.00000   0.00000   0.00000   0.00000   0.00000   0.00000
   X11        1.99862   0.00001   0.00000   0.00001   0.00001   1.99864
   Y11       -5.11632   0.00001   0.00000   0.00001   0.00001  -5.11631
   Z11        0.00000   0.00000   0.00000   0.00000   0.00000   0.00000
   X12        5.85468   0.00002   0.00000   0.00002   0.00002   5.85470
   Y12       -2.64240   0.00002   0.00000   0.00002   0.00002  -2.64238
   Z12        0.00000   0.00000   0.00000   0.00000   0.00000   0.00000
   X13        5.62836   0.00003   0.00000   0.00003   0.00003   5.62839
   Y13        1.93576   0.00004   0.00000   0.00004   0.00004   1.93580
   Z13        0.00000   0.00000   0.00000   0.00000   0.00000   0.00000
   X14       -3.08831  -0.00002   0.00000  -0.00002  -0.00002  -3.08833
   Y14        3.33919  -0.00001   0.00000  -0.00001  -0.00001   3.33918
   Z14        1.66703   0.00002   0.00000   0.00002   0.00002   1.66704
   X15       -3.08831  -0.00002   0.00000  -0.00002  -0.00002  -3.08833
   Y15        3.33919  -0.00001   0.00000  -0.00001  -0.00001   3.33918
   Z15       -1.66703  -0.00002   0.00000  -0.00002  -0.00002  -1.66704
   X16       -7.16736   0.00002   0.00000   0.00002   0.00002  -7.16734
   Y16        1.90999   0.00000   0.00000   0.00000   0.00000   1.90999
   Z16        0.00000   0.00000   0.00000   0.00000   0.00000   0.00000
   X17       -5.69617  -0.00001   0.00000  -0.00001  -0.00001  -5.69618
   Y17       -0.57906   0.00000   0.00000   0.00000   0.00000  -0.57906
   Z17       -1.68348  -0.00001   0.00000  -0.00001  -0.00001  -1.68349
   X18       -5.69617  -0.00001   0.00000  -0.00001  -0.00001  -5.69618
   Y18       -0.57906   0.00000   0.00000   0.00000   0.00000  -0.57906
   Z18        1.68348   0.00001   0.00000   0.00001   0.00001   1.68349
         Item               Value     Threshold  Converged?
 Maximum Force            0.000091     0.000450     YES
 RMS     Force            0.000028     0.000300     YES
 Maximum Displacement     0.000091     0.001800     YES
 RMS     Displacement     0.000028     0.001200     YES
 Predicted change in Energy=-2.101989D-08
 Optimization completed.
    -- Stationary point found.
 GradGradGradGradGradGradGradGradGradGradGradGradGradGradGradGradGradGrad

                          Input orientation:                          
 ---------------------------------------------------------------------
 Center     Atomic     Atomic              Coordinates (Angstroms)
 Number     Number      Type              X           Y           Z
 ---------------------------------------------------------------------
    1          6      10061000       -0.239068   -1.042318    0.000000
    2          6      10061000       -0.330846    0.366873    0.000000
    3          6      10061000        0.869663    1.108871    0.000000
    4          6      10061000        1.008612   -1.685889    0.000000
    5          6      10061000        2.189225   -0.929986    0.000000
    6          6      10061000        2.119198    0.469957    0.000000
    7          6      10061003       -1.621236    1.120624    0.000000
    8          6      10061003       -2.946244    0.321060    0.000000
    9          1      10011000       -1.077320   -1.625060    0.000000
   10          1      10011000        0.844591    2.132399    0.000000
   11          1      10011000        1.057625   -2.707439    0.000000
   12          1      10011000        3.098161   -1.398298    0.000000
   13          1      10011000        2.978399    1.024358    0.000000
   14          1      10011000       -1.634264    1.767023    0.882152
   15          1      10011000       -1.634264    1.767023   -0.882152
   16          1      10011000       -3.792803    1.010723    0.000000
   17          1      10011000       -3.014283   -0.306426   -0.890860
   18          1      10011000       -3.014283   -0.306426    0.890860
 ---------------------------------------------------------------------
                    Distance matrix (angstroms):
                    1          2          3          4          5
     1  C    0.000000
     2  C    1.412177   0.000000
     3  C    2.420103   1.411305   0.000000
     4  C    1.403883   2.451119   2.798212   0.000000
     5  C    2.430890   2.834185   2.428617   1.401869   0.000000
     6  C    2.801498   2.452212   1.403406   2.425092   1.401693
     7  C    2.566848   1.494405   2.490927   3.846117   4.327195
     8  C    3.031106   2.615798   3.896381   4.434944   5.285656
     9  H    1.020909   2.127210   3.356355   2.086819   3.339677
    10  H    3.354570   2.121021   1.023835   3.821809   3.344584
    11  H    2.110459   3.373314   3.820936   1.022725   2.107097
    12  H    3.356161   3.856672   3.354415   2.109247   1.022488
    13  H    3.824035   3.373928   2.110429   3.350448   2.107666
    14  H    3.258399   2.106540   2.735143   4.436845   4.761420
    15  H    3.258399   2.106540   2.735143   4.436845   4.761420
    16  H    4.104146   3.521319   4.663499   5.506841   6.288959
    17  H    3.006158   2.906509   4.228680   4.345139   5.315915
    18  H    3.006158   2.906509   4.228680   4.345139   5.315915
                    6          7          8          9         10
     6  C    0.000000
     7  C    3.796606   0.000000
     8  C    5.067629   1.547562   0.000000
     9  H    3.821887   2.799040   2.698196   0.000000
    10  H    2.094836   2.665331   4.201353   4.220454   0.000000
    11  H    3.350042   4.672297   5.020236   2.393645   4.844524
    12  H    2.109205   5.349549   6.284188   4.181634   4.188603
    13  H    1.022540   4.600642   5.966240   4.844407   2.404348
    14  H    4.068052   1.093706   2.142496   3.548888   2.656391
    15  H    4.068052   1.093706   2.142496   3.548888   2.656391
    16  H    5.936681   2.174346   1.091924   3.784336   4.771119
    17  H    5.267734   2.184189   1.091788   2.506841   4.651065
    18  H    5.267734   2.184189   1.091788   2.506841   4.651065
                   11         12         13         14         15
    11  H    0.000000
    12  H    2.424384   0.000000
    13  H    4.197104   2.425615   0.000000
    14  H    5.295779   5.761363   4.754619   0.000000
    15  H    5.295779   5.761363   4.754619   1.764303   0.000000
    16  H    6.111577   7.299915   6.771216   2.451422   2.451422
    17  H    4.810294   6.272781   6.202971   3.057321   2.490727
    18  H    4.810294   6.272781   6.202971   2.490727   3.057321
                   16         17         18
    16  H    0.000000
    17  H    1.770482   0.000000
    18  H    1.770482   1.781720   0.000000
 Stoichiometry    C8H10
 Framework group  CS[SG(C8H6),X(H4)]
 Deg. of freedom    31
 Full point group                 CS
 Largest Abelian subgroup         CS      NOp   2
 Largest concise Abelian subgroup CS      NOp   2
                         Standard orientation:                         
 ---------------------------------------------------------------------
 Center     Atomic     Atomic              Coordinates (Angstroms)
 Number     Number      Type              X           Y           Z
 ---------------------------------------------------------------------
    1          6      10061000       -0.871783   -0.612282    0.000000
    2          6      10061000        0.000000    0.498681    0.000000
    3          6      10061000        1.389309    0.250481    0.000000
    4          6      10061000       -0.371726   -1.924087    0.000000
    5          6      10061000        1.012039   -2.148654    0.000000
    6          6      10061000        1.893855   -1.059092    0.000000
    7          6      10061003       -0.458365    1.921054    0.000000
    8          6      10061003       -1.978821    2.209432    0.000000
    9          1      10011000       -1.884992   -0.487132    0.000000
   10          1      10011000        2.053485    1.029653    0.000000
   11          1      10011000       -1.016748   -2.717757    0.000000
   12          1      10011000        1.376685   -3.103910    0.000000
   13          1      10011000        2.903762   -1.219330    0.000000
   14          1      10011000       -0.036821    2.411261    0.882152
   15          1      10011000       -0.036821    2.411261   -0.882152
   16          1      10011000       -2.149326    3.287961    0.000000
   17          1      10011000       -2.448136    1.787398   -0.890860
   18          1      10011000       -2.448136    1.787398    0.890860
 ---------------------------------------------------------------------
 Rotational constants (GHZ):      4.8256309      1.4462806      1.1285186
 1|1|UNPC-UNK|FOpt|Dreiding|ZDO|C8H10|PCUSER|11-Mar-2008|0||# opt dreid
 ing||ethylbenzene||0,1|C,-0.2390678324,-1.042318208,0.|C,-0.3308464187
 ,0.3668733134,0.|C,0.8696628798,1.1088709739,0.|C,1.008611869,-1.68588
 9338,0.|C,2.1892249424,-0.9299858004,0.|C,2.1191978061,0.4699567049,0.
 |C,-1.6212360705,1.1206241316,0.|C,-2.9462436899,0.3210602849,0.|H,-1.
 0773201744,-1.6250599541,0.|H,0.8445905687,2.1323985479,0.|H,1.0576249
 378,-2.7074389631,0.|H,3.0981611365,-1.3982978504,0.|H,2.9783990448,1.
 0243584004,0.|H,-1.6342643388,1.7670231902,0.8821516878|H,-1.634264338
 8,1.7670231902,-0.8821516878|H,-3.7928027771,1.0107231973,0.|H,-3.0142
 827223,-0.3064263903,-0.8908599221|H,-3.0142827223,-0.3064263903,0.890
 8599221||Version=IA32W-G03RevD.01|HF=0.0305665|RMSD=0.000e+000|RMSF=2.
 790e-005|Thermal=0.|Dipole=0.,0.,0.|PG=CS [SG(C8H6),X(H4)]||@


 QED = W**5 (WHICH WAS WHAT WE WANTED)
 Job cpu time:  0 days  0 hours  0 minutes  2.0 seconds.
 File lengths (MBytes):  RWF=     11 Int=      0 D2E=      0 Chk=      4 Scr=      1
 Normal termination of Gaussian 03 at Tue Mar 11 13:39:51 2008.
