 Entering Link 1 = C:\G03W\l1.exe PID=      3284.
  
 Copyright (c) 1988,1990,1992,1993,1995,1998,2003,2004, Gaussian, Inc.
                  All Rights Reserved.
  
 This is the Gaussian(R) 03 program.  It is based on the
 the Gaussian(R) 98 system (copyright 1998, Gaussian, Inc.),
 the Gaussian(R) 94 system (copyright 1995, Gaussian, Inc.),
 the Gaussian 92(TM) system (copyright 1992, Gaussian, Inc.),
 the Gaussian 90(TM) system (copyright 1990, Gaussian, Inc.),
 the Gaussian 88(TM) system (copyright 1988, Gaussian, Inc.),
 the Gaussian 86(TM) system (copyright 1986, Carnegie Mellon
 University), and the Gaussian 82(TM) system (copyright 1983,
 Carnegie Mellon University). Gaussian is a federally registered
 trademark of Gaussian, Inc.
  
 This software contains proprietary and confidential information,
 including trade secrets, belonging to Gaussian, Inc.
  
 This software is provided under written license and may be
 used, copied, transmitted, or stored only in accord with that
 written license.
  
 The following legend is applicable only to US Government
 contracts under FAR:
  
                    RESTRICTED RIGHTS LEGEND
  
 Use, reproduction and disclosure by the US Government is
 subject to restrictions as set forth in subparagraphs (a)
 and (c) of the Commercial Computer Software - Restricted
 Rights clause in FAR 52.227-19.
  
 Gaussian, Inc.
 340 Quinnipiac St., Bldg. 40, Wallingford CT 06492
  
  
 ---------------------------------------------------------------
 Warning -- This program may not be used in any manner that
 competes with the business of Gaussian, Inc. or will provide
 assistance to any competitor of Gaussian, Inc.  The licensee
 of this program is prohibited from giving any competitor of
 Gaussian, Inc. access to this program.  By using this program,
 the user acknowledges that Gaussian, Inc. is engaged in the
 business of creating and licensing software in the field of
 computational chemistry and represents and warrants to the
 licensee that it is not a competitor of Gaussian, Inc. and that
 it will not use this program in any manner prohibited above.
 ---------------------------------------------------------------
  

 Cite this work as:
 Gaussian 03, Revision D.01,
 M. J. Frisch, G. W. Trucks, H. B. Schlegel, G. E. Scuseria, 
 M. A. Robb, J. R. Cheeseman, J. A. Montgomery, Jr., T. Vreven, 
 K. N. Kudin, J. C. Burant, J. M. Millam, S. S. Iyengar, J. Tomasi, 
 V. Barone, B. Mennucci, M. Cossi, G. Scalmani, N. Rega, 
 G. A. Petersson, H. Nakatsuji, M. Hada, M. Ehara, K. Toyota, 
 R. Fukuda, J. Hasegawa, M. Ishida, T. Nakajima, Y. Honda, O. Kitao, 
 H. Nakai, M. Klene, X. Li, J. E. Knox, H. P. Hratchian, J. B. Cross, 
 V. Bakken, C. Adamo, J. Jaramillo, R. Gomperts, R. E. Stratmann, 
 O. Yazyev, A. J. Austin, R. Cammi, C. Pomelli, J. W. Ochterski, 
 P. Y. Ayala, K. Morokuma, G. A. Voth, P. Salvador, J. J. Dannenberg, 
 V. G. Zakrzewski, S. Dapprich, A. D. Daniels, M. C. Strain, 
 O. Farkas, D. K. Malick, A. D. Rabuck, K. Raghavachari, 
 J. B. Foresman, J. V. Ortiz, Q. Cui, A. G. Baboul, S. Clifford, 
 J. Cioslowski, B. B. Stefanov, G. Liu, A. Liashenko, P. Piskorz, 
 I. Komaromi, R. L. Martin, D. J. Fox, T. Keith, M. A. Al-Laham, 
 C. Y. Peng, A. Nanayakkara, M. Challacombe, P. M. W. Gill, 
 B. Johnson, W. Chen, M. W. Wong, C. Gonzalez, and J. A. Pople, 
 Gaussian, Inc., Wallingford CT, 2004.
 
 ******************************************
 Gaussian 03:  IA32W-G03RevD.01 13-Oct-2005
                02-Apr-2008 
 ******************************************
 --------------
 # opt dreiding
 --------------
 1/6=10,10=10,14=-1,18=4000020,38=1,56=1,64=1/1,3;
 2/9=110,17=6,18=5,40=1/2;
 3/5=30,11=9,16=1,25=1,30=1/1;
 4/20=9,22=1001,24=3/2;
 7/44=-1/16;
 1/6=10,10=10,14=-1,18=4000020,64=1/3(2);
 2/9=110/2;
 99//99;
 2/9=110/2;
 3/5=30,11=9,16=1,25=1,30=1/1;
 4/16=2,20=9,22=1001,24=3/2;
 7/44=-1/16;
 1/6=10,10=10,14=-1,18=4000020,64=1/3(-4);
 2/9=110/2;
 99//99;
 --------------------------
 tetraBn-ethene-C1-C2-syn-f
 --------------------------
 Symbolic Z-matrix:
 Charge =  0 Multiplicity = 1
 C                    -1.22098  -0.50307   0.25044 
 C                     0.00602   0.00293  -0.00156 
 C                     0.30002   1.49093  -0.05656 
 C                     0.74102   1.89493  -1.44456 
 C                     1.22802  -0.86007  -0.25856 
 C                     2.25902  -0.65707   0.82844 
 C                    -1.50198  -1.99407   0.27044 
 C                    -1.48898  -2.57907  -1.12356 
 C                    -2.42398   0.37493   0.53544 
 C                    -2.34098   0.99893   1.91044 
 C                    -0.11198   1.70293  -2.53756 
 C                     2.00402   2.45293  -1.67056 
 C                     2.40702   2.81093  -2.95856 
 C                     0.28602   2.05893  -3.82756 
 C                     1.54802   2.61393  -4.04056 
 C                     3.53902  -0.17507   0.53344 
 C                     1.94202  -0.94107   2.16144 
 C                     2.87902  -0.74607   3.17844 
 C                     4.48002   0.02193   1.54544 
 C                     4.15102  -0.26307   2.87144 
 C                    -0.82498  -3.78207  -1.39156 
 C                    -2.15398  -1.94107  -2.17756 
 C                    -2.13598  -2.47407  -3.46756 
 C                    -0.80398  -4.32207  -2.67856 
 C                    -1.45798  -3.66607  -3.72156 
 C                    -1.98098   0.23593   3.02644 
 C                    -2.63698   2.35393   2.10144 
 C                    -2.55498   2.93693   3.36744 
 C                    -1.89398   0.81093   4.29544 
 C                    -2.17898   2.16593   4.46844 
 H                    -0.56698   2.12993   0.21044 
 H                     1.07802   1.73193   0.70344 
 H                     1.00902  -1.94807  -0.30156 
 H                     1.64102  -0.61007  -1.26156 
 H                    -0.76398  -2.49707   0.93444 
 H                    -2.48898  -2.22307   0.73144 
 H                    -2.51298   1.14593  -0.26256 
 H                    -3.37798  -0.19707   0.47344 
 H                    -1.10998   1.26193  -2.38456 
 H                     2.69702   2.61193  -0.82856 
 H                     3.40702   3.24693  -3.12156 
 H                    -0.39698   1.89793  -4.67956 
 H                     1.86602   2.89293  -5.05956 
 H                     3.81502   0.05993  -0.50856 
 H                     0.93902  -1.31807   2.41944 
 H                     2.61102  -0.97007   4.22444 
 H                     5.48402   0.40593   1.29744 
 H                     4.89302  -0.10507   3.67244 
 H                    -0.30298  -4.31507  -0.57956 
 H                    -2.70198  -1.00107  -1.99856 
 H                    -2.66098  -1.95307  -4.28656 
 H                    -0.26998  -5.26807  -2.87156 
 H                    -1.44298  -4.09007  -4.74056 
 H                    -1.75798  -0.83807   2.91444 
 H                    -2.93698   2.97893   1.24444 
 H                    -2.78598   4.00693   3.49844 
 H                    -1.60198   0.19493   5.16144 
 H                    -2.11198   2.62393   5.46944 
 
 I=    1 IAn=  6 Valence= 6.
          JB=  1 J=    2 IAn=  6 IBT= 2 Dist= 1.35D+00
          JB=  2 J=    7 IAn=  6 IBT= 1 Dist= 1.52D+00
          JB=  3 J=    9 IAn=  6 IBT= 1 Dist= 1.52D+00
 I=    2 IAn=  6 Valence= 6.
          JB=  1 J=    1 IAn=  6 IBT= 2 Dist= 1.35D+00
          JB=  2 J=    3 IAn=  6 IBT= 1 Dist= 1.52D+00
          JB=  3 J=    5 IAn=  6 IBT= 1 Dist= 1.52D+00
 I=   11 IAn=  6 Valence=36.
          JB=  1 J=    4 IAn=  6 IBT=12 Dist= 1.40D+00
          JB=  2 J=   14 IAn=  6 IBT=12 Dist= 1.40D+00
          JB=  3 J=   39 IAn=  1 IBT= 1 Dist= 1.10D+00
 I=   12 IAn=  6 Valence=36.
          JB=  1 J=    4 IAn=  6 IBT=12 Dist= 1.40D+00
          JB=  2 J=   13 IAn=  6 IBT=12 Dist= 1.40D+00
          JB=  3 J=   40 IAn=  1 IBT= 1 Dist= 1.10D+00
 I=   13 IAn=  6 Valence=36.
          JB=  1 J=   12 IAn=  6 IBT=12 Dist= 1.40D+00
          JB=  2 J=   15 IAn=  6 IBT=12 Dist= 1.40D+00
          JB=  3 J=   41 IAn=  1 IBT= 1 Dist= 1.10D+00
 I=   14 IAn=  6 Valence=36.
          JB=  1 J=   11 IAn=  6 IBT=12 Dist= 1.40D+00
          JB=  2 J=   15 IAn=  6 IBT=12 Dist= 1.40D+00
          JB=  3 J=   42 IAn=  1 IBT= 1 Dist= 1.10D+00
 I=   15 IAn=  6 Valence=36.
          JB=  1 J=   13 IAn=  6 IBT=12 Dist= 1.40D+00
          JB=  2 J=   14 IAn=  6 IBT=12 Dist= 1.40D+00
          JB=  3 J=   43 IAn=  1 IBT= 1 Dist= 1.10D+00
 I=   16 IAn=  6 Valence=36.
          JB=  1 J=    6 IAn=  6 IBT=12 Dist= 1.40D+00
          JB=  2 J=   19 IAn=  6 IBT=12 Dist= 1.40D+00
          JB=  3 J=   44 IAn=  1 IBT= 1 Dist= 1.10D+00
 I=   17 IAn=  6 Valence=36.
          JB=  1 J=    6 IAn=  6 IBT=12 Dist= 1.40D+00
          JB=  2 J=   18 IAn=  6 IBT=12 Dist= 1.40D+00
          JB=  3 J=   45 IAn=  1 IBT= 1 Dist= 1.10D+00
 I=   18 IAn=  6 Valence=36.
          JB=  1 J=   17 IAn=  6 IBT=12 Dist= 1.40D+00
          JB=  2 J=   20 IAn=  6 IBT=12 Dist= 1.39D+00
          JB=  3 J=   46 IAn=  1 IBT= 1 Dist= 1.10D+00
 I=   19 IAn=  6 Valence=36.
          JB=  1 J=   16 IAn=  6 IBT=12 Dist= 1.40D+00
          JB=  2 J=   20 IAn=  6 IBT=12 Dist= 1.40D+00
          JB=  3 J=   47 IAn=  1 IBT= 1 Dist= 1.10D+00
 I=   20 IAn=  6 Valence=36.
          JB=  1 J=   18 IAn=  6 IBT=12 Dist= 1.39D+00
          JB=  2 J=   19 IAn=  6 IBT=12 Dist= 1.40D+00
          JB=  3 J=   48 IAn=  1 IBT= 1 Dist= 1.10D+00
 I=   21 IAn=  6 Valence=36.
          JB=  1 J=    8 IAn=  6 IBT=12 Dist= 1.40D+00
          JB=  2 J=   24 IAn=  6 IBT=12 Dist= 1.40D+00
          JB=  3 J=   49 IAn=  1 IBT= 1 Dist= 1.10D+00
 I=   22 IAn=  6 Valence=36.
          JB=  1 J=    8 IAn=  6 IBT=12 Dist= 1.40D+00
          JB=  2 J=   23 IAn=  6 IBT=12 Dist= 1.40D+00
          JB=  3 J=   50 IAn=  1 IBT= 1 Dist= 1.10D+00
 I=   23 IAn=  6 Valence=36.
          JB=  1 J=   22 IAn=  6 IBT=12 Dist= 1.40D+00
          JB=  2 J=   25 IAn=  6 IBT=12 Dist= 1.39D+00
          JB=  3 J=   51 IAn=  1 IBT= 1 Dist= 1.10D+00
 I=   24 IAn=  6 Valence=36.
          JB=  1 J=   21 IAn=  6 IBT=12 Dist= 1.40D+00
          JB=  2 J=   25 IAn=  6 IBT=12 Dist= 1.39D+00
          JB=  3 J=   52 IAn=  1 IBT= 1 Dist= 1.10D+00
 I=   25 IAn=  6 Valence=36.
          JB=  1 J=   23 IAn=  6 IBT=12 Dist= 1.39D+00
          JB=  2 J=   24 IAn=  6 IBT=12 Dist= 1.39D+00
          JB=  3 J=   53 IAn=  1 IBT= 1 Dist= 1.10D+00
 I=   26 IAn=  6 Valence=36.
          JB=  1 J=   10 IAn=  6 IBT=12 Dist= 1.40D+00
          JB=  2 J=   29 IAn=  6 IBT=12 Dist= 1.40D+00
          JB=  3 J=   54 IAn=  1 IBT= 1 Dist= 1.10D+00
 I=   27 IAn=  6 Valence=36.
          JB=  1 J=   10 IAn=  6 IBT=12 Dist= 1.40D+00
          JB=  2 J=   28 IAn=  6 IBT=12 Dist= 1.40D+00
          JB=  3 J=   55 IAn=  1 IBT= 1 Dist= 1.10D+00
 I=   28 IAn=  6 Valence=36.
          JB=  1 J=   27 IAn=  6 IBT=12 Dist= 1.40D+00
          JB=  2 J=   30 IAn=  6 IBT=12 Dist= 1.40D+00
          JB=  3 J=   56 IAn=  1 IBT= 1 Dist= 1.10D+00
 I=   29 IAn=  6 Valence=36.
          JB=  1 J=   26 IAn=  6 IBT=12 Dist= 1.40D+00
          JB=  2 J=   30 IAn=  6 IBT=12 Dist= 1.40D+00
          JB=  3 J=   57 IAn=  1 IBT= 1 Dist= 1.10D+00
 I=   30 IAn=  6 Valence=36.
          JB=  1 J=   28 IAn=  6 IBT=12 Dist= 1.40D+00
          JB=  2 J=   29 IAn=  6 IBT=12 Dist= 1.40D+00
          JB=  3 J=   58 IAn=  1 IBT= 1 Dist= 1.10D+00
 Include all MM classes
 MMInit generated parameter data with length LenPar=  5231.

 GradGradGradGradGradGradGradGradGradGradGradGradGradGradGradGradGradGrad
 Berny optimization.
 Initialization pass.
 No Z-matrix variables, so optimization will use Cartesian coordinates.
 Trust Radius=1.00D-01 FncErr=1.00D-07 GrdErr=1.00D-07
 Number of steps in this run=   2 maximum allowed number of steps=   2.
 GradGradGradGradGradGradGradGradGradGradGradGradGradGradGradGradGradGrad

 Stoichiometry    C30H28
 Framework group  C1[X(C30H28)]
 Deg. of freedom   168
 Full point group                 C1
 Largest Abelian subgroup         C1      NOp   1
 Largest concise Abelian subgroup C1      NOp   1
                         Standard orientation:                         
 ---------------------------------------------------------------------
 Center     Atomic     Atomic              Coordinates (Angstroms)
 Number     Number      Type              X           Y           Z
 ---------------------------------------------------------------------
    1          6      10061002       -0.000472   -1.344095    0.000440
    2          6      10061002       -0.000119    0.006856    0.000490
    3          6      10061003        0.537455    0.841290    1.148679
    4          6      10061000       -0.570179    1.652324    1.780828
    5          6      10061003       -0.537921    0.841621   -1.147569
    6          6      10061000        0.571336    1.651029   -1.780141
    7          6      10061003       -0.571060   -2.161308   -1.143690
    8          6      10061000       -2.081833   -2.108188   -1.162991
    9          6      10061003        0.569494   -2.161216    1.143581
   10          6      10061000        2.080725   -2.108993    1.162144
   11          6      10061000       -1.675570    1.009824    2.350412
   12          6      10061000       -0.524599    3.050586    1.800682
   13          6      10061000       -1.559193    3.791206    2.375673
   14          6      10061000       -2.712928    1.745528    2.926493
   15          6      10061000       -2.656579    3.139331    2.939779
   16          6      10061000        0.524274    3.049162   -1.807654
   17          6      10061000        1.678651    1.007821   -2.344207
   18          6      10061000        2.717660    1.741931   -2.920251
   19          6      10061000        1.559574    3.788588   -2.381969
   20          6      10061000        2.659712    3.135414   -2.939465
   21          6      10061000       -2.778231   -1.905478   -2.360433
   22          6      10061000       -2.822540   -2.276451    0.013116
   23          6      10061000       -4.217174   -2.218743   -0.000206
   24          6      10061000       -4.172746   -1.848226   -2.381927
   25          6      10061000       -4.895997   -2.001814   -1.199041
   26          6      10061000        2.821057   -2.276130   -0.013100
   27          6      10061000        2.776015   -1.906172    2.360291
   28          6      10061000        4.170905   -1.849851    2.382177
   29          6      10061000        4.215735   -2.218823   -0.001062
   30          6      10061000        4.894771   -2.002650    1.198670
   31          1      10011000        1.007360    0.243219    1.956639
   32          1      10011000        1.353255    1.496209    0.765903
   33          1      10011000       -1.007703    0.243376   -1.956866
   34          1      10011000       -1.351959    1.497659   -0.765426
   35          1      10011000       -0.134665   -1.803358   -2.102845
   36          1      10011000       -0.264216   -3.229597   -1.082567
   37          1      10011000        0.132774   -1.804337    2.103309
   38          1      10011000        0.262206   -3.230281    1.081790
   39          1      10011000       -1.735165   -0.090309    2.343436
   40          1      10011000        0.332297    3.582286    1.356252
   41          1      10011000       -1.510695    4.893152    2.381038
   42          1      10011000       -3.579522    1.224030    3.368497
   43          1      10011000       -3.476770    3.722931    3.391470
   44          1      10011000       -0.335436    3.582437   -1.367561
   45          1      10011000        1.740505   -0.092501   -2.331276
   46          1      10011000        3.585568    1.219294   -3.355799
   47          1      10011000        1.509682    4.890572   -2.392859
   48          1      10011000        3.479882    3.718902   -3.391121
   49          1      10011000       -2.223479   -1.782585   -3.305454
   50          1      10011000       -2.307217   -2.455653    0.971382
   51          1      10011000       -4.783132   -2.347547    0.938372
   52          1      10011000       -4.703694   -1.681372   -3.334594
   53          1      10011000       -5.998786   -1.956632   -1.212391
   54          1      10011000        2.305883   -2.454796   -0.971444
   55          1      10011000        2.222049   -1.784582    3.305496
   56          1      10011000        4.701781   -1.683497    3.333975
   57          1      10011000        4.781263   -2.345991   -0.938443
   58          1      10011000        5.996588   -1.957263    1.212576
 ---------------------------------------------------------------------
 Rotational constants (GHZ):      0.1535707      0.1253966      0.1107052
 Standard basis: Dummy (5D, 7F)
 There are    58 symmetry adapted basis functions of A   symmetry.
 Integral buffers will be    262144 words long.
 Raffenetti 1 integral format.
 Two-electron integral symmetry is turned on.
    58 basis functions,    58 primitive gaussians,    58 cartesian basis functions
    44 alpha electrons       44 beta electrons
       nuclear repulsion energy       474.5583481692 Hartrees.
 NAtoms=   58 NActive=   58 NUniq=   58 SFac= 7.50D-01 NAtFMM=   80 NAOKFM=F Big=F
 Dreiding calculation of energy and first derivatives.
 MO and density RWFs will be updated without deorthogonalization.
 NRF= 0 NRA=   0 NVA=  58 HaveQM=F
 Convergence limit is  0.750E-04 MaxStp=  5000 StMxLn= 1.00D-04 StpMin= 1.00D-06.
 Convergence criteria           0.00011250 0.00007500 0.00045000 0.00030000
  Step  NS  ND Rises OKQ   Scale  Max. Force  RMS Force Max. Disp.  RMS Disp.     Energy   Flag
     1   0   0   F    T  1.00D+00 0.05853576 0.02654662 0.05853576 0.02654662    0.2239405 ----
     2   0   0   F    F -3.46D-02 0.05853576 0.02654662 0.05853576 0.02654662    0.1649382 ----
     3   0   0   F    T  2.99D+00 0.02904342 0.00820017 0.02486376 0.00858248    0.1648625 ----
     4   0   0   F    F -2.93D-01 0.02904342 0.00820017 0.07424333 0.02562734    0.1546278 ----
     5   0   0   F    T  1.37D+00 0.05217007 0.00879880 0.03141084 0.01322486    0.1525076 ----
     6   0   0   F    F -1.05D-01 0.05217007 0.00879880 0.04304222 0.01812201    0.1443600 ----
     7   0   0   F    T  3.24D+00 0.01720079 0.00410333 0.01776103 0.00499759    0.1442457 ----
     8   0   0   T    F  3.82D-01 0.01720079 0.00410333 0.05762797 0.01621534    0.1471796 ----
     9   0   0   F    T  2.41D+00 0.00984736 0.00216735 0.00900257 0.00257721    0.1424275 ----
    10   0   0   T    F  4.11D-01 0.00984736 0.00216735 0.02165992 0.00620070    0.1428531 ----
    11   0   0   F    T  1.58D+00 0.00533378 0.00130785 0.00460446 0.00160923    0.1420234 ----
    12   0   0   F    F  5.50D-01 0.00533378 0.00130785 0.00729168 0.00254839    0.1417042 ----
    13   0   0   F    T  2.84D+00 0.00226282 0.00100779 0.00430544 0.00138950    0.1416582 ----
    14   0   0   F    F -2.29D-01 0.00226282 0.00100779 0.01224022 0.00395031    0.1414816 ----
    15   0   0   F    T  1.87D+00 0.00301683 0.00097534 0.00560248 0.00162722    0.1414645 ----
    16   0   0   F    F  1.42D-01 0.00301683 0.00097534 0.01048455 0.00304519    0.1412903 ----
    17   0   0   F    T  1.64D+00 0.00408955 0.00103843 0.00719103 0.00211494    0.1412876 ----
    18   0   0   F    F  2.98D-01 0.00408955 0.00103843 0.01182337 0.00347734    0.1410979 ----
    19   0   0   F    T  1.82D+00 0.00328181 0.00107087 0.00924259 0.00248485    0.1410874 ----
    20   0   0   F    F -3.46D-01 0.00328181 0.00107087 0.01678401 0.00451234    0.1410019 ----
    21   0   0   F    T  2.11D+00 0.00227641 0.00074121 0.00602948 0.00140197    0.1409688 ----
    22   0   0   F    F  5.92D-01 0.00227641 0.00074121 0.01269860 0.00295266    0.1408307 ----
    23   0   0   F    T  3.13D+00 0.00192930 0.00071808 0.00713217 0.00149937    0.1408086 ----
    24   0   0   F    F  5.67D-01 0.00192930 0.00071808 0.02235314 0.00469923    0.1406172 ----
    25   0   0   F    T  2.05D+00 0.00418313 0.00108527 0.01731134 0.00359498    0.1405883 ----
    26   0   0   F    F -4.95D-01 0.00418313 0.00108527 0.03545759 0.00736335    0.1405846 ----
    27   0   0   F    T  2.52D+00 0.00239616 0.00065826 0.00723871 0.00147487    0.1404824 ----
    28   0   0   F    F -4.58D-02 0.00239616 0.00065826 0.01823523 0.00371538    0.1403920 ----
    29   0   0   F    T  2.37D+00 0.00243453 0.00063102 0.00739014 0.00149414    0.1403918 ----
    30   0   0   F    F -1.15D-01 0.00243453 0.00063102 0.01753557 0.00354535    0.1403203 ----
    31   0   0   F    T  1.31D+00 0.00519068 0.00077659 0.01200644 0.00239431    0.1403191 ----
    32   0   0   F    F  7.29D-01 0.00519068 0.00077659 0.01573176 0.00313720    0.1402215 ----
    33   0   0   F    T  4.89D+00 0.00144595 0.00049657 0.00581381 0.00110870    0.1402004 ----
    34   0   0   T    F  4.11D-01 0.00144595 0.00049657 0.02844261 0.00542404    0.1402456 ----
    35   0   0   F    T  1.35D+00 0.00174759 0.00058601 0.00880540 0.00165260    0.1401572 ----
    36   0   0   F    F  1.43D+00 0.00174759 0.00058601 0.01189058 0.00223163    0.1400932 ----
    37   0   0   F    T  2.77D+00 0.00208152 0.00062164 0.01015370 0.00195682    0.1400592 ----
    38   0   0   T    F  4.66D-01 0.00208152 0.00062164 0.02811578 0.00541848    0.1400729 ----
    39   0   0   F    T  1.47D+00 0.00196918 0.00056551 0.00841948 0.00171410    0.1400159 ----
    40   0   0   F    F  8.15D-01 0.00196918 0.00056551 0.01239402 0.00252326    0.1399565 ----
    41   0   0   F    T  2.19D+00 0.00214344 0.00061128 0.00981297 0.00209543    0.1399416 ----
    42   0   0   F    F -5.67D-02 0.00214344 0.00061128 0.02144260 0.00457879    0.1398748 ----
    43   0   0   F    T  3.70D+00 0.00152926 0.00043935 0.00530116 0.00116798    0.1398746 ----
    44   0   0   F    F -2.79D-01 0.00152926 0.00043935 0.01960304 0.00431905    0.1398365 ----
    45   0   0   F    T  1.68D+00 0.00231479 0.00054065 0.00834484 0.00184934    0.1398298 ----
    46   0   0   F    F -9.20D-02 0.00231479 0.00054065 0.01404750 0.00311313    0.1397913 ----
    47   0   0   F    T  1.72D+00 0.00192491 0.00049806 0.00740855 0.00164391    0.1397909 ----
    48   0   0   F    F  4.20D-02 0.00192491 0.00049806 0.01273847 0.00282658    0.1397523 ----
    49   0   0   F    T  3.08D+00 0.00105096 0.00036539 0.00424046 0.00095718    0.1397523 ----
    50   0   0   F    F  5.07D-02 0.00105096 0.00036539 0.01304752 0.00294517    0.1397148 ----
    51   0   0   F    T  2.15D+00 0.00175901 0.00043760 0.00655242 0.00144198    0.1397147 ----
    52   0   0   F    F -1.25D-01 0.00175901 0.00043760 0.01406184 0.00309456    0.1396841 ----
    53   0   0   F    T  2.06D+00 0.00207305 0.00040710 0.00627271 0.00131552    0.1396834 ----
    54   0   0   F    F  3.22D-01 0.00207305 0.00040710 0.01291282 0.00270808    0.1396465 ----
    55   0   0   F    T  2.18D+00 0.00183830 0.00044548 0.00815496 0.00163984    0.1396442 ----
    56   0   0   F    F -5.84D-02 0.00183830 0.00044548 0.01780793 0.00358090    0.1396088 ----
    57   0   0   F    T  1.88D+00 0.00151544 0.00045867 0.00926058 0.00179775    0.1396087 ----
    58   0   0   F    F -9.05D-02 0.00151544 0.00045867 0.01736867 0.00337176    0.1395778 ----
    59   0   0   F    T  2.92D+00 0.00125822 0.00034165 0.00566619 0.00105184    0.1395775 ----
    60   0   0   F    F -2.16D-01 0.00125822 0.00034165 0.01651893 0.00306648    0.1395560 ----
    61   0   0   F    T  1.08D+00 0.00210977 0.00049137 0.01215053 0.00222884    0.1395543 ----
    62   0   0   F    F  1.03D+00 0.00210977 0.00049137 0.01310189 0.00240336    0.1395201 ----
    63   0   0   F    T  2.99D+00 0.00175809 0.00041433 0.00898449 0.00163387    0.1395082 ----
    64   0   0   F    F  5.07D-03 0.00175809 0.00041433 0.02688922 0.00488993    0.1394633 ----
    65   0   0   F    T  2.52D+00 0.00167758 0.00044652 0.01109892 0.00195279    0.1394633 ----
    66   0   0   F    F  7.30D-01 0.00167758 0.00044652 0.02793333 0.00491470    0.1394013 ----
    67   0   0   F    T  1.33D+00 0.00408254 0.00080460 0.03660074 0.00641493    0.1393879 ----
    68   0   0   F    F  1.13D-01 0.00408254 0.00080460 0.04850837 0.00850195    0.1393054 ----
    69   0   0   F    T  2.10D+00 0.00250998 0.00067259 0.02564248 0.00451177    0.1393046 ----
    70   0   0   F    F  5.74D-02 0.00250998 0.00067259 0.05379726 0.00946558    0.1392172 ----
    71   0   0   F    T  3.02D+00 0.00157492 0.00058132 0.01837664 0.00331023    0.1392169 ----
    72   0   0   F    F -2.88D-02 0.00157492 0.00058132 0.05556160 0.01000846    0.1391307 ----
    73   0   0   F    T  2.54D+00 0.00285623 0.00062279 0.02079229 0.00382249    0.1391306 ----
    74   0   0   F    F -3.10D-01 0.00285623 0.00062279 0.05287539 0.00972070    0.1390834 ----
    75   0   0   F    T  2.16D+00 0.00316919 0.00055419 0.01685354 0.00310753    0.1390715 ----
    76   0   0   F    F  2.22D-01 0.00316919 0.00055419 0.03636882 0.00670584    0.1390034 ----
    77   0   0   F    T  1.35D+00 0.00344114 0.00076845 0.03299214 0.00605279    0.1390011 ----
    78   0   0   F    F  1.67D+00 0.00344114 0.00076845 0.04465698 0.00819283    0.1388881 ----
    79   0   0   F    F -1.16D-02 0.00344114 0.00076845 0.07437761 0.01364543    0.1388164 ----
    80   0   0   F    T  1.92D+00 0.00354310 0.00104779 0.06091341 0.01131930    0.1388163 ----
    81   0   0   F    F -2.65D-01 0.00354310 0.00104779 0.11667137 0.02168059    0.1386989 ----
    82   0   0   F    T  3.06D+00 0.00325231 0.00073300 0.02730877 0.00520340    0.1386809 ----
    83   0   0   F    F -4.73D-01 0.00325231 0.00073300 0.08362916 0.01593466    0.1386666 ----
    84   0   0   F    T  1.98D+00 0.00257726 0.00065995 0.02153851 0.00423421    0.1386055 ----
    85   0   0   F    F  1.99D-01 0.00257726 0.00065995 0.04267629 0.00838964    0.1385181 ----
    86   0   0   F    T  2.16D+00 0.00241784 0.00068658 0.02304517 0.00464830    0.1385157 ----
    87   0   0   F    F  3.69D-02 0.00241784 0.00068658 0.04988028 0.01006105    0.1384240 ----
    88   0   0   F    T  2.42D+00 0.00212809 0.00065212 0.02115088 0.00430705    0.1384239 ----
    89   0   0   F    F  2.22D-02 0.00212809 0.00065212 0.05122915 0.01043203    0.1383322 ----
    90   0   0   F    T  1.44D+00 0.00352056 0.00085093 0.03587492 0.00740713    0.1383322 ----
    91   0   0   F    F  6.15D-02 0.00352056 0.00085093 0.05164751 0.01066371    0.1382363 ----
    92   0   0   F    T  2.00D+00 0.00263085 0.00074329 0.02662435 0.00566724    0.1382359 ----
    93   0   0   F    F  5.86D-01 0.00263085 0.00074329 0.05317747 0.01131931    0.1381038 ----
    94   0   0   F    T  5.75D+00 0.00202566 0.00055416 0.01386042 0.00311975    0.1380828 ----
    95   0   0   T    F  2.87D-01 0.00202566 0.00055416 0.07976592 0.01795400    0.1383116 ----
    96   0   0   F    T  2.61D+00 0.00115659 0.00043737 0.00798049 0.00197123    0.1380387 ----
    97   0   0   F    F  2.74D-02 0.00115659 0.00043737 0.02084332 0.00514843    0.1379941 ----
    98   0   0   F    T  2.07D+00 0.00175349 0.00049396 0.01020510 0.00255960    0.1379940 ----
    99   0   0   F    F -1.70D-01 0.00175349 0.00049396 0.02108827 0.00528926    0.1379591 ----
   100   0   0   F    T  2.19D+00 0.00161308 0.00043253 0.00783421 0.00200780    0.1379576 ----
   101   0   0   F    F -3.10D-01 0.00161308 0.00043253 0.01713725 0.00439205    0.1379380 ----
   102   0   0   F    T  1.95D+00 0.00131169 0.00037564 0.00596579 0.00155880    0.1379330 ----
   103   0   0   F    F  2.56D-01 0.00131169 0.00037564 0.01160633 0.00303262    0.1379043 ----
   104   0   0   F    T  2.68D+00 0.00142647 0.00035254 0.00554762 0.00141871    0.1379031 ----
   105   0   0   F    F -1.65D-01 0.00142647 0.00035254 0.01489533 0.00380922    0.1378797 ----
   106   0   0   F    T  2.65D+00 0.00139719 0.00031794 0.00500405 0.00119956    0.1378788 ----
   107   0   0   F    F  1.88D-01 0.00139719 0.00031794 0.01327627 0.00318255    0.1378518 ----
   108   0   0   F    T  1.15D+00 0.00335104 0.00052214 0.01382829 0.00327870    0.1378511 ----
   109   0   0   F    F  1.12D+00 0.00335104 0.00052214 0.01594736 0.00378114    0.1378092 ----
   110   0   0   F    T  2.02D+00 0.00191796 0.00057316 0.01667670 0.00397167    0.1377930 ----
   111   0   0   F    F  6.56D-01 0.00191796 0.00057316 0.03365145 0.00801432    0.1377124 ----
   112   0   0   F    T  1.66D+00 0.00487518 0.00081421 0.03332481 0.00800222    0.1376974 ----
   113   0   0   F    F -9.66D-02 0.00487518 0.00081421 0.05528100 0.01327451    0.1376117 ----
   114   0   0   F    T  1.89D+00 0.00351768 0.00072940 0.02632650 0.00634019    0.1376107 ----
   115   0   0   F    F  7.46D-01 0.00351768 0.00072940 0.04979635 0.01199241    0.1374862 ----
   116   0   0   F    F -5.46D-03 0.00351768 0.00072940 0.03715810 0.00894875    0.1374587 ----
   117   0   0   F    T  3.58D+00 0.00235727 0.00070258 0.02445796 0.00583594    0.1374587 ----
   118   0   0   F    F -1.59D-01 0.00235727 0.00070258 0.08755789 0.02089229    0.1373331 ----
   119   0   0   F    T  2.44D+00 0.00256231 0.00078343 0.02993145 0.00720058    0.1373284 ----
   120   0   0   F    F -3.91D-01 0.00256231 0.00078343 0.07300827 0.01756352    0.1372817 ----
   121   0   0   F    T  1.92D+00 0.00184581 0.00069339 0.02279522 0.00557168    0.1372490 ----
   122   0   0   F    F -1.33D-01 0.00184581 0.00069339 0.04377478 0.01069957    0.1371808 ----
   123   0   0   F    T  2.04D+00 0.00218713 0.00062733 0.01822219 0.00455589    0.1371791 ----
   124   0   0   F    F  2.26D-01 0.00218713 0.00062733 0.03710310 0.00927648    0.1370970 ----
   125   0   0   F    T  1.95D+00 0.00248403 0.00070524 0.02287670 0.00582210    0.1370942 ----
   126   0   0   F    F  3.12D-01 0.00248403 0.00070524 0.04467023 0.01136854    0.1369903 ----
   127   0   0   F    T  3.14D+00 0.00201078 0.00061654 0.01873923 0.00475022    0.1369842 ----
   128   0   0   T    F  4.84D-01 0.00201078 0.00061654 0.05882480 0.01491153    0.1369904 ----
   129   0   0   F    T  2.55D+00 0.00157810 0.00046625 0.01136992 0.00283019    0.1369340 ----
   130   0   0   F    F -3.80D-01 0.00157810 0.00046625 0.02901970 0.00722357    0.1369154 ----
   131   0   0   F    T  1.70D+00 0.00164704 0.00044549 0.01082018 0.00262921    0.1369041 ----
   132   0   0   F    F  3.15D-01 0.00164704 0.00044549 0.01843026 0.00447839    0.1368676 ----
   133   0   0   F    T  1.82D+00 0.00167352 0.00049209 0.01326100 0.00322983    0.1368653 ----
   134   0   0   F    F  1.25D+00 0.00167352 0.00049209 0.02418516 0.00589050    0.1368051 ----
   135   0   0   F    T  4.00D+00 0.00260274 0.00050753 0.01340421 0.00332096    0.1367777 ----
   136   0   0   T    F  4.07D-01 0.00260274 0.00050753 0.05359888 0.01327937    0.1368187 ----
   137   0   0   F    T  1.62D+00 0.00276218 0.00050910 0.01307692 0.00333349    0.1367413 ----
   138   0   0   F    F  5.77D-01 0.00276218 0.00050910 0.02119963 0.00540409    0.1366914 ----
   139   0   0   F    T  2.27D+00 0.00149285 0.00053609 0.01410280 0.00375366    0.1366838 ----
   140   0   0   F    F  1.75D-02 0.00149285 0.00053609 0.03201355 0.00852086    0.1366262 ----
   141   0   0   F    T  2.54D+00 0.00170940 0.00050467 0.01255372 0.00340896    0.1366262 ----
   142   0   0   T    F  4.60D-01 0.00170940 0.00050467 0.03192733 0.00866987    0.1366359 ----
   143   0   0   F    T  2.04D+00 0.00114625 0.00037851 0.00727653 0.00196033    0.1366002 ----
   144   0   0   F    F  1.29D-01 0.00114625 0.00037851 0.01481664 0.00399168    0.1365720 ----
   145   0   0   F    T  2.67D+00 0.00126377 0.00034743 0.00616480 0.00168803    0.1365716 ----
   146   0   0   F    F -2.30D-01 0.00126377 0.00034743 0.01645142 0.00450469    0.1365519 ----
   147   0   0   F    T  2.50D+00 0.00085122 0.00031067 0.00478532 0.00138542    0.1365500 ----
   148   0   0   F    F -1.72D-01 0.00085122 0.00031067 0.01197983 0.00346835    0.1365334 ----
   149   0   0   F    T  2.03D+00 0.00117350 0.00031050 0.00457623 0.00141804    0.1365326 ----
   150   0   0   F    F  1.56D-01 0.00117350 0.00031050 0.00926949 0.00287234    0.1365133 ----
   151   0   0   F    T  1.56D+00 0.00133546 0.00037729 0.00673250 0.00212605    0.1365130 ----
   152   0   0   F    F  1.11D-02 0.00133546 0.00037729 0.01051105 0.00331928    0.1364934 ----
   153   0   0   F    T  2.53D+00 0.00096431 0.00029502 0.00434446 0.00132900    0.1364934 ----
   154   0   0   F    F  4.86D-02 0.00096431 0.00029502 0.01097072 0.00335603    0.1364734 ----
   155   0   0   F    T  2.08D+00 0.00153227 0.00032956 0.00592566 0.00168869    0.1364734 ----
   156   0   0   F    F  3.71D-01 0.00153227 0.00032956 0.01234890 0.00351918    0.1364483 ----
   157   0   0   F    T  1.86D+00 0.00206676 0.00040608 0.00898999 0.00259107    0.1364464 ----
   158   0   0   F    F -2.83D-02 0.00206676 0.00040608 0.01673866 0.00482438    0.1364204 ----
   159   0   0   F    T  2.14D+00 0.00136573 0.00037128 0.00725854 0.00219272    0.1364204 ----
   160   0   0   F    F -2.24D-02 0.00136573 0.00037128 0.01551864 0.00468799    0.1363953 ----
   161   0   0   F    T  2.49D+00 0.00109342 0.00033803 0.00553114 0.00184416    0.1363953 ----
   162   0   0   F    F -3.16D-01 0.00109342 0.00033803 0.01374536 0.00458289    0.1363820 ----
   163   0   0   F    T  1.76D+00 0.00143203 0.00032894 0.00526571 0.00178107    0.1363784 ----
   164   0   0   F    F -7.85D-02 0.00143203 0.00032894 0.00926357 0.00313331    0.1363633 ----
   165   0   0   F    T  2.41D+00 0.00095072 0.00026621 0.00352304 0.00119997    0.1363632 ----
   166   0   0   F    F  2.32D-01 0.00095072 0.00026621 0.00847719 0.00288739    0.1363456 ----
   167   0   0   F    T  2.91D+00 0.00094439 0.00026504 0.00355213 0.00122024    0.1363449 ----
   168   0   0   F    F -2.87D-01 0.00094439 0.00026504 0.01035117 0.00355586    0.1363343 ----
   169   0   0   F    T  2.29D+00 0.00085837 0.00024888 0.00323265 0.00110715    0.1363322 ----
   170   0   0   F    F -2.93D-01 0.00085837 0.00024888 0.00740560 0.00253633    0.1363250 ----
   171   0   0   F    T  1.65D+00 0.00073259 0.00024331 0.00325347 0.00108624    0.1363235 ----
   172   0   0   F    F  4.20D-01 0.00073259 0.00024331 0.00537437 0.00179434    0.1363125 ----
   173   0   0   F    T  1.91D+00 0.00079479 0.00026686 0.00414698 0.00133471    0.1363114 ----
   174   0   0   F    F -8.79D-02 0.00079479 0.00026686 0.00791751 0.00254827    0.1363007 ----
   175   0   0   F    T  2.42D+00 0.00087942 0.00022333 0.00320363 0.00095939    0.1363006 ----
   176   0   0   F    F  2.71D-01 0.00087942 0.00022333 0.00776169 0.00232438    0.1362879 ----
   177   0   0   F    T  2.36D+00 0.00116864 0.00025255 0.00449025 0.00125163    0.1362872 ----
   178   0   0   F    T  1.59D+00 0.00169490 0.00030570 0.00697736 0.00185780    0.1362741 ----
   179   0   0   F    F  6.58D-01 0.00169490 0.00030570 0.01109381 0.00295386    0.1362560 ----
   180   0   0   F    T  2.11D+00 0.00123065 0.00033912 0.00898347 0.00232050    0.1362526 ----
   181   0   0   F    F -4.00D-02 0.00123065 0.00033912 0.01896361 0.00489844    0.1362324 ----
   182   0   0   F    T  2.29D+00 0.00118331 0.00031780 0.00814614 0.00205708    0.1362324 ----
   183   0   0   F    F  6.88D-02 0.00118331 0.00031780 0.01862132 0.00470230    0.1362110 ----
   184   0   0   F    T  1.33D+00 0.00180343 0.00042954 0.01506681 0.00378347    0.1362109 ----
   185   0   0   F    F  4.06D-01 0.00180343 0.00042954 0.02001475 0.00502596    0.1361834 ----
   186   0   0   F    T  2.27D+00 0.00142521 0.00038754 0.01236655 0.00311089    0.1361809 ----
   187   0   0   F    F  6.30D-01 0.00142521 0.00038754 0.02810103 0.00706900    0.1361397 ----
   188   0   0   F    T  2.32D+00 0.00196442 0.00048883 0.01970141 0.00497185    0.1361325 ----
   189   0   0   F    F  3.14D-01 0.00196442 0.00048883 0.04565583 0.01152171    0.1360727 ----
   190   0   0   F    T  1.96D+00 0.00233771 0.00061128 0.03048659 0.00772882    0.1360690 ----
   191   0   0   F    F -4.29D-01 0.00233771 0.00061128 0.05972859 0.01514211    0.1360533 ----
   192   0   0   F    T  2.57D+00 0.00126606 0.00040727 0.01311769 0.00336004    0.1360326 ----
   193   0   0   F    F  3.46D-01 0.00126606 0.00040727 0.03377117 0.00865033    0.1359860 ----
   194   0   0   F    T  1.62D+00 0.00255354 0.00059479 0.02783126 0.00719425    0.1359827 ----
   195   0   0   F    F  2.87D-02 0.00255354 0.00059479 0.04502809 0.01163955    0.1359316 ----
   196   0   0   F    T  3.00D+00 0.00195030 0.00043771 0.01502876 0.00399670    0.1359315 ----
   197   0   0   F    F -9.61D-03 0.00195030 0.00043771 0.04502614 0.01197411    0.1358821 ----
   198   0   0   F    T  1.81D+00 0.00263518 0.00055894 0.02400309 0.00653923    0.1358821 ----
   199   0   0   F    F  1.12D-01 0.00263518 0.00055894 0.04353006 0.01185902    0.1358278 ----
   200   0   0   F    T  2.08D+00 0.00167141 0.00054969 0.02288498 0.00635294    0.1358273 ----
   201   0   0   F    F  1.75D-01 0.00167141 0.00054969 0.04749760 0.01318548    0.1357650 ----
   202   0   0   F    T  2.87D+00 0.00169610 0.00050059 0.01939409 0.00540744    0.1357636 ----
   203   0   0   F    F -4.59D-01 0.00169610 0.00050059 0.05558320 0.01549765    0.1357541 ----
   204   0   0   F    T  1.60D+00 0.00151580 0.00048939 0.01892406 0.00523450    0.1357298 ----
   205   0   0   F    F  2.69D-02 0.00151580 0.00048939 0.03030195 0.00838168    0.1356956 ----
   206   0   0   F    T  3.60D+00 0.00080366 0.00032755 0.00888450 0.00238940    0.1356955 ----
   207   0   0   F    F -3.23D-01 0.00080366 0.00032755 0.03200435 0.00860725    0.1356780 ----
   208   0   0   F    T  2.43D+00 0.00077091 0.00032666 0.00910572 0.00240108    0.1356728 ----
   209   0   0   F    F  2.18D-01 0.00077091 0.00032666 0.02208943 0.00582475    0.1356462 ----
   210   0   0   F    T  1.82D+00 0.00156977 0.00041496 0.01486565 0.00389384    0.1356454 ----
   211   0   0   F    F -5.15D-02 0.00156977 0.00041496 0.02708187 0.00709371    0.1356196 ----
   212   0   0   F    T  2.19D+00 0.00111027 0.00036717 0.01179041 0.00306951    0.1356195 ----
   213   0   0   F    F -3.13D-01 0.00111027 0.00036717 0.02584329 0.00672804    0.1356055 ----
   214   0   0   F    T  2.18D+00 0.00105843 0.00030333 0.00821854 0.00211926    0.1356018 ----
   215   0   0   F    F  1.69D-01 0.00105843 0.00030333 0.01791393 0.00461934    0.1355819 ----
   216   0   0   F    T  2.04D+00 0.00149338 0.00033778 0.01036953 0.00264943    0.1355814 ----
   217   0   0   F    F -8.19D-02 0.00149338 0.00033778 0.02113569 0.00540019    0.1355630 ----
   218   0   0   F    T  2.37D+00 0.00125073 0.00029863 0.00818576 0.00209071    0.1355629 ----
   219   0   0   F    F  1.34D-01 0.00125073 0.00029863 0.01941222 0.00495804    0.1355423 ----
   220   0   0   F    T  1.87D+00 0.00141206 0.00035686 0.01179122 0.00300699    0.1355420 ----
   221   0   0   F    F  6.08D-02 0.00141206 0.00035686 0.02204936 0.00562301    0.1355201 ----
   222   0   0   F    T  1.95D+00 0.00121399 0.00035836 0.01192754 0.00305499    0.1355200 ----
   223   0   0   F    F  6.82D-02 0.00121399 0.00035836 0.02328956 0.00596513    0.1354968 ----
   224   0   0   F    T  2.87D+00 0.00115393 0.00030404 0.00858072 0.00222063    0.1354967 ----
   225   0   0   T    F  4.95D-01 0.00115393 0.00030404 0.02462173 0.00637193    0.1354971 ----
   226   0   0   F    T  1.47D+00 0.00135501 0.00029743 0.00808389 0.00214773    0.1354853 ----
   227   0   0   F    F  1.16D+00 0.00135501 0.00029743 0.01188343 0.00315719    0.1354679 ----
   228   0   0   F    T  4.10D+00 0.00111717 0.00026039 0.00616000 0.00166642    0.1354608 ----
   229   0   0   F    F -2.62D-01 0.00111717 0.00026039 0.02526671 0.00683521    0.1354452 ----
   230   0   0   F    T  1.91D+00 0.00111187 0.00032619 0.00969177 0.00263342    0.1354429 ----
   231   0   0   F    F  8.44D-02 0.00111187 0.00032619 0.01855503 0.00504171    0.1354238 ----
   232   0   0   F    T  1.42D+00 0.00130082 0.00039284 0.01396469 0.00383827    0.1354237 ----
   233   0   0   F    F  1.85D-01 0.00130082 0.00039284 0.01989160 0.00546732    0.1354016 ----
   234   0   0   F    T  2.74D+00 0.00112396 0.00030709 0.00843362 0.00236568    0.1354010 ----
   235   0   0   F    F -1.18D-01 0.00112396 0.00030709 0.02310168 0.00648016    0.1353816 ----
   236   0   0   F    T  2.61D+00 0.00141957 0.00029358 0.00765342 0.00218711    0.1353812 ----
   237   0   0   F    F -3.37D-01 0.00141957 0.00029358 0.01999773 0.00571474    0.1353716 ----
   238   0   0   F    T  2.07D+00 0.00138303 0.00026646 0.00631396 0.00182534    0.1353682 ----
   239   0   0   F    F  2.66D-01 0.00138303 0.00026646 0.01310002 0.00378716    0.1353527 ----
   240   0   0   F    T  1.99D+00 0.00141799 0.00030485 0.00818339 0.00241222    0.1353520 ----
   241   0   0   F    F  1.94D-01 0.00141799 0.00030485 0.01626489 0.00479441    0.1353334 ----
   242   0   0   F    T  2.35D+00 0.00100784 0.00030472 0.00803341 0.00243323    0.1353328 ----
   243   0   0   F    F -1.84D-01 0.00100784 0.00030472 0.01889796 0.00572397    0.1353181 ----
   244   0   0   F    T  1.90D+00 0.00082907 0.00030491 0.00791704 0.00245337    0.1353173 ----
   245   0   0   F    F -1.76D-01 0.00082907 0.00030491 0.01508094 0.00467336    0.1353052 ----
   246   0   0   F    T  2.73D+00 0.00083059 0.00022990 0.00451175 0.00140879    0.1353046 ----
   247   0   0   F    F -4.58D-01 0.00083059 0.00022990 0.01233893 0.00385282    0.1353027 ----
   248   0   0   F    T  1.82D+00 0.00070859 0.00020577 0.00379039 0.00114536    0.1352978 ----
   249   0   0   F    F  1.97D+00 0.00070859 0.00020577 0.00691113 0.00208836    0.1352866 ----
   250   0   0   F    T  1.84D+00 0.00130925 0.00035206 0.01133727 0.00336702    0.1352778 ----
   251   0   0   F    F  5.06D-01 0.00130925 0.00035206 0.02088496 0.00620255    0.1352513 ----
   252   0   0   F    T  3.05D+00 0.00087082 0.00033498 0.01036970 0.00306478    0.1352479 ----
   253   0   0   T    F  4.77D-01 0.00087082 0.00033498 0.03159872 0.00933904    0.1352508 ----
   254   0   0   F    T  1.39D+00 0.00114046 0.00034194 0.01083010 0.00321479    0.1352338 ----
   255   0   0   F    F  8.37D-01 0.00114046 0.00034194 0.01500380 0.00445370    0.1352133 ----
   256   0   0   F    T  2.49D+00 0.00094027 0.00034475 0.01098880 0.00329251    0.1352079 ----
   257   0   0   F    F -3.12D-02 0.00094027 0.00034475 0.02730886 0.00818239    0.1351831 ----
   258   0   0   F    T  1.78D+00 0.00215261 0.00039920 0.01483685 0.00444953    0.1351830 ----
   259   0   0   F    F  2.41D-01 0.00215261 0.00039920 0.02643319 0.00792725    0.1351536 ----
   260   0   0   F    T  2.08D+00 0.00248160 0.00040934 0.01589382 0.00472782    0.1351524 ----
   261   0   0   F    F  2.71D-01 0.00248160 0.00040934 0.03307520 0.00983864    0.1351156 ----
   262   0   0   F    T  1.74D+00 0.00163445 0.00050427 0.02432717 0.00719799    0.1351138 ----
   263   0   0   F    F  1.89D-01 0.00163445 0.00050427 0.04226465 0.01250538    0.1350691 ----
   264   0   0   F    T  1.91D+00 0.00166906 0.00052673 0.02633132 0.00779189    0.1350680 ----
   265   0   0   F    F  1.62D-01 0.00166906 0.00052673 0.05026174 0.01487330    0.1350150 ----
   266   0   0   F    T  1.81D+00 0.00215093 0.00059072 0.03192917 0.00953260    0.1350140 ----
   267   0   0   F    F  3.29D-02 0.00215093 0.00059072 0.05789602 0.01728512    0.1349566 ----
   268   0   0   F    T  2.12D+00 0.00279122 0.00057170 0.02786703 0.00843272    0.1349566 ----
   269   0   0   F    F  4.63D-02 0.00279122 0.00057170 0.05899993 0.01785372    0.1348934 ----
   270   0   0   F    T  2.80D+00 0.00143155 0.00052113 0.02180167 0.00666758    0.1348933 ----
   271   0   0   F    F -3.39D-02 0.00143155 0.00052113 0.06108374 0.01868117    0.1348295 ----
   272   0   0   F    T  2.26D+00 0.00165545 0.00057137 0.02608602 0.00799562    0.1348294 ----
   273   0   0   F    F  1.20D-01 0.00165545 0.00057137 0.05887930 0.01804708    0.1347592 ----
   274   0   0   F    T  1.96D+00 0.00237412 0.00063985 0.03360095 0.01030729    0.1347584 ----
   275   0   0   F    F -4.04D-01 0.00237412 0.00063985 0.06589765 0.02021450    0.1347358 ----
   276   0   0   F    T  2.37D+00 0.00133040 0.00043883 0.01656925 0.00509206    0.1347168 ----
   277   0   0   F    F  8.30D-03 0.00133040 0.00043883 0.03920656 0.01204896    0.1346769 ----
   278   0   0   F    T  4.55D+00 0.00170957 0.00031220 0.00862957 0.00266973    0.1346769 ----
   279   0   0   T    F  3.58D-01 0.00170957 0.00031220 0.03926987 0.01214893    0.1347076 ----
   280   0   0   F    T  1.62D+00 0.00213024 0.00031159 0.00855359 0.00268372    0.1346631 ----
   281   0   0   F    F  3.99D-01 0.00213024 0.00031159 0.01384792 0.00434484    0.1346455 ----
   282   0   0   F    T  2.98D+00 0.00080023 0.00026982 0.00635616 0.00203748    0.1346440 ----
   283   0   0   F    F -1.94D-01 0.00080023 0.00026982 0.01896891 0.00608053    0.1346297 ----
   284   0   0   F    T  1.65D+00 0.00102708 0.00032422 0.00915337 0.00296496    0.1346288 ----
   285   0   0   F    T  2.10D+00 0.00087955 0.00028513 0.00709022 0.00232937    0.1346137 ----
   286   0   0   F    F -1.34D-01 0.00087955 0.00028513 0.01491294 0.00489939    0.1346012 ----
   287   0   0   F    T  2.48D+00 0.00098783 0.00024414 0.00502791 0.00170716    0.1346009 ----
   288   0   0   F    F -1.01D-01 0.00098783 0.00024414 0.01249286 0.00424178    0.1345894 ----
   289   0   0   F    T  1.70D+00 0.00089423 0.00027836 0.00648402 0.00223942    0.1345893 ----
   290   0   0   F    F  1.07D+00 0.00089423 0.00027836 0.01104371 0.00381422    0.1345718 ----
   291   0   0   F    T  2.94D+00 0.00129572 0.00030513 0.00779449 0.00269046    0.1345654 ----
   292   0   0   T    F  4.99D-01 0.00129572 0.00030513 0.02292788 0.00791411    0.1345656 ----
   293   0   0   F    T  1.61D+00 0.00124108 0.00029073 0.00709337 0.00244961    0.1345535 ----
   294   0   0   F    F  1.90D-01 0.00124108 0.00029073 0.01142824 0.00394660    0.1345398 ----
   295   0   0   F    T  2.07D+00 0.00098327 0.00027898 0.00658500 0.00227249    0.1345395 ----
   296   0   0   F    F  1.25D-01 0.00098327 0.00027898 0.01360374 0.00469465    0.1345239 ----
   297   0   0   F    T  3.01D+00 0.00103229 0.00024335 0.00501539 0.00175402    0.1345237 ----
   298   0   0   F    F -3.25D-01 0.00103229 0.00024335 0.01509668 0.00527973    0.1345157 ----
   299   0   0   F    T  2.15D+00 0.00125694 0.00023508 0.00493120 0.00165685    0.1345133 ----
   300   0   0   F    F -1.92D-01 0.00125694 0.00023508 0.01060521 0.00356328    0.1345054 ----
   301   0   0   F    T  1.99D+00 0.00073543 0.00021829 0.00441819 0.00144533    0.1345049 ----
   302   0   0   F    F -6.81D-02 0.00073543 0.00021829 0.00880342 0.00287988    0.1344973 ----
   303   0   0   F    T  2.52D+00 0.00068311 0.00018607 0.00334288 0.00106649    0.1344972 ----
   304   0   0   F    F -1.82D-01 0.00068311 0.00018607 0.00841241 0.00268384    0.1344913 ----
   305   0   0   F    T  1.37D+00 0.00109392 0.00022680 0.00508849 0.00160062    0.1344910 ----
   306   0   0   F    F  6.68D-01 0.00109392 0.00022680 0.00697671 0.00219458    0.1344824 ----
   307   0   0   F    T  3.57D+00 0.00076273 0.00018050 0.00334438 0.00102627    0.1344808 ----
   308   0   0   F    F -5.00D-01 0.00076273 0.00018050 0.01192936 0.00366067    0.1344808 ----
   309   0   0   F    T  2.18D+00 0.00051210 0.00016199 0.00280366 0.00084086    0.1344757 ----
   310   0   0   F    F  2.16D-02 0.00051210 0.00016199 0.00610853 0.00183205    0.1344706 ----
   311   0   0   F    T  2.06D+00 0.00050583 0.00016682 0.00311109 0.00090687    0.1344706 ----
   312   0   0   F    F  1.20D-01 0.00050583 0.00016682 0.00642083 0.00187164    0.1344651 ----
   313   0   0   F    T  1.42D+00 0.00088451 0.00021181 0.00515940 0.00147738    0.1344650 ----
   314   0   0   F    F  1.03D-01 0.00088451 0.00021181 0.00731798 0.00209548    0.1344590 ----
   315   0   0   F    T  2.63D+00 0.00040672 0.00016174 0.00312399 0.00087770    0.1344589 ----
   316   0   0   F    F -2.67D-02 0.00040672 0.00016174 0.00822354 0.00231044    0.1344531 ----
   317   0   0   F    T  3.12D+00 0.00049478 0.00014508 0.00268373 0.00072133    0.1344531 ----
   318   0   0   F    F -1.66D-01 0.00049478 0.00014508 0.00836690 0.00224884    0.1344485 ----
   319   0   0   F    T  2.34D+00 0.00080101 0.00015176 0.00310630 0.00080346    0.1344483 ----
   320   0   0   F    F -3.09D-01 0.00080101 0.00015176 0.00725405 0.00187631    0.1344458 ----
   321   0   0   F    T  2.18D+00 0.00047371 0.00012908 0.00240135 0.00059519    0.1344451 ----
   322   0   0   F    F -2.68D-01 0.00047371 0.00012908 0.00523368 0.00129721    0.1344431 ----
   323   0   0   F    T  1.94D+00 0.00032143 0.00011529 0.00206255 0.00048857    0.1344428 ----
   324   0   0   F    F  4.61D-01 0.00032143 0.00011529 0.00401114 0.00095014    0.1344398 ----
   325   0   0   F    T  1.79D+00 0.00078941 0.00014408 0.00335738 0.00077645    0.1344395 ----
   326   0   0   F    F -1.36D-01 0.00078941 0.00014408 0.00600077 0.00138778    0.1344368 ----
   327   0   0   F    T  1.93D+00 0.00069315 0.00012749 0.00276346 0.00062121    0.1344367 ----
   328   0   0   F    F  9.39D-01 0.00069315 0.00012749 0.00533609 0.00119953    0.1344327 ----
   329   0   0   F    T  2.40D+00 0.00055717 0.00015823 0.00436364 0.00097029    0.1344314 ----
   330   0   0   F    F  1.95D-01 0.00055717 0.00015823 0.01045825 0.00232547    0.1344254 ----
   331   0   0   F    T  1.49D+00 0.00087464 0.00021814 0.00836549 0.00185855    0.1344252 ----
   332   0   0   F    F -3.68D-02 0.00087464 0.00021814 0.01250343 0.00277788    0.1344192 ----
   333   0   0   F    T  2.90D+00 0.00042547 0.00015260 0.00413827 0.00092370    0.1344192 ----
   334   0   0   F    F -3.89D-01 0.00042547 0.00015260 0.01198707 0.00267562    0.1344171 ----
   335   0   0   F    T  1.59D+00 0.00057558 0.00015987 0.00460106 0.00102653    0.1344156 ----
   336   0   0   F    F  1.56D+00 0.00057558 0.00015987 0.00733256 0.00163595    0.1344099 ----
   337   0   0   F    T  2.08D+00 0.00084371 0.00022328 0.00907218 0.00201422    0.1344066 ----
   338   0   0   F    F  1.58D-01 0.00084371 0.00022328 0.01885672 0.00418659    0.1343963 ----
   339   0   0   F    T  2.88D+00 0.00085143 0.00020331 0.00762699 0.00168095    0.1343961 ----
   340   0   0   F    F -4.97D-01 0.00085143 0.00020331 0.02199444 0.00484746    0.1343960 ----
   341   0   0   F    T  1.75D+00 0.00071908 0.00018423 0.00636231 0.00139018    0.1343909 ----
   342   0   0   F    F  1.01D-01 0.00071908 0.00018423 0.01116472 0.00243951    0.1343853 ----
   343   0   0   F    T  2.55D+00 0.00050644 0.00015969 0.00485521 0.00105389    0.1343852 ----
   344   0   0   F    F -1.83D-01 0.00050644 0.00015969 0.01237322 0.00268578    0.1343808 ----
   345   0   0   F    T  1.94D+00 0.00077020 0.00016463 0.00526667 0.00113058    0.1343806 ----
   346   0   0   F    F  7.57D-02 0.00077020 0.00016463 0.01022568 0.00219511    0.1343757 ----
   347   0   0   F    T  1.99D+00 0.00085428 0.00016800 0.00558392 0.00118732    0.1343757 ----
   348   0   0   F    F -5.78D-02 0.00085428 0.00016800 0.01110523 0.00236134    0.1343711 ----
   349   0   0   F    T  2.50D+00 0.00047296 0.00014431 0.00418682 0.00088842    0.1343711 ----
   350   0   0   F    F -1.06D-02 0.00047296 0.00014431 0.01048524 0.00222492    0.1343666 ----
   351   0   0   F    T  1.67D+00 0.00056470 0.00017479 0.00620127 0.00131694    0.1343666 ----
   352   0   0   F    F -8.65D-02 0.00056470 0.00017479 0.01036550 0.00220128    0.1343626 ----
   353   0   0   F    T  1.81D+00 0.00054664 0.00015955 0.00523001 0.00111229    0.1343625 ----
   354   0   0   F    F  4.33D-01 0.00054664 0.00015955 0.00945526 0.00201089    0.1343573 ----
   355   0   0   F    T  3.73D+00 0.00051822 0.00013172 0.00362127 0.00077209    0.1343568 ----
   356   0   0   F    F -4.18D-01 0.00051822 0.00013172 0.01351177 0.00288085    0.1343552 ----
   357   0   0   F    T  2.20D+00 0.00053686 0.00013000 0.00355750 0.00076325    0.1343535 ----
   358   0   0   F    F -9.14D-02 0.00053686 0.00013000 0.00781533 0.00167675    0.1343506 ----
   359   0   0   F    T  2.53D+00 0.00036136 0.00011433 0.00274770 0.00060119    0.1343506 ----
   360   0   0   F    F -1.39D-01 0.00036136 0.00011433 0.00696284 0.00152344    0.1343481 ----
   361   0   0   F    T  1.60D+00 0.00051525 0.00013260 0.00365040 0.00081913    0.1343481 ----
   362   0   0   F    F -5.84D-02 0.00051525 0.00013260 0.00584879 0.00131243    0.1343458 ----
   363   0   0   F    T  2.26D+00 0.00031089 0.00010735 0.00231070 0.00054698    0.1343458 ----
   364   0   0   F    F  3.11D-02 0.00031089 0.00010735 0.00522059 0.00123581    0.1343434 ----
   365   0   0   F    T  2.41D+00 0.00054434 0.00010454 0.00209839 0.00052815    0.1343434 ----
   366   0   0   F    F  2.26D-02 0.00054434 0.00010454 0.00506287 0.00127430    0.1343411 ----
   367   0   0   F    T  1.69D+00 0.00077027 0.00012537 0.00292511 0.00076928    0.1343411 ----
   368   0   0   F    F  2.56D-02 0.00077027 0.00012537 0.00495486 0.00130309    0.1343387 ----
   369   0   0   F    T  2.46D+00 0.00029789 0.00010452 0.00194119 0.00054432    0.1343387 ----
   370   0   0   F    F  2.12D-01 0.00029789 0.00010452 0.00476614 0.00133644    0.1343360 ----
   371   0   0   F    T  1.71D+00 0.00055508 0.00013713 0.00327043 0.00094760    0.1343359 ----
   372   0   0   F    F -1.12D-01 0.00055508 0.00013713 0.00559094 0.00161997    0.1343334 ----
   373   0   0   F    T  1.99D+00 0.00042607 0.00011895 0.00239854 0.00072425    0.1343334 ----
   374   0   0   F    F -3.81D-02 0.00042607 0.00011895 0.00476185 0.00143786    0.1343311 ----
   375   0   0   F    T  2.61D+00 0.00040846 0.00010066 0.00166439 0.00052912    0.1343311 ----
   376   0   0   F    F  8.18D-02 0.00040846 0.00010066 0.00435051 0.00138305    0.1343286 ----
   377   0   0   F    T  2.44D+00 0.00033246 0.00010742 0.00193748 0.00061229    0.1343286 ----
   378   0   0   F    F -9.43D-02 0.00033246 0.00010742 0.00473419 0.00149611    0.1343264 ----
   379   0   0   F    T  2.35D+00 0.00028857 0.00010341 0.00188666 0.00057708    0.1343263 ----
   380   0   0   F    F -2.46D-01 0.00028857 0.00010341 0.00442994 0.00135501    0.1343249 ----
   381   0   0   F    T  1.71D+00 0.00045039 0.00010440 0.00200176 0.00059696    0.1343247 ----
   382   0   0   F    F  1.76D-01 0.00045039 0.00010440 0.00342573 0.00102160    0.1343228 ----
   383   0   0   F    T  1.69D+00 0.00033916 0.00011333 0.00240987 0.00071203    0.1343228 ----
   384   0   0   F    F  2.28D-01 0.00033916 0.00011333 0.00406652 0.00120151    0.1343206 ----
   385   0   0   F    T  2.61D+00 0.00053795 0.00010032 0.00193656 0.00056577    0.1343205 ----
   386   0   0   F    F  3.62D-02 0.00053795 0.00010032 0.00504950 0.00147522    0.1343181 ----
   387   0   0   F    T  1.81D+00 0.00064357 0.00012209 0.00289715 0.00084617    0.1343181 ----
   388   0   0   F    F  3.00D-02 0.00064357 0.00012209 0.00523388 0.00152866    0.1343157 ----
   389   0   0   F    T  1.97D+00 0.00048774 0.00011800 0.00270435 0.00079874    0.1343157 ----
   390   0   0   F    F -1.34D-01 0.00048774 0.00011800 0.00533108 0.00157455    0.1343137 ----
   391   0   0   F    T  2.52D+00 0.00035758 0.00009631 0.00177367 0.00054094    0.1343136 ----
   392   0   0   F    F  1.59D-01 0.00035758 0.00009631 0.00447132 0.00136366    0.1343113 ----
   393   0   0   F    T  1.15D+00 0.00090182 0.00015274 0.00444831 0.00136983    0.1343113 ----
   394   0   0   F    F  7.70D-01 0.00090182 0.00015274 0.00513018 0.00157981    0.1343079 ----
   395   0   0   F    T  4.26D+00 0.00033487 0.00010464 0.00219127 0.00065593    0.1343071 ----
   396   0   0   F    F -4.08D-01 0.00033487 0.00010464 0.00934248 0.00279654    0.1343059 ----
   397   0   0   F    T  2.74D+00 0.00031574 0.00009966 0.00203642 0.00060460    0.1343047 ----
   398   0   0   F    F -1.96D-01 0.00031574 0.00009966 0.00557517 0.00165522    0.1343029 ----
   399   0   0   F    T  1.81D+00 0.00041260 0.00010941 0.00252070 0.00073699    0.1343028 ----
   400   0   0   F    F -1.27D-01 0.00041260 0.00010941 0.00455110 0.00133063    0.1343012 ----
   401   0   0   F    T  1.71D+00 0.00034220 0.00010444 0.00238419 0.00067947    0.1343012 ----
   402   0   0   F    F  2.93D-01 0.00034220 0.00010444 0.00407764 0.00116208    0.1342992 ----
   403   0   0   F    T  2.36D+00 0.00030473 0.00010054 0.00227591 0.00063677    0.1342991 ----
   404   0   0   F    F  1.07D-01 0.00030473 0.00010054 0.00537195 0.00150301    0.1342968 ----
   405   0   0   F    T  2.08D+00 0.00058216 0.00011209 0.00288995 0.00079827    0.1342968 ----
   406   0   0   F    F  5.13D-02 0.00058216 0.00011209 0.00602106 0.00166315    0.1342944 ----
   407   0   0   F    T  1.74D+00 0.00055330 0.00012526 0.00365412 0.00100415    0.1342944 ----
   408   0   0   F    F  3.27D-01 0.00055330 0.00012526 0.00636284 0.00174851    0.1342914 ----
   409   0   0   F    T  2.16D+00 0.00039624 0.00012916 0.00393819 0.00107503    0.1342912 ----
   410   0   0   F    F -2.63D-01 0.00039624 0.00012916 0.00850101 0.00232057    0.1342892 ----
   411   0   0   F    T  1.95D+00 0.00037293 0.00011614 0.00327525 0.00087720    0.1342889 ----
   412   0   0   F    F  6.25D-02 0.00037293 0.00011614 0.00638598 0.00171034    0.1342865 ----
   413   0   0   F    T  2.33D+00 0.00059908 0.00010896 0.00297374 0.00078016    0.1342865 ----
   414   0   0   F    F -1.59D-01 0.00059908 0.00010896 0.00692677 0.00181724    0.1342845 ----
   415   0   0   F    T  1.57D+00 0.00071359 0.00012110 0.00371764 0.00097181    0.1342845 ----
   416   0   0   F    F  7.78D-01 0.00071359 0.00012110 0.00584948 0.00152908    0.1342816 ----
   417   0   0   F    T  4.46D+00 0.00027671 0.00009520 0.00228463 0.00061006    0.1342809 ----
   418   0   0   F    F -4.49D-01 0.00027671 0.00009520 0.01018258 0.00271902    0.1342803 ----
   419   0   0   F    T  1.88D+00 0.00049244 0.00010828 0.00292697 0.00079683    0.1342790 ----
   420   0   0   F    F -3.27D-01 0.00049244 0.00010828 0.00550209 0.00149787    0.1342780 ----
   421   0   0   F    T  2.02D+00 0.00030419 0.00008514 0.00179805 0.00049958    0.1342777 ----
   422   0   0   F    F  2.69D-01 0.00030419 0.00008514 0.00363001 0.00100857    0.1342761 ----
   423   0   0   F    T  2.29D+00 0.00035535 0.00008941 0.00198887 0.00055818    0.1342761 ----
   424   0   0   F    F  2.21D-02 0.00035535 0.00008941 0.00456203 0.00128034    0.1342744 ----
   425   0   0   F    T  1.92D+00 0.00038311 0.00009818 0.00240151 0.00068003    0.1342744 ----
   426   0   0   F    F  1.68D-01 0.00038311 0.00009818 0.00462165 0.00130870    0.1342726 ----
   427   0   0   F    T  1.94D+00 0.00036599 0.00010515 0.00277965 0.00078678    0.1342725 ----
   428   0   0   F    F  1.43D-01 0.00036599 0.00010515 0.00539955 0.00152835    0.1342704 ----
   429   0   0   F    T  1.67D+00 0.00045415 0.00012086 0.00366531 0.00104610    0.1342704 ----
   430   0   0   F    T  2.63D+00 0.00032037 0.00009636 0.00230840 0.00066386    0.1342683 ----
   431   0   0   F    F -5.43D-02 0.00032037 0.00009636 0.00607199 0.00174620    0.1342663 ----
   432   0   0   F    T  1.75D+00 0.00065359 0.00011394 0.00328081 0.00094496    0.1342662 ----
   433   0   0   F    F  3.99D-02 0.00065359 0.00011394 0.00573334 0.00165136    0.1342642 ----
   434   0   0   F    T  2.91D+00 0.00050595 0.00009010 0.00205507 0.00059003    0.1342642 ----
   435   0   0   F    F -3.61D-01 0.00050595 0.00009010 0.00598123 0.00171728    0.1342633 ----
   436   0   0   F    T  2.20D+00 0.00026576 0.00008222 0.00171472 0.00049815    0.1342629 ----
   437   0   0   F    F  2.02D-01 0.00026576 0.00008222 0.00377527 0.00109677    0.1342614 ----
   438   0   0   F    T  2.10D+00 0.00034007 0.00009185 0.00214600 0.00062829    0.1342613 ----
   439   0   0   F    F -3.63D-01 0.00034007 0.00009185 0.00450129 0.00131786    0.1342607 ----
   440   0   0   F    T  1.76D+00 0.00025935 0.00007945 0.00162350 0.00047688    0.1342603 ----
   441   0   0   F    F  2.72D-01 0.00025935 0.00007945 0.00285911 0.00083983    0.1342592 ----
   442   0   0   F    T  2.81D+00 0.00031404 0.00007030 0.00124177 0.00038006    0.1342591 -+--
   443   0   0   F    F  3.67D-01 0.00031404 0.00007030 0.00349058 0.00106832    0.1342576 -+--
   444   0   0   F    T  2.65D+00 0.00032526 0.00008416 0.00172310 0.00055143    0.1342575 ----
   445   0   0   F    F -2.74D-01 0.00032526 0.00008416 0.00456190 0.00145992    0.1342564 ----
   446   0   0   F    T  1.36D+00 0.00032975 0.00009956 0.00236465 0.00077841    0.1342563 ----
   447   0   0   F    F  1.03D+00 0.00032975 0.00009956 0.00321893 0.00105963    0.1342545 ----
   448   0   0   F    T  1.76D+00 0.00046344 0.00012440 0.00367431 0.00122115    0.1342539 ----
   449   0   0   F    F  3.35D-02 0.00046344 0.00012440 0.00646384 0.00214824    0.1342515 ----
   450   0   0   F    T  2.11D+00 0.00064861 0.00011534 0.00316839 0.00105443    0.1342514 ----
   451   0   0   F    F  1.39D-01 0.00064861 0.00011534 0.00667108 0.00222012    0.1342487 ----
   452   0   0   F    T  1.96D+00 0.00065111 0.00012722 0.00389356 0.00128737    0.1342487 ----
   453   0   0   F    F  2.37D-01 0.00065111 0.00012722 0.00764914 0.00252912    0.1342454 ----
   454   0   0   F    T  1.72D+00 0.00071530 0.00015098 0.00551323 0.00181609    0.1342452 ----
   455   0   0   F    F  5.16D-01 0.00071530 0.00015098 0.00949873 0.00312894    0.1342407 ----
   456   0   0   F    T  2.01D+00 0.00047102 0.00017207 0.00714693 0.00235975    0.1342401 ----
   457   0   0   F    F  3.58D-02 0.00047102 0.00017207 0.01436446 0.00474282    0.1342347 ----
   458   0   0   F    T  2.21D+00 0.00054572 0.00016681 0.00673184 0.00222200    0.1342347 ----
   459   0   0   F    F -3.30D-01 0.00054572 0.00016681 0.01488356 0.00491267    0.1342320 ----
   460   0   0   F    T  1.84D+00 0.00069335 0.00014925 0.00538242 0.00179222    0.1342311 ----
   461   0   0   F    F  1.63D-01 0.00069335 0.00014925 0.00988563 0.00329169    0.1342271 ----
   462   0   0   F    T  2.05D+00 0.00052212 0.00015154 0.00544137 0.00186338    0.1342270 ----
   463   0   0   F    F  3.35D-01 0.00052212 0.00015154 0.01118132 0.00382900    0.1342219 ----
   464   0   0   F    T  4.59D+00 0.00037738 0.00011611 0.00307330 0.00111369    0.1342215 ----
   465   0   0   F    F -4.94D-01 0.00037738 0.00011611 0.01410787 0.00511235    0.1342214 ----
   466   0   0   F    T  1.26D+00 0.00063850 0.00015756 0.00552765 0.00205854    0.1342188 ----
   467   0   0   F    F  5.18D-01 0.00063850 0.00015756 0.00695213 0.00258902    0.1342151 ----
   468   0   0   F    T  2.09D+00 0.00039699 0.00015035 0.00498783 0.00187978    0.1342147 ----
   469   0   0   F    F  4.44D-01 0.00039699 0.00015035 0.01042994 0.00393077    0.1342093 ----
   470   0   0   F    T  1.85D+00 0.00084818 0.00019210 0.00810743 0.00307551    0.1342087 ----
   471   0   0   F    F  1.68D-01 0.00084818 0.00019210 0.01496468 0.00567677    0.1342019 ----
   472   0   0   F    T  1.99D+00 0.00103733 0.00019996 0.00878344 0.00332988    0.1342018 ----
   473   0   0   F    F  1.16D-01 0.00103733 0.00019996 0.01748705 0.00662950    0.1341941 ----
   474   0   0   F    T  3.10D+00 0.00057912 0.00017002 0.00646237 0.00238940    0.1341941 ----
   475   0   0   T    F  4.23D-01 0.00057912 0.00017002 0.02000868 0.00739801    0.1341969 ----
   476   0   0   F    T  2.23D+00 0.00049328 0.00013041 0.00393482 0.00140358    0.1341908 ----
   477   0   0   F    F -1.37D-01 0.00049328 0.00013041 0.00877596 0.00313046    0.1341880 ----
   478   0   0   F    T  2.04D+00 0.00041156 0.00012658 0.00379660 0.00132688    0.1341879 ----
   479   0   0   F    F -3.15D-02 0.00041156 0.00012658 0.00773056 0.00270178    0.1341852 ----
   480   0   0   F    T  1.79D+00 0.00062260 0.00013257 0.00418731 0.00146186    0.1341852 ----
   481   0   0   F    F -5.94D-02 0.00062260 0.00013257 0.00749527 0.00261672    0.1341826 ----
   482   0   0   F    T  4.12D+00 0.00030559 0.00008429 0.00168701 0.00059740    0.1341826 ----
   483   0   0   F    F -1.52D-01 0.00030559 0.00008429 0.00695012 0.00246117    0.1341805 ----
   484   0   0   F    T  1.86D+00 0.00040775 0.00011525 0.00308541 0.00112328    0.1341804 ----
   485   0   0   F    F  1.54D-01 0.00040775 0.00011525 0.00573496 0.00208788    0.1341780 ----
   486   0   0   F    T  2.37D+00 0.00045895 0.00010921 0.00273280 0.00101545    0.1341779 ----
   487   0   0   F    F -3.86D-01 0.00045895 0.00010921 0.00648530 0.00240981    0.1341770 ----
   488   0   0   F    T  1.48D+00 0.00032516 0.00010813 0.00261948 0.00100179    0.1341764 ----
   489   0   0   F    F  1.01D+00 0.00032516 0.00010813 0.00387131 0.00148053    0.1341742 ----
   490   0   0   F    T  3.01D+00 0.00029402 0.00010705 0.00257088 0.00098843    0.1341734 ----
   491   0   0   F    F -1.99D-01 0.00029402 0.00010705 0.00774004 0.00297581    0.1341712 ----
   492   0   0   F    T  1.91D+00 0.00062203 0.00012009 0.00328895 0.00124963    0.1341710 ----
   493   0   0   F    F  1.13D-01 0.00062203 0.00012009 0.00627355 0.00238362    0.1341684 ----
   494   0   0   F    T  1.96D+00 0.00060971 0.00012464 0.00358446 0.00135130    0.1341683 ----
   495   0   0   F    F  9.34D-02 0.00060971 0.00012464 0.00703607 0.00265252    0.1341655 ----
   496   0   0   F    T  2.33D+00 0.00039841 0.00011948 0.00335477 0.00124492    0.1341654 ----
   497   0   0   F    F -4.08D-01 0.00039841 0.00011948 0.00781527 0.00290016    0.1341645 ----
   498   0   0   F    T  2.25D+00 0.00027310 0.00009330 0.00214426 0.00076375    0.1341637 ----
   499   0   0   F    F -8.30D-02 0.00027310 0.00009330 0.00481673 0.00171562    0.1341622 ----
   500   0   0   F    T  2.13D+00 0.00048552 0.00009140 0.00221745 0.00073858    0.1341622 ----
   501   0   0   F    F -2.23D-01 0.00048552 0.00009140 0.00472357 0.00157330    0.1341611 ----
   502   0   0   F    T  2.06D+00 0.00031549 0.00008142 0.00191211 0.00059200    0.1341610 ----
   503   0   0   F    F  5.86D-01 0.00031549 0.00008142 0.00394768 0.00122222    0.1341593 ----
   504   0   0   F    T  3.01D+00 0.00031875 0.00008448 0.00218736 0.00064354    0.1341591 ----
   505   0   0   F    F -1.73D-01 0.00031875 0.00008448 0.00658798 0.00193825    0.1341576 ----
   506   0   0   F    T  2.15D+00 0.00039824 0.00009054 0.00257680 0.00074504    0.1341575 ----
   507   0   0   F    F -3.83D-01 0.00039824 0.00009054 0.00554618 0.00160360    0.1341570 ----
   508   0   0   F    T  1.99D+00 0.00028606 0.00007359 0.00173321 0.00049764    0.1341566 -+--
   509   0   0   F    T  2.69D+00 0.00020820 0.00006336 0.00128026 0.00036832    0.1341556 -+--
   510   0   0   F    F  8.08D-02 0.00020820 0.00006336 0.00343960 0.00098953    0.1341546 -+--
   511   0   0   F    T  2.10D+00 0.00033257 0.00007347 0.00174402 0.00050916    0.1341546 -+--
   512   0   0   F    F  4.34D-02 0.00033257 0.00007347 0.00366329 0.00106949    0.1341536 -+--
   513   0   0   F    T  1.74D+00 0.00037251 0.00008245 0.00220445 0.00063983    0.1341536 ----
   514   0   0   F    F -9.00D-02 0.00037251 0.00008245 0.00384460 0.00111587    0.1341527 ----
   515   0   0   F    T  2.16D+00 0.00019559 0.00007041 0.00165954 0.00047121    0.1341526 -+--
   516   0   0   F    F  5.26D-01 0.00019559 0.00007041 0.00357640 0.00101549    0.1341514 -+--
   517   0   0   F    T  1.34D+00 0.00060650 0.00010994 0.00410358 0.00115381    0.1341512 ----
   518   0   0   F    F  3.00D-01 0.00060650 0.00010994 0.00551256 0.00154998    0.1341495 ----
   519   0   0   F    T  3.21D+00 0.00039184 0.00008062 0.00228808 0.00062740    0.1341494 ----
   520   0   0   F    F -3.87D-01 0.00039184 0.00008062 0.00734862 0.00201502    0.1341487 ----
   521   0   0   F    T  2.41D+00 0.00021008 0.00007240 0.00195009 0.00051205    0.1341483 -+--
   522   0   0   F    F  1.47D-01 0.00021008 0.00007240 0.00470363 0.00123506    0.1341470 -+--
   523   0   0   F    T  1.47D+00 0.00034817 0.00009900 0.00374570 0.00096328    0.1341470 ----
   524   0   0   F    F  1.14D+00 0.00034817 0.00009900 0.00551017 0.00141705    0.1341451 ----
   525   0   0   F    T  2.10D+00 0.00039847 0.00012089 0.00565962 0.00144437    0.1341443 ----
   526   0   0   F    F -2.89D-01 0.00039847 0.00012089 0.01186764 0.00302870    0.1341428 ----
   527   0   0   F    T  1.56D+00 0.00036920 0.00011784 0.00542583 0.00137692    0.1341424 ----
   528   0   0   F    F  6.13D-01 0.00036920 0.00011784 0.00848797 0.00215400    0.1341398 ----
   529   0   0   F    T  3.12D+00 0.00029952 0.00010604 0.00438469 0.00111395    0.1341394 ----
   530   0   0   F    F -1.50D-01 0.00029952 0.00010604 0.01367386 0.00347391    0.1341369 ----
   531   0   0   F    T  2.59D+00 0.00035790 0.00010734 0.00443659 0.00114045    0.1341368 ----
   532   0   0   F    F -6.02D-02 0.00035790 0.00010734 0.01148221 0.00295158    0.1341344 ----
   533   0   0   F    T  1.70D+00 0.00063197 0.00012836 0.00630033 0.00163049    0.1341344 ----
   534   0   0   F    F  2.84D-01 0.00063197 0.00012836 0.01071815 0.00277379    0.1341314 ----
   535   0   0   F    T  1.69D+00 0.00053506 0.00014628 0.00811993 0.00211189    0.1341312 ----
   536   0   0   F    F  3.92D-02 0.00053506 0.00014628 0.01369597 0.00356214    0.1341280 ----
   537   0   0   F    T  2.80D+00 0.00038772 0.00011599 0.00499184 0.00132129    0.1341280 ----
   538   0   0   F    F -4.51D-01 0.00038772 0.00011599 0.01398539 0.00370180    0.1341274 ----
   539   0   0   F    T  2.10D+00 0.00044980 0.00009901 0.00357005 0.00096759    0.1341262 ----
   540   0   0   F    F -1.81D-02 0.00044980 0.00009901 0.00749496 0.00203136    0.1341244 ----
   541   0   0   F    T  2.48D+00 0.00037491 0.00008986 0.00289333 0.00080456    0.1341244 ----
   542   0   0   F    F -1.20D-01 0.00037491 0.00008986 0.00717301 0.00199462    0.1341229 ----
   543   0   0   F    T  2.21D+00 0.00041219 0.00008885 0.00280797 0.00079510    0.1341229 ----
   544   0   0   F    F  1.82D-02 0.00041219 0.00008885 0.00619637 0.00175455    0.1341213 ----
   545   0   0   F    T  2.15D+00 0.00024563 0.00009030 0.00290685 0.00082930    0.1341213 ----
   546   0   0   F    F  5.16D-02 0.00024563 0.00009030 0.00626169 0.00178640    0.1341197 ----
   547   0   0   F    T  1.92D+00 0.00030528 0.00009771 0.00340648 0.00097767    0.1341197 ----
   548   0   0   F    F -1.79D-01 0.00030528 0.00009771 0.00654543 0.00187857    0.1341185 ----
   549   0   0   F    T  1.69D+00 0.00032364 0.00009432 0.00316171 0.00091534    0.1341184 ----
   550   0   0   F    F  3.88D-01 0.00032364 0.00009432 0.00532759 0.00154238    0.1341167 ----
   551   0   0   F    T  4.47D+00 0.00018153 0.00006809 0.00159453 0.00047893    0.1341166 -+--
   552   0   0   F    F -3.29D-01 0.00018153 0.00006809 0.00712872 0.00214116    0.1341157 -+--
   553   0   0   F    T  2.52D+00 0.00025612 0.00007409 0.00183045 0.00057053    0.1341154 -+--
   554   0   0   F    F -3.96D-01 0.00025612 0.00007409 0.00460947 0.00143672    0.1341150 -+--
   555   0   0   F    T  1.74D+00 0.00023065 0.00006895 0.00152639 0.00049823    0.1341147 -+--
   556   0   0   F    F  1.58D-01 0.00023065 0.00006895 0.00265818 0.00086767    0.1341138 -+--
   557   0   0   F    T  1.95D+00 0.00025997 0.00006983 0.00158373 0.00051550    0.1341138 -+--
   558   0   0   F    F  4.44D-01 0.00025997 0.00006983 0.00308730 0.00100490    0.1341127 -+--
   559   0   0   F    T  1.99D+00 0.00051119 0.00008269 0.00224921 0.00072753    0.1341126 ----
   560   0   0   F    F -2.66D-01 0.00051119 0.00008269 0.00448621 0.00145112    0.1341119 ----
   561   0   0   F    T  2.78D+00 0.00028522 0.00005962 0.00119235 0.00038331    0.1341118 -+--
   562   0   0   F    F -1.96D-01 0.00028522 0.00005962 0.00331232 0.00106483    0.1341111 -+--
   563   0   0   F    T  2.10D+00 0.00022234 0.00006106 0.00128005 0.00040687    0.1341111 -+--
   564   0   0   F    F  2.72D-01 0.00022234 0.00006106 0.00269249 0.00085583    0.1341102 -+--
   565   0   0   F    T  1.56D+00 0.00033212 0.00007968 0.00217973 0.00069771    0.1341102 ----
   566   0   0   F    F  2.11D-01 0.00033212 0.00007968 0.00340123 0.00108870    0.1341092 ----
   567   0   0   F    T  2.05D+00 0.00025544 0.00007610 0.00198861 0.00064205    0.1341092 ----
   568   0   0   F    F -1.92D-01 0.00025544 0.00007610 0.00408223 0.00131801    0.1341084 ----
   569   0   0   F    T  2.14D+00 0.00023835 0.00006667 0.00152789 0.00049769    0.1341083 -+--
   570   0   0   F    F  1.19D-01 0.00023835 0.00006667 0.00326813 0.00106454    0.1341074 -+--
   571   0   0   F    T  2.90D+00 0.00017893 0.00006022 0.00121949 0.00041025    0.1341074 -+--
   572   0   0   F    F -1.57D-01 0.00017893 0.00006022 0.00353986 0.00119083    0.1341067 -+--
   573   0   0   F    T  2.40D+00 0.00027345 0.00006047 0.00128256 0.00041748    0.1341066 -+--
   574   0   0   F    F  2.63D-01 0.00027345 0.00006047 0.00308317 0.00100360    0.1341057 -+--
   575   0   0   F    T  1.96D+00 0.00028825 0.00007508 0.00202564 0.00064713    0.1341057 ----
   576   0   0   F    F -3.79D-01 0.00028825 0.00007508 0.00396884 0.00126792    0.1341053 ----
   577   0   0   F    T  2.24D+00 0.00016514 0.00005499 0.00107826 0.00035107    0.1341051 -+--
   578   0   0   F    F  1.21D-01 0.00016514 0.00005499 0.00241989 0.00078789    0.1341044 -+--
   579   0   0   F    T  2.44D+00 0.00029330 0.00005556 0.00112529 0.00036265    0.1341044 -+--
   580   0   0   F    F -1.08D-01 0.00029330 0.00005556 0.00274150 0.00088352    0.1341038 -+--
   581   0   0   F    T  1.74D+00 0.00039725 0.00006174 0.00139821 0.00045228    0.1341038 -+--
   582   0   0   F    F -4.39D-02 0.00039725 0.00006174 0.00243768 0.00078852    0.1341033 -+--
   583   0   0   F    T  3.57D+00 0.00013703 0.00004177 0.00066909 0.00021148    0.1341033 -+-+
   584   0   0   F    F -1.95D-01 0.00013703 0.00004177 0.00238532 0.00075393    0.1341029 -+--
   585   0   0   F    T  1.65D+00 0.00019831 0.00005472 0.00118323 0.00036710    0.1341028 -+--
   586   0   0   F    F  2.54D-01 0.00019831 0.00005472 0.00195681 0.00060710    0.1341023 -+--
   587   0   0   F    T  1.62D+00 0.00018512 0.00006165 0.00152029 0.00046990    0.1341023 -+--
   588   0   0   F    F  1.92D-01 0.00018512 0.00006165 0.00246253 0.00076113    0.1341017 -+--
   589   0   0   F    T  1.93D+00 0.00018166 0.00006142 0.00149313 0.00047039    0.1341017 -+--
   590   0   0   F    F  1.78D-01 0.00018166 0.00006142 0.00287895 0.00090698    0.1341009 -+--
   591   0   0   F    T  2.14D+00 0.00018463 0.00006303 0.00153831 0.00049894    0.1341009 -+--
   592   0   0   F    F  1.88D-01 0.00018463 0.00006303 0.00329455 0.00106857    0.1341000 -+--
   593   0   0   F    T  2.64D+00 0.00016603 0.00006159 0.00139215 0.00048022    0.1341000 -+--
   594   0   0   F    F -9.77D-02 0.00016603 0.00006159 0.00367989 0.00126937    0.1340992 -+--
   595   0   0   F    T  1.70D+00 0.00026072 0.00007269 0.00187472 0.00067297    0.1340992 -+--
   596   0   0   F    F  2.18D-01 0.00026072 0.00007269 0.00319084 0.00114541    0.1340983 -+--
   597   0   0   F    T  1.55D+00 0.00031272 0.00008392 0.00249151 0.00090134    0.1340983 ----
   598   0   0   F    F  3.29D-01 0.00031272 0.00008392 0.00385725 0.00139541    0.1340971 ----
   599   0   0   F    T  2.05D+00 0.00020052 0.00008388 0.00263708 0.00090487    0.1340970 ----
   600   0   0   F    F  6.49D-01 0.00020052 0.00008388 0.00540263 0.00185381    0.1340953 ----
   601   0   0   F    T  3.06D+00 0.00046413 0.00008788 0.00307233 0.00099806    0.1340950 ----
   602   0   0   F    F -4.47D-01 0.00046413 0.00008788 0.00940820 0.00305630    0.1340946 ----
   603   0   0   F    T  1.60D+00 0.00048158 0.00009028 0.00338636 0.00105838    0.1340938 ----
   604   0   0   F    F  7.35D-01 0.00048158 0.00009028 0.00540780 0.00169016    0.1340922 ----
   605   0   0   F    T  2.30D+00 0.00028931 0.00009893 0.00416165 0.00127465    0.1340919 ----
   606   0   0   F    F -7.27D-02 0.00028931 0.00009893 0.00957531 0.00293276    0.1340900 ----
   607   0   0   F    T  1.86D+00 0.00035949 0.00010580 0.00488884 0.00145883    0.1340900 ----
   608   0   0   F    F -1.85D-01 0.00035949 0.00010580 0.00911422 0.00271967    0.1340886 ----
   609   0   0   F    T  1.95D+00 0.00033564 0.00009338 0.00393980 0.00113737    0.1340886 ----
   610   0   0   F    F  2.25D-01 0.00033564 0.00009338 0.00767993 0.00221709    0.1340868 ----
   611   0   0   F    T  2.71D+00 0.00031328 0.00008753 0.00347876 0.00100033    0.1340867 ----
   612   0   0   F    F -2.83D-01 0.00031328 0.00008753 0.00944274 0.00271529    0.1340857 ----
   613   0   0   F    T  2.12D+00 0.00028302 0.00008369 0.00318035 0.00091728    0.1340854 ----
   614   0   0   F    F  3.28D-01 0.00028302 0.00008369 0.00674692 0.00194595    0.1340838 ----
   615   0   0   F    T  3.43D+00 0.00026245 0.00007570 0.00257459 0.00075399    0.1340837 ----
   616   0   0   T    F  3.69D-01 0.00026245 0.00007570 0.00882139 0.00258342    0.1340849 ----
   617   0   0   F    T  1.85D+00 0.00018884 0.00006232 0.00171502 0.00051550    0.1340831 -+--
   618   0   0   F    T  2.16D+00 0.00017702 0.00005750 0.00144262 0.00044066    0.1340825 -+--
   619   0   0   F    F  3.33D-01 0.00017702 0.00005750 0.00312003 0.00095303    0.1340817 -+--
   620   0   0   F    T  2.19D+00 0.00026842 0.00006544 0.00189382 0.00057979    0.1340816 -+--
   621   0   0   F    F  2.65D-01 0.00026842 0.00006544 0.00414805 0.00126993    0.1340807 -+--
   622   0   0   F    T  2.64D+00 0.00041534 0.00006703 0.00196389 0.00060950    0.1340806 -+--
   623   0   0   F    F -4.43D-01 0.00041534 0.00006703 0.00517624 0.00160645    0.1340804 -+--
   624   0   0   F    T  1.92D+00 0.00025605 0.00005831 0.00147157 0.00046528    0.1340800 -+--
   625   0   0   F    F  5.45D-01 0.00025605 0.00005831 0.00282983 0.00089474    0.1340793 -+--
   626   0   0   F    T  2.75D+00 0.00023319 0.00006046 0.00158439 0.00050354    0.1340792 -+--
   627   0   0   F    F -3.78D-01 0.00023319 0.00006046 0.00435005 0.00138251    0.1340788 -+--
   628   0   0   F    T  1.45D+00 0.00026386 0.00006537 0.00182229 0.00059181    0.1340786 -+--
   629   0   0   F    F  3.06D-01 0.00026386 0.00006537 0.00264717 0.00085970    0.1340779 -+--
   630   0   0   F    T  2.80D+00 0.00021004 0.00005359 0.00120351 0.00040071    0.1340779 -+--
   631   0   0   F    F -1.90D-01 0.00021004 0.00005359 0.00337185 0.00112265    0.1340774 -+--
   632   0   0   F    T  2.59D+00 0.00015152 0.00004993 0.00103932 0.00035117    0.1340773 -+--
   633   0   0   F    F -1.70D-01 0.00015152 0.00004993 0.00269081 0.00090918    0.1340769 -+--
   634   0   0   F    T  1.99D+00 0.00019651 0.00005165 0.00110353 0.00037910    0.1340769 -+--
   635   0   0   F    T  1.89D+00 0.00019916 0.00005233 0.00114754 0.00039837    0.1340764 -+--
   636   0   0   F    F -2.08D-01 0.00019916 0.00005233 0.00217453 0.00075489    0.1340761 -+--
   637   0   0   F    T  2.23D+00 0.00014407 0.00004345 0.00076638 0.00026745    0.1340761 -+-+
   638   0   0   F    F  7.45D-02 0.00014407 0.00004345 0.00171285 0.00059774    0.1340757 -+--
   639   0   0   F    T  2.35D+00 0.00016597 0.00004327 0.00074930 0.00027292    0.1340757 -+-+
[...]
    Z6        1.87302  -0.00004   0.00000  -0.00004  -0.00004   1.87298
    X7       -2.84019  -0.00003   0.00000  -0.00003  -0.00003  -2.84022
    Y7       -3.70280   0.00002   0.00000   0.00002   0.00002  -3.70279
    Z7        0.44219   0.00001   0.00000   0.00001   0.00001   0.44219
    X8       -2.97501  -0.00001   0.00000  -0.00001  -0.00001  -2.97502
    Y8       -4.71816  -0.00001   0.00000  -0.00001  -0.00001  -4.71817
    Z8       -2.17956  -0.00003   0.00000  -0.00003  -0.00003  -2.17959
    X9       -4.51506  -0.00001   0.00000  -0.00001  -0.00001  -4.51507
    Y9        0.66956   0.00004   0.00000   0.00004   0.00004   0.66959
    Z9        1.06883   0.00003   0.00000   0.00003   0.00003   1.06886
   X10       -4.40444  -0.00001   0.00000  -0.00001  -0.00001  -4.40445
   Y10        1.67607   0.00001   0.00000   0.00001   0.00001   1.67608
   Z10        3.69513  -0.00001   0.00000  -0.00001  -0.00001   3.69512
   X11       -0.69947   0.00000   0.00000   0.00000   0.00000  -0.69947
   Y11        3.13771   0.00000   0.00000   0.00000   0.00000   3.13771
   Z11       -4.86302  -0.00002   0.00000  -0.00002  -0.00002  -4.86304
   X12        3.49824   0.00001   0.00000   0.00001   0.00001   3.49825
   Y12        4.39478   0.00002   0.00000   0.00002   0.00002   4.39481
   Z12       -3.68098   0.00001   0.00000   0.00001   0.00001  -3.68097
   X13        4.35863   0.00005   0.00000   0.00005   0.00005   4.35868
   Y13        3.91810   0.00003   0.00000   0.00003   0.00003   3.91813
   Z13       -6.14574   0.00000   0.00000   0.00000   0.00000  -6.14574
   X14        0.12198  -0.00003   0.00000  -0.00003  -0.00003   0.12195
   Y14        2.61911  -0.00003   0.00000  -0.00003  -0.00003   2.61909
   Z14       -7.33163  -0.00003   0.00000  -0.00003  -0.00003  -7.33166
   X15        2.61728   0.00002   0.00000   0.00002   0.00002   2.61730
   Y15        3.20637  -0.00001   0.00000  -0.00001  -0.00001   3.20636
   Z15       -8.01823  -0.00003   0.00000  -0.00003  -0.00003  -8.01826
   X16        6.51093   0.00000   0.00000   0.00000   0.00000   6.51093
   Y16       -0.27252  -0.00001   0.00000  -0.00001  -0.00001  -0.27253
   Z16        1.62641   0.00002   0.00000   0.00002   0.00002   1.62643
   X17        3.32349   0.00004   0.00000   0.00004   0.00004   3.32353
   Y17       -2.05219   0.00004   0.00000   0.00004   0.00004  -2.05216
   Z17        4.32298   0.00001   0.00000   0.00001   0.00001   4.32299
   X18        4.34493  -0.00001   0.00000  -0.00001  -0.00001   4.34493
   Y18       -0.77998   0.00001   0.00000   0.00001   0.00001  -0.77997
   Z18        6.41490   0.00002   0.00000   0.00002   0.00002   6.41492
   X19        7.58054   0.00001   0.00000   0.00001   0.00001   7.58055
   Y19        1.00133   0.00000   0.00000   0.00000   0.00000   1.00132
   Z19        3.69417   0.00000   0.00000   0.00000   0.00000   3.69417
   X20        6.59882   0.00004   0.00000   0.00004   0.00004   6.59886
   Y20        0.59091   0.00003   0.00000   0.00003   0.00003   0.59094
   Z20        6.12586  -0.00001   0.00000  -0.00001  -0.00001   6.12585
   X21       -1.37019  -0.00002   0.00000  -0.00002  -0.00002  -1.37022
   Y21       -6.66633   0.00001   0.00000   0.00001   0.00001  -6.66633
   Z21       -3.02134  -0.00001   0.00000  -0.00001  -0.00001  -3.02135
   X22       -4.64694   0.00001   0.00000   0.00001   0.00001  -4.64693
   Y22       -3.69586  -0.00001   0.00000  -0.00001  -0.00001  -3.69587
   Z22       -3.98154   0.00002   0.00000   0.00002   0.00002  -3.98153
   X23       -3.93931   0.00000   0.00000   0.00000   0.00000  -3.93931
   Y23       -3.69261   0.00000   0.00000   0.00000   0.00000  -3.69260
   Z23       -6.53882   0.00000   0.00000   0.00000   0.00000  -6.53882
   X24       -0.62599  -0.00001   0.00000  -0.00001  -0.00001  -0.62600
   Y24       -6.71303  -0.00001   0.00000  -0.00001  -0.00001  -6.71304
   Z24       -5.56836  -0.00001   0.00000  -0.00001  -0.00001  -5.56836
   X25       -2.03949   0.00001   0.00000   0.00001   0.00001  -2.03949
   Y25       -5.35513   0.00002   0.00000   0.00002   0.00002  -5.35511
   Z25       -7.35867  -0.00004   0.00000  -0.00004  -0.00004  -7.35871
   X26       -4.18683  -0.00001   0.00000  -0.00001  -0.00001  -4.18684
   Y26        0.05577  -0.00003   0.00000  -0.00003  -0.00003   0.05574
   Z26        5.79619   0.00001   0.00000   0.00001   0.00001   5.79620
   X27       -4.40014  -0.00002   0.00000  -0.00002  -0.00002  -4.40016
   Y27        4.28740   0.00002   0.00000   0.00002   0.00002   4.28742
   Z27        4.20537   0.00000   0.00000   0.00000   0.00000   4.20536
   X28       -3.08692   0.00001   0.00000   0.00001   0.00001  -3.08691
   Y28        5.18361  -0.00001   0.00000  -0.00001  -0.00001   5.18360
   Z28        6.33037   0.00003   0.00000   0.00003   0.00003   6.33040
   X29       -2.85810   0.00000   0.00000   0.00000   0.00000  -2.85810
   Y29        0.89223  -0.00001   0.00000  -0.00001  -0.00001   0.89222
   Z29        7.93515   0.00001   0.00000   0.00001   0.00001   7.93516
   X30       -2.47574   0.00002   0.00000   0.00002   0.00002  -2.47572
   Y30        3.49537   0.00000   0.00000   0.00000   0.00000   3.49537
   Z30        8.28580  -0.00002   0.00000  -0.00002  -0.00002   8.28578
   X31       -0.96385  -0.00002   0.00000  -0.00002  -0.00002  -0.96387
   Y31        3.99464  -0.00001   0.00000  -0.00001  -0.00001   3.99463
   Z31        0.34015   0.00003   0.00000   0.00003   0.00003   0.34018
   X32        2.14072   0.00000   0.00000   0.00000   0.00000   2.14072
   Y32        3.29118   0.00001   0.00000   0.00001   0.00001   3.29119
   Z32        0.94936   0.00004   0.00000   0.00004   0.00004   0.94940
   X33        1.97545  -0.00001   0.00000  -0.00001  -0.00001   1.97544
   Y33       -3.57566   0.00003   0.00000   0.00003   0.00003  -3.57563
   Z33       -0.55164   0.00000   0.00000   0.00000   0.00000  -0.55164
   X34        3.30924  -0.00002   0.00000  -0.00002  -0.00002   3.30923
   Y34       -1.04127  -0.00004   0.00000  -0.00004  -0.00004  -1.04131
   Z34       -2.06899   0.00000   0.00000   0.00000   0.00000  -2.06900
   X35       -1.45248   0.00000   0.00000   0.00000   0.00000  -1.45248
   Y35       -4.71385   0.00001   0.00000   0.00001   0.00001  -4.71384
   Z35        1.58528   0.00001   0.00000   0.00001   0.00001   1.58529
   X36       -4.64140   0.00000   0.00000   0.00000   0.00000  -4.64140
   Y36       -4.16712  -0.00002   0.00000  -0.00002  -0.00002  -4.16713
   Z36        1.34122  -0.00003   0.00000  -0.00003  -0.00003   1.34119
   X37       -4.68955   0.00000   0.00000   0.00000   0.00000  -4.68955
   Y37        2.18056  -0.00001   0.00000  -0.00001  -0.00001   2.18055
   Z37       -0.32442  -0.00002   0.00000  -0.00002  -0.00002  -0.32444
   X38       -6.30589  -0.00002   0.00000  -0.00002  -0.00002  -6.30591
   Y38       -0.34802   0.00000   0.00000   0.00000   0.00000  -0.34802
   Z38        0.90945  -0.00001   0.00000  -0.00001  -0.00001   0.90944
   X39       -2.58723   0.00002   0.00000   0.00002   0.00002  -2.58722
   Y39        3.30488   0.00000   0.00000   0.00000   0.00000   3.30488
   Z39       -4.49097   0.00000   0.00000   0.00000   0.00000  -4.49097
   X40        4.58631  -0.00003   0.00000  -0.00003  -0.00003   4.58628
   Y40        5.42747   0.00000   0.00000   0.00000   0.00000   5.42747
   Z40       -2.46257  -0.00002   0.00000  -0.00002  -0.00002  -2.46260
   X41        6.23713  -0.00001   0.00000  -0.00001  -0.00001   6.23712
   Y41        4.07412  -0.00001   0.00000  -0.00001  -0.00001   4.07411
   Z41       -6.56867   0.00001   0.00000   0.00001   0.00001  -6.56867
   X42       -1.07879   0.00001   0.00000   0.00001   0.00001  -1.07877
   Y42        1.80773   0.00000   0.00000   0.00000   0.00000   1.80773
   Z42       -8.60894   0.00000   0.00000   0.00000   0.00000  -8.60894
   X43        3.16078  -0.00001   0.00000  -0.00001  -0.00001   3.16077
   Y43        3.12315   0.00001   0.00000   0.00001   0.00001   3.12317
   Z43       -9.87025   0.00002   0.00000   0.00002   0.00002  -9.87024
   X44        7.50985   0.00000   0.00000   0.00000   0.00000   7.50984
   Y44       -0.45084   0.00000   0.00000   0.00000   0.00000  -0.45084
   Z44       -0.01825   0.00000   0.00000   0.00000   0.00000  -0.01825
   X45        2.07837   0.00000   0.00000   0.00000   0.00000   2.07837
   Y45       -3.50357  -0.00004   0.00000  -0.00004  -0.00004  -3.50360
   Z45        4.59240   0.00000   0.00000   0.00000   0.00000   4.59240
   X46        3.44862  -0.00001   0.00000  -0.00001  -0.00001   3.44860
   Y46       -0.83876   0.00002   0.00000   0.00002   0.00002  -0.83874
   Z46        8.12507   0.00001   0.00000   0.00001   0.00001   8.12507
   X47        9.05010  -0.00001   0.00000  -0.00001  -0.00001   9.05009
   Y47        2.22686  -0.00001   0.00000  -0.00001  -0.00001   2.22686
   Z47        3.42892   0.00000   0.00000   0.00000   0.00000   3.42892
   X48        7.52289   0.00000   0.00000   0.00000   0.00000   7.52289
   Y48        1.27974  -0.00002   0.00000  -0.00002  -0.00002   1.27972
   Z48        7.67631  -0.00001   0.00000  -0.00001  -0.00001   7.67630
   X49       -0.78749   0.00002   0.00000   0.00002   0.00002  -0.78748
   Y49       -8.05920   0.00000   0.00000   0.00000   0.00000  -8.05921
   Z49       -1.81541   0.00001   0.00000   0.00001   0.00001  -1.81541
   X50       -6.37322  -0.00004   0.00000  -0.00004  -0.00004  -6.37326
   Y50       -3.00799  -0.00001   0.00000  -0.00001  -0.00001  -3.00799
   Z50       -3.45326   0.00001   0.00000   0.00001   0.00001  -3.45324
   X51       -4.78495  -0.00002   0.00000  -0.00002  -0.00002  -4.78497
   Y51       -2.48197   0.00002   0.00000   0.00002   0.00002  -2.48196
   Z51       -7.78398  -0.00001   0.00000  -0.00001  -0.00001  -7.78399
   X52        0.93683   0.00003   0.00000   0.00003   0.00003   0.93686
   Y52       -7.71096  -0.00003   0.00000  -0.00003  -0.00003  -7.71099
   Z52       -6.10932  -0.00002   0.00000  -0.00002  -0.00002  -6.10934
   X53       -1.69092  -0.00001   0.00000  -0.00001  -0.00001  -1.69093
   Y53       -5.57831  -0.00003   0.00000  -0.00003  -0.00003  -5.57834
   Z53       -9.24568   0.00002   0.00000   0.00002   0.00002  -9.24566
   X54       -5.02186   0.00000   0.00000   0.00000   0.00000  -5.02187
   Y54       -1.68649   0.00000   0.00000   0.00000   0.00000  -1.68649
   Z54        5.79441   0.00000   0.00000   0.00000   0.00000   5.79441
   X55       -5.37502   0.00001   0.00000   0.00001   0.00001  -5.37501
   Y55        5.51764   0.00000   0.00000   0.00000   0.00000   5.51764
   Z55        3.07830   0.00001   0.00000   0.00001   0.00001   3.07832
   X56       -2.56759   0.00000   0.00000   0.00000   0.00000  -2.56759
   Y56        7.04064   0.00002   0.00000   0.00002   0.00002   7.04067
   Z56        6.44386   0.00002   0.00000   0.00002   0.00002   6.44388
   X57       -2.16271   0.00000   0.00000   0.00000   0.00000  -2.16271
   Y57       -0.38009  -0.00002   0.00000  -0.00002  -0.00002  -0.38010
   Z57        9.21144   0.00000   0.00000   0.00000   0.00000   9.21144
   X58       -1.76120  -0.00003   0.00000  -0.00003  -0.00003  -1.76123
   Y58        4.15688   0.00002   0.00000   0.00002   0.00002   4.15690
   Z58        9.95421   0.00002   0.00000   0.00002   0.00002   9.95423
         Item               Value     Threshold  Converged?
 Maximum Force            0.000048     0.000450     YES
 RMS     Force            0.000019     0.000300     YES
 Maximum Displacement     0.000048     0.001800     YES
 RMS     Displacement     0.000019     0.001200     YES
 Predicted change in Energy=-2.995721D-08
 Optimization completed.
    -- Stationary point found.
 GradGradGradGradGradGradGradGradGradGradGradGradGradGradGradGradGradGrad

 Stoichiometry    C30H28
 Framework group  C1[X(C30H28)]
 Deg. of freedom   168
 Full point group                 C1
 Largest Abelian subgroup         C1      NOp   1
 Largest concise Abelian subgroup C1      NOp   1
                         Standard orientation:                         
 ---------------------------------------------------------------------
 Center     Atomic     Atomic              Coordinates (Angstroms)
 Number     Number      Type              X           Y           Z
 ---------------------------------------------------------------------
    1          6      10061002        0.000278   -1.338164   -0.000277
    2          6      10061002       -0.000217    0.034496    0.000345
    3          6      10061003        0.294821    0.851068    1.207525
    4          6      10061000       -0.924771    1.518715    1.738947
    5          6      10061003       -0.295592    0.851756   -1.206217
    6          6      10061000        0.924110    1.518982   -1.738046
    7          6      10061003       -0.446003   -2.137125   -1.168065
    8          6      10061000       -1.929332   -2.144603   -1.303152
    9          6      10061003        0.446990   -2.137829    1.166783
   10          6      10061000        1.930281   -2.144190    1.302453
   11          6      10061000       -2.027096    0.770059    2.195924
   12          6      10061000       -1.062901    2.920353    1.732628
   13          6      10061000       -2.344397    3.482503    1.614881
   14          6      10061000       -3.318417    1.305567    2.067477
   15          6      10061000       -3.472235    2.689061    1.881832
   16          6      10061000        1.061683    2.920669   -1.733753
   17          6      10061000        2.026809    0.770086   -2.193836
   18          6      10061000        3.317909    1.306868   -2.068293
   19          6      10061000        2.342857    3.483312   -1.615035
   20          6      10061000        3.471056    2.690365   -1.882027
   21          6      10061000       -2.575261   -1.676128   -2.463219
   22          6      10061000       -2.761732   -2.568108   -0.248413
   23          6      10061000       -4.025535   -1.975191   -0.097511
   24          6      10061000       -3.839703   -1.076537   -2.344838
   25          6      10061000       -4.605435   -1.310487   -1.190582
   26          6      10061000        2.763283   -2.567714    0.248247
   27          6      10061000        2.575444   -1.675116    2.462698
   28          6      10061000        3.840105   -1.075823    2.345074
   29          6      10061000        4.026825   -1.974180    0.097652
   30          6      10061000        4.606168   -1.309260    1.190900
   31          1      10011000        0.722483    0.299754    2.037701
   32          1      10011000        1.059595    1.592675    0.962419
   33          1      10011000       -0.724163    0.300876   -2.036305
   34          1      10011000       -1.059916    1.593683   -0.960443
   35          1      10011000        0.042348   -1.783055   -2.077766
   36          1      10011000       -0.136733   -3.183570   -1.100761
   37          1      10011000       -0.042036   -1.785012    2.076627
   38          1      10011000        0.138974   -3.184538    1.098413
   39          1      10011000       -1.894802   -0.140937    2.639883
   40          1      10011000       -0.246617    3.527832    1.835154
   41          1      10011000       -2.454994    4.458087    1.330158
   42          1      10011000       -4.136576    0.693560    2.099929
   43          1      10011000       -4.398844    3.116421    1.944351
   44          1      10011000        0.245453    3.527659   -1.839167
   45          1      10011000        1.894985   -0.142515   -2.634427
   46          1      10011000        4.136578    0.695767   -2.103834
   47          1      10011000        2.452952    4.458652   -1.329316
   48          1      10011000        4.397494    3.118157   -1.944108
   49          1      10011000       -2.146100   -1.790851   -3.384222
   50          1      10011000       -2.466326   -3.313728    0.385569
   51          1      10011000       -4.512798   -2.019093    0.799974
   52          1      10011000       -4.194432   -0.469662   -3.086882
   53          1      10011000       -5.578829   -1.001106   -1.147080
   54          1      10011000        2.468651   -3.314077   -0.385323
   55          1      10011000        2.145337   -1.788901    3.383420
   56          1      10011000        4.194769   -0.469492    3.087640
   57          1      10011000        4.514279   -2.017786   -0.799757
   58          1      10011000        5.579309   -0.999232    1.147553
 ---------------------------------------------------------------------
 Rotational constants (GHZ):      0.1925055      0.1322883      0.1158166
 1|1|UNPC-UNK|FOpt|Dreiding|ZDO|C30H28|PCUSER|02-Apr-2008|0||# opt drei
 ding||tetraBn-ethene-C1-C2-syn-f||0,1|C,-1.2202049996,-0.5030713723,0.
 2505919676|C,0.0263899138,0.0112082476,-0.0057575336|C,0.2967489752,1.
 4666714495,-0.1459452898|C,0.5865575658,1.8451406393,-1.5560303769|C,1
 .239880713,-0.832163185,-0.170424711|C,2.162813671,-0.7112396612,0.991
 1593903|C,-1.5029615078,-1.9594389716,0.2339943292|C,-1.5743094588,-2.
 4967401548,-1.1533723618|C,-2.389267545,0.3543135142,0.5656001224|C,-2
 .3307315734,0.8869381667,1.9553785714|C,-0.3701422572,1.6604056382,-2.
 573397144|C,1.8511897961,2.3256182182,-1.9478907427|C,2.3064880271,2.0
 733709391,-3.2521858404|C,0.0645508639,1.3859753917,-3.879730211|C,1.3
 850032801,1.6967360867,-4.2430659941|C,3.4454368655,-0.1442125288,0.86
 06610858|C,1.7587172332,-1.0859725098,2.2876226872|C,2.2992396504,-0.4
 127498962,3.3946192838|C,4.0114481164,0.5298791719,1.9548722543|C,3.49
 19435373,0.3126985999,3.2416629916|C,-0.7250745583,-3.5276725053,-1.59
 88225246|C,-2.459054724,-1.9557656455,-2.1069413522|C,-2.0845929422,-1
 .9540440326,-3.4601947246|C,-0.3312600681,-3.5523816006,-2.9466490279|
 C,-1.0792534573,-2.8338120484,-3.8940386689|C,-2.2155761411,0.02951100
 11,3.0672111692|C,-2.328456299,2.2687946438,2.2253839348|C,-1.63352719
 87,2.7430471274,3.3498891712|C,-1.5124423484,0.4721468216,4.1991024276
 |C,-1.3101025547,1.8496715857,4.384654856|H,-0.5100479909,2.1138740719
 ,0.1800013967|H,1.1328210315,1.7416173539,0.5023799136|H,1.0453627915,
 -1.8921586456,-0.2919140254|H,1.7511769944,-0.5510178682,-1.0948635653
 |H,-0.7686192878,-2.4944603164,0.838893684|H,-2.4561228154,-2.20514294
 76,0.7097439226|H,-2.4816028084,1.1539019594,-0.1716745978|H,-3.336934
 7605,-0.1841652547,0.4812593682|H,-1.3691056347,1.7488688933,-2.376520
 8048|H,2.4269695594,2.87209091,-1.3031378129|H,3.300549216,2.155930437
 7,-3.4759930082|H,-0.5708697162,0.9566105819,-4.5556567317|H,1.6726104
 691,1.6527015986,-5.2231128149|H,3.974038986,-0.2385767957,-0.00965799
 77|H,1.0998284704,-1.8540071093,2.4301915383|H,1.824928738,-0.44385470
 94,4.2995994029|H,4.7891081157,1.1784056329,1.8145053886|H,3.980941267
 3,0.6772076568,4.0621280887|H,-0.4167235982,-4.2647459196,-0.960676085
 1|H,-3.3725616285,-1.5917582276,-1.8273853032|H,-2.5320858925,-1.31340
 40374,-4.1191049318|H,0.4957486242,-4.0804624363,-3.2329106112|H,-0.89
 47983155,-2.9519167758,-4.8926038475|H,-2.6574558042,-0.8924537128,3.0
 662712878|H,-2.844339063,2.9198099587,1.6289676971|H,-1.3587098521,3.7
 257466347,3.409942307|H,-1.1444557121,-0.2011328204,4.8744817279|H,-0.
 9319866133,2.1997247758,5.2675426569||Version=IA32W-G03RevD.01|HF=0.13
 40679|RMSD=0.000e+000|RMSF=1.856e-005|Thermal=0.|Dipole=0.,0.,0.|PG=C0
 1 [X(C30H28)]||@


 MODELS ARE TO BE USED, NOT BELIEVED.

    -- PARAPHRASED BY H. THIEL IN "PRINCIPLES OF ECONOMETRICS"
 Job cpu time:  0 days  0 hours  0 minutes  8.0 seconds.
 File lengths (MBytes):  RWF=     11 Int=      0 D2E=      0 Chk=      4 Scr=      1
 Normal termination of Gaussian 03 at Wed Apr 02 20:34:03 2008.
