 Entering Link 1 = C:\G03W\l1.exe PID=      1404.
  
 Copyright (c) 1988,1990,1992,1993,1995,1998,2003,2004, Gaussian, Inc.
                  All Rights Reserved.
  
 This is the Gaussian(R) 03 program.  It is based on the
 the Gaussian(R) 98 system (copyright 1998, Gaussian, Inc.),
 the Gaussian(R) 94 system (copyright 1995, Gaussian, Inc.),
 the Gaussian 92(TM) system (copyright 1992, Gaussian, Inc.),
 the Gaussian 90(TM) system (copyright 1990, Gaussian, Inc.),
 the Gaussian 88(TM) system (copyright 1988, Gaussian, Inc.),
 the Gaussian 86(TM) system (copyright 1986, Carnegie Mellon
 University), and the Gaussian 82(TM) system (copyright 1983,
 Carnegie Mellon University). Gaussian is a federally registered
 trademark of Gaussian, Inc.
  
 This software contains proprietary and confidential information,
 including trade secrets, belonging to Gaussian, Inc.
  
 This software is provided under written license and may be
 used, copied, transmitted, or stored only in accord with that
 written license.
  
 The following legend is applicable only to US Government
 contracts under FAR:
  
                    RESTRICTED RIGHTS LEGEND
  
 Use, reproduction and disclosure by the US Government is
 subject to restrictions as set forth in subparagraphs (a)
 and (c) of the Commercial Computer Software - Restricted
 Rights clause in FAR 52.227-19.
  
 Gaussian, Inc.
 340 Quinnipiac St., Bldg. 40, Wallingford CT 06492
  
  
 ---------------------------------------------------------------
 Warning -- This program may not be used in any manner that
 competes with the business of Gaussian, Inc. or will provide
 assistance to any competitor of Gaussian, Inc.  The licensee
 of this program is prohibited from giving any competitor of
 Gaussian, Inc. access to this program.  By using this program,
 the user acknowledges that Gaussian, Inc. is engaged in the
 business of creating and licensing software in the field of
 computational chemistry and represents and warrants to the
 licensee that it is not a competitor of Gaussian, Inc. and that
 it will not use this program in any manner prohibited above.
 ---------------------------------------------------------------
  

 Cite this work as:
 Gaussian 03, Revision D.01,
 M. J. Frisch, G. W. Trucks, H. B. Schlegel, G. E. Scuseria, 
 M. A. Robb, J. R. Cheeseman, J. A. Montgomery, Jr., T. Vreven, 
 K. N. Kudin, J. C. Burant, J. M. Millam, S. S. Iyengar, J. Tomasi, 
 V. Barone, B. Mennucci, M. Cossi, G. Scalmani, N. Rega, 
 G. A. Petersson, H. Nakatsuji, M. Hada, M. Ehara, K. Toyota, 
 R. Fukuda, J. Hasegawa, M. Ishida, T. Nakajima, Y. Honda, O. Kitao, 
 H. Nakai, M. Klene, X. Li, J. E. Knox, H. P. Hratchian, J. B. Cross, 
 V. Bakken, C. Adamo, J. Jaramillo, R. Gomperts, R. E. Stratmann, 
 O. Yazyev, A. J. Austin, R. Cammi, C. Pomelli, J. W. Ochterski, 
 P. Y. Ayala, K. Morokuma, G. A. Voth, P. Salvador, J. J. Dannenberg, 
 V. G. Zakrzewski, S. Dapprich, A. D. Daniels, M. C. Strain, 
 O. Farkas, D. K. Malick, A. D. Rabuck, K. Raghavachari, 
 J. B. Foresman, J. V. Ortiz, Q. Cui, A. G. Baboul, S. Clifford, 
 J. Cioslowski, B. B. Stefanov, G. Liu, A. Liashenko, P. Piskorz, 
 I. Komaromi, R. L. Martin, D. J. Fox, T. Keith, M. A. Al-Laham, 
 C. Y. Peng, A. Nanayakkara, M. Challacombe, P. M. W. Gill, 
 B. Johnson, W. Chen, M. W. Wong, C. Gonzalez, and J. A. Pople, 
 Gaussian, Inc., Wallingford CT, 2004.
 
 ******************************************
 Gaussian 03:  IA32W-G03RevD.01 13-Oct-2005
                13-Dec-2007 
 ******************************************
 ---------
 # opt uff
 ---------
 1/6=10,10=10,14=-1,18=4000020,38=1,56=1,64=2/1,3;
 2/9=110,17=6,18=5,40=1/2;
 3/5=30,11=9,16=1,25=1,30=1/1;
 4/20=10,22=1001,24=3/2;
 7/44=-1/16;
 1/6=10,10=10,14=-1,18=4000020,64=2/3(2);
 2/9=110/2;
 99//99;
 2/9=110/2;
 3/5=30,11=9,16=1,25=1,30=1/1;
 4/16=2,20=10,22=1001,24=3/2;
 7/44=-1/16;
 1/6=10,10=10,14=-1,18=4000020,64=2/3(-4);
 2/9=110/2;
 99//99;
 ----------------
 3-me-histamine-t
 ----------------
 Symbolic Z-matrix:
 Charge =  1 Multiplicity = 1
 C                     1.03891   0.32333  -0.20267 
 C                    -0.22709  -0.05067  -0.42067 
 N                     1.87691  -0.64167  -0.61167 
 C                     1.01891  -1.56767  -1.06167 
 N                    -0.29309  -1.27867  -0.98067 
 C                    -1.44609   0.76433  -0.09367 
 C                    -1.71309   0.76633   1.41533 
 N                    -2.94509   1.59133   1.62633 
 H                     1.42291   1.25733   0.24033 
 H                    -1.29109   1.80633  -0.45967 
 H                    -2.32509   0.34733  -0.63967 
 H                    -1.90009  -0.26367   1.79833 
 H                    -0.87209   1.22733   1.98333 
 H                    -3.20809   1.64933   2.63333 
 H                    -2.82209   2.56933   1.28833 
 H                    -3.76809   1.19933   1.12033 
 C                     3.30591  -0.70267  -0.51367 
 H                     1.35791  -2.52967  -1.48067 
 H                     3.59591  -1.10067   0.48533 
 H                     3.72491  -1.36867  -1.30267 
 H                     3.74891   0.31133  -0.64267 
 
 I=    1 IAn=  6 Valence= 6.
          JB=  1 J=    2 IAn=  6 IBT= 2 Dist= 1.34D+00
          JB=  2 J=    3 IAn=  7 IBT=12 Dist= 1.34D+00
          JB=  3 J=    9 IAn=  1 IBT= 1 Dist= 1.10D+00
 I=    2 IAn=  6 Valence= 6.
          JB=  1 J=    1 IAn=  6 IBT= 2 Dist= 1.34D+00
          JB=  2 J=    5 IAn=  7 IBT=12 Dist= 1.35D+00
          JB=  3 J=    6 IAn=  6 IBT= 1 Dist= 1.50D+00
 I=    3 IAn=  7 Valence=36.
          JB=  1 J=    1 IAn=  6 IBT=12 Dist= 1.34D+00
          JB=  2 J=    4 IAn=  6 IBT=12 Dist= 1.34D+00
          JB=  3 J=   17 IAn=  6 IBT= 1 Dist= 1.43D+00
 I=    4 IAn=  6 Valence=36.
          JB=  1 J=    3 IAn=  7 IBT=12 Dist= 1.34D+00
          JB=  2 J=    5 IAn=  7 IBT=12 Dist= 1.35D+00
          JB=  3 J=   18 IAn=  1 IBT= 1 Dist= 1.10D+00
 I=    5 IAn=  7 Valence=24.
          JB=  1 J=    2 IAn=  6 IBT=12 Dist= 1.35D+00
          JB=  2 J=    4 IAn=  6 IBT=12 Dist= 1.35D+00
 I=    8 IAn=  7 Valence= 4.
          JB=  1 J=    7 IAn=  6 IBT= 1 Dist= 1.50D+00
          JB=  2 J=   14 IAn=  1 IBT= 1 Dist= 1.04D+00
          JB=  3 J=   15 IAn=  1 IBT= 1 Dist= 1.04D+00
          JB=  4 J=   16 IAn=  1 IBT= 1 Dist= 1.04D+00
 Include all MM classes
 MMInit generated parameter data with length LenPar=  2280.

 GradGradGradGradGradGradGradGradGradGradGradGradGradGradGradGradGradGrad
 Berny optimization.
 Initialization pass.
 No Z-matrix variables, so optimization will use Cartesian coordinates.
 Trust Radius=1.00D-01 FncErr=1.00D-07 GrdErr=1.00D-07
 Number of steps in this run=   2 maximum allowed number of steps=   2.
 GradGradGradGradGradGradGradGradGradGradGradGradGradGradGradGradGradGrad

                          Input orientation:                          
 ---------------------------------------------------------------------
 Center     Atomic     Atomic              Coordinates (Angstroms)
 Number     Number      Type              X           Y           Z
 ---------------------------------------------------------------------
    1          6      10061000        1.038913    0.323333   -0.202667
    2          6      10061000       -0.227087   -0.050667   -0.420667
    3          7      10071000        1.876913   -0.641667   -0.611667
    4          6      10061000        1.018913   -1.567667   -1.061667
    5          7      10071000       -0.293087   -1.278667   -0.980667
    6          6      10061003       -1.446087    0.764333   -0.093667
    7          6      10061003       -1.713087    0.766333    1.415333
    8          7      10071000       -2.945087    1.591333    1.626333
    9          1      10011000        1.422913    1.257333    0.240333
   10          1      10011000       -1.291087    1.806333   -0.459667
   11          1      10011000       -2.325087    0.347333   -0.639667
   12          1      10011000       -1.900087   -0.263667    1.798333
   13          1      10011000       -0.872087    1.227333    1.983333
   14          1      10011000       -3.208087    1.649333    2.633333
   15          1      10011000       -2.822087    2.569333    1.288333
   16          1      10011000       -3.768087    1.199333    1.120333
   17          6      10061003        3.305913   -0.702667   -0.513667
   18          1      10011000        1.357913   -2.529667   -1.480667
   19          1      10011000        3.595913   -1.100667    0.485333
   20          1      10011000        3.724913   -1.368667   -1.302667
   21          1      10011000        3.748913    0.311333   -0.642667
 ---------------------------------------------------------------------
                    Distance matrix (angstroms):
                    1          2          3          4          5
     1  C    0.000000
     2  C    1.337967   0.000000
     3  N    1.341920   2.193759   0.000000
     4  C    2.077056   2.065112   1.340201   0.000000
     5  N    2.223941   1.351273   2.291469   1.345892   0.000000
     6  C    2.526180   1.502370   3.645201   3.528664   2.507993
     7  C    3.222992   2.499316   4.356523   4.364276   3.455321
     8  N    4.563477   3.778081   5.765988   5.737414   4.697494
     9  H    1.102752   2.206872   2.130310   3.136725   3.296482
    10  H    2.773849   2.140576   4.006499   4.133084   3.284002
    11  H    3.392350   2.146618   4.316910   3.876551   2.624725
    12  H    3.603650   2.787160   4.496300   4.289589   3.366826
    13  H    3.041009   2.797950   4.217130   4.545320   3.924356
    14  H    5.276190   4.593830   6.452591   6.470676   5.489208
    15  H    4.709025   4.064370   6.000093   6.114781   5.133352
    16  H    5.062110   4.059047   6.185073   5.944138   4.757133
    17  C    2.507725   3.593862   1.433655   2.505773   3.674597
    18  H    3.142396   3.127502   2.142211   1.102690   2.130916
    19  H    3.006554   4.066776   2.090227   3.041747   4.159947
    20  H    3.359682   4.258327   2.102645   2.723989   4.031886
    21  H    2.745513   3.998613   2.100846   3.340524   4.356617
                    6          7          8          9         10
     6  C    0.000000
     7  C    1.532441   0.000000
     8  N    2.426794   1.497655   0.000000
     9  H    2.930148   3.384701   4.594777   0.000000
    10  H    1.115233   2.185248   2.670831   2.856081   0.000000
    11  H    1.115637   2.184749   2.658325   3.956009   1.797286
    12  H    2.200583   1.114701   2.136032   3.972799   3.123195
    13  H    2.204036   1.114642   2.134777   2.882009   2.545398
    14  H    3.365174   2.120905   1.042392   5.227454   3.642278
    15  H    2.657315   2.120570   1.042045   4.565049   2.445738
    16  H    2.656069   2.120740   1.042607   5.265382   3.000063
    17  C    4.990991   5.573990   6.994072   2.820604   5.237405
    18  H    4.542755   5.355509   6.719516   4.160221   5.182715
    19  H    5.406961   5.704040   7.164735   3.215916   5.764238
    20  H    5.722815   6.443415   7.863176   3.817844   5.995959
    21  H    5.243533   5.854557   7.183063   2.661744   5.260239
                   11         12         13         14         15
    11  H    0.000000
    12  H    2.549076   0.000000
    13  H    3.125018   1.820464   0.000000
    14  H    3.631449   2.463262   2.461195   0.000000
    15  H    2.983534   3.022594   2.467081   1.674641   0.000000
    16  H    2.430176   2.467687   3.021981   1.674894   1.673332
    17  C    5.729445   5.713187   5.235990   7.607083   7.176738
    18  H    4.748568   5.147928   5.575594   7.432186   7.151193
    19  H    6.198433   5.712316   5.256102   7.646621   7.436695
    20  H    6.323506   6.517503   6.218474   8.524489   8.067486
    21  H    6.074107   6.180640   5.393382   7.805272   7.211475
                   16         17         18         19         20
    16  H    0.000000
    17  C    7.505267   0.000000
    18  H    6.851753   2.840374   0.000000
    19  H    7.740912   1.113780   3.303913   0.000000
    20  H    8.283152   1.114288   2.642403   1.812570   0.000000
    21  H    7.771872   1.114040   3.806627   1.813708   1.805153
                   21
    21  H    0.000000
 Stoichiometry    C6H12N3(1+)
 Framework group  C1[X(C6H12N3)]
 Deg. of freedom    57
 Full point group                 C1
 Largest Abelian subgroup         C1      NOp   1
 Largest concise Abelian subgroup C1      NOp   1
                         Standard orientation:                         
 ---------------------------------------------------------------------
 Center     Atomic     Atomic              Coordinates (Angstroms)
 Number     Number      Type              X           Y           Z
 ---------------------------------------------------------------------
    1          6      10061000       -0.830165   -0.643637   -0.348591
    2          6      10061000        0.023545    0.384746   -0.287249
    3          7      10071000       -2.062375   -0.234960   -0.008895
    4          6      10061000       -1.852152    1.063662    0.247091
    5          7      10071000       -0.595829    1.522549    0.097095
    6          6      10061003        1.492322    0.318818   -0.596218
    7          6      10061003        2.257759   -0.376003    0.535023
    8          7      10071000        3.700133   -0.377439    0.131881
    9          1      10011000       -0.636791   -1.694126   -0.622706
   10          1      10011000        1.634002   -0.233818   -1.554480
   11          1      10011000        1.883475    1.352624   -0.747510
   12          1      10011000        2.153994    0.176322    1.497690
   13          1      10011000        1.923805   -1.430406    0.673354
   14          1      10011000        4.305010   -0.833094    0.848179
   15          1      10011000        3.854190   -0.887353   -0.763726
   16          1      10011000        4.067617    0.588635   -0.004814
   17          6      10061003       -3.266023   -1.001689    0.127941
   18          1      10011000       -2.662517    1.738516    0.569283
   19          1      10011000       -3.310892   -1.449252    1.146852
   20          1      10011000       -4.161509   -0.355713   -0.021922
   21          1      10011000       -3.295607   -1.818776   -0.628748
 ---------------------------------------------------------------------
 Rotational constants (GHZ):      4.6546828      0.7724269      0.7009347
 Standard basis: Dummy (5D, 7F)
 There are    21 symmetry adapted basis functions of A   symmetry.
 Integral buffers will be    262144 words long.
 Raffenetti 1 integral format.
 Two-electron integral symmetry is turned on.
    21 basis functions,    21 primitive gaussians,    21 cartesian basis functions
    13 alpha electrons       13 beta electrons
       nuclear repulsion energy        65.8199759157 Hartrees.
 NAtoms=   21 NActive=   21 NUniq=   21 SFac= 7.50D-01 NAtFMM=   80 NAOKFM=F Big=F
 UFF calculation of energy and first derivatives.
 MO and density RWFs will be updated without deorthogonalization.
 NRF= 0 NRA=   0 NVA=  21 HaveQM=F
 Convergence limit is  0.750E-04 MaxStp=  5000 StMxLn= 1.00D-04 StpMin= 1.00D-06.
 Convergence criteria           0.00011250 0.00007500 0.00045000 0.00030000
  Step  NS  ND Rises OKQ   Scale  Max. Force  RMS Force Max. Disp.  RMS Disp.     Energy   Flag
     1   0   0   F    T  1.00D+00 0.06832398 0.02010253 0.06832398 0.02010253    0.0980504 ----
     2   0   0   F    F -3.22D-01 0.06832398 0.02010253 0.06832398 0.02010253    0.0913586 ----
     3   0   0   F    T  1.66D+00 0.03274965 0.00768744 0.03146260 0.00823036    0.0894258 ----
     4   0   0   F    F -2.98D-01 0.03274965 0.00768744 0.05212812 0.01363629    0.0876531 ----
     5   0   0   F    T  1.87D+00 0.01319277 0.00437283 0.01361774 0.00512173    0.0872625 ----
     6   0   0   F    F -1.52D-01 0.01319277 0.00437283 0.02544249 0.00956910    0.0863395 ----
     7   0   0   F    T  1.83D+00 0.00887883 0.00330879 0.01332585 0.00442531    0.0863089 ----
     8   0   0   F    F -1.62D-01 0.00887883 0.00330879 0.02443800 0.00811548    0.0857987 ----
     9   0   0   F    T  2.10D+00 0.00766144 0.00234714 0.00876625 0.00323239    0.0857790 ----
    10   0   0   F    F -1.61D-01 0.00766144 0.00234714 0.01844657 0.00680183    0.0854842 ----
    11   0   0   F    T  2.08D+00 0.00755318 0.00185531 0.00652715 0.00274196    0.0854728 ----
    12   0   0   F    F -3.78D-01 0.00755318 0.00185531 0.01357720 0.00570358    0.0853842 ----
    13   0   0   F    T  1.50D+00 0.00434916 0.00150947 0.00590625 0.00236316    0.0853325 ----
    14   0   0   F    F  8.63D-01 0.00434916 0.00150947 0.00886887 0.00354854    0.0851749 ----
    15   0   0   F    T  2.57D+00 0.00448707 0.00143393 0.00682176 0.00256903    0.0851318 ----
    16   0   0   T    F  4.04D-01 0.00448707 0.00143393 0.01755302 0.00661036    0.0852108 ----
    17   0   0   F    T  1.55D+00 0.00306832 0.00104731 0.00545128 0.00172592    0.0850645 ----
    18   0   0   F    F  1.42D+00 0.00306832 0.00104731 0.00844024 0.00267225    0.0849796 ----
    19   0   0   F    T  2.40D+00 0.00411389 0.00123259 0.00830664 0.00269217    0.0849352 ----
    20   0   0   F    F -3.46D-01 0.00411389 0.00123259 0.01994659 0.00646467    0.0848809 ----
    21   0   0   F    T  2.30D+00 0.00257017 0.00094181 0.00499641 0.00183889    0.0848600 ----
    22   0   0   F    F -3.55D-01 0.00257017 0.00094181 0.01149465 0.00423052    0.0848311 ----
    23   0   0   F    T  2.17D+00 0.00209166 0.00070762 0.00284976 0.00125741    0.0848185 ----
    24   0   0   F    F  4.06D-01 0.00209166 0.00070762 0.00618418 0.00272866    0.0847745 ----
    25   0   0   F    T  1.98D+00 0.00308516 0.00083475 0.00469444 0.00194061    0.0847705 ----
    26   0   0   F    F -2.21D-01 0.00308516 0.00083475 0.00927831 0.00383552    0.0847394 ----
    27   0   0   F    T  1.71D+00 0.00217754 0.00075173 0.00387410 0.00174428    0.0847366 ----
    28   0   0   F    F -9.52D-02 0.00217754 0.00075173 0.00663880 0.00298906    0.0847093 ----
    29   0   0   F    T  2.10D+00 0.00174405 0.00060759 0.00303460 0.00129025    0.0847090 ----
    30   0   0   F    F -2.18D-01 0.00174405 0.00060759 0.00636057 0.00270438    0.0846914 ----
    31   0   0   F    T  2.06D+00 0.00139938 0.00050587 0.00273717 0.00102666    0.0846900 ----
    32   0   0   F    F  1.15D+00 0.00139938 0.00050587 0.00563993 0.00211542    0.0846644 ----
    33   0   0   F    T  3.46D+00 0.00205861 0.00054730 0.00356928 0.00131818    0.0846541 ----
    34   0   0   T    F  4.80D-01 0.00205861 0.00054730 0.01234230 0.00455817    0.0846569 ----
    35   0   0   F    T  1.48D+00 0.00144343 0.00055759 0.00404434 0.00147409    0.0846385 ----
    36   0   0   F    F  2.14D-01 0.00144343 0.00055759 0.00600283 0.00218793    0.0846214 ----
    37   0   0   F    T  1.41D+00 0.00190571 0.00061445 0.00517905 0.00189027    0.0846208 ----
    38   0   0   F    F  1.19D+00 0.00190571 0.00061445 0.00727859 0.00265657    0.0845950 ----
    39   0   0   F    T  2.50D+00 0.00227923 0.00066754 0.00646971 0.00232423    0.0845842 ----
    40   0   0   F    F -9.92D-02 0.00227923 0.00066754 0.01617902 0.00581229    0.0845531 ----
    41   0   0   F    T  2.07D+00 0.00201222 0.00068134 0.00699307 0.00252569    0.0845527 ----
    42   0   0   F    F -2.57D-02 0.00201222 0.00068134 0.01449625 0.00523563    0.0845232 ----
    43   0   0   F    T  1.76D+00 0.00210069 0.00071775 0.00815370 0.00289832    0.0845231 ----
    44   0   0   F    F  4.40D-02 0.00210069 0.00071775 0.01435022 0.00510095    0.0844933 ----
    45   0   0   F    T  2.05D+00 0.00147990 0.00067157 0.00726253 0.00260263    0.0844933 ----
    46   0   0   F    F  7.64D-02 0.00147990 0.00067157 0.01485980 0.00532522    0.0844621 ----
    47   0   0   F    T  2.39D+00 0.00190412 0.00063704 0.00687081 0.00239946    0.0844619 ----
    48   0   0   F    F -2.34D-01 0.00190412 0.00063704 0.01641430 0.00573228    0.0844407 ----
    49   0   0   F    T  1.25D+00 0.00228817 0.00076167 0.01026041 0.00350889    0.0844385 ----
    50   0   0   F    F  6.56D-01 0.00228817 0.00076167 0.01284559 0.00439297    0.0844065 ----
    51   0   0   F    T  2.61D+00 0.00190862 0.00067383 0.00834336 0.00278876    0.0844005 ----
    52   0   0   F    F  2.13D-01 0.00190862 0.00067383 0.02176001 0.00727326    0.0843565 ----
    53   0   0   F    T  1.91D+00 0.00287609 0.00086422 0.01369016 0.00461426    0.0843551 ----
    54   0   0   F    F -2.33D-01 0.00287609 0.00086422 0.02618537 0.00882577    0.0843237 ----
    55   0   0   F    T  2.55D+00 0.00185955 0.00065351 0.00814290 0.00265849    0.0843205 ----
    56   0   0   F    F  6.75D-01 0.00185955 0.00065351 0.02073406 0.00676923    0.0842724 ----
    57   0   0   F    T  1.38D+00 0.00313229 0.00114596 0.02588305 0.00821325    0.0842630 ----
    58   0   0   F    F  5.98D-01 0.00313229 0.00114596 0.03572914 0.01133762    0.0841836 ----
    59   0   0   F    T  1.89D+00 0.00416234 0.00126280 0.03113771 0.00958868    0.0841705 ----
    60   0   0   F    F -1.91D-01 0.00416234 0.00126280 0.05882835 0.01811586    0.0840976 ----
    61   0   0   F    T  2.79D+00 0.00238800 0.00097831 0.01799642 0.00525091    0.0840932 ----
    62   0   0   F    F -4.28D-01 0.00238800 0.00097831 0.05020034 0.01464722    0.0840721 ----
    63   0   0   F    T  1.61D+00 0.00296242 0.00097414 0.01879271 0.00520776    0.0840450 ----
    64   0   0   F    F  1.98D+00 0.00296242 0.00097414 0.03025197 0.00838330    0.0839644 ----
    65   0   0   F    F -1.17D-02 0.00296242 0.00097414 0.05996491 0.01661723    0.0839002 ----
    66   0   0   F    T  2.14D+00 0.00563618 0.00147172 0.04274861 0.01158483    0.0839002 ----
    67   0   0   F    F -2.62D-01 0.00563618 0.00147172 0.09153348 0.02480549    0.0838051 ----
    68   0   0   F    T  3.04D+00 0.00363801 0.00113144 0.02308446 0.00603084    0.0837908 ----
    69   0   0   F    F -3.64D-01 0.00363801 0.00113144 0.07006192 0.01830376    0.0837385 ----
    70   0   0   F    T  1.68D+00 0.00555018 0.00121738 0.02735367 0.00692516    0.0837128 ----
    71   0   0   F    F  1.85D-02 0.00555018 0.00121738 0.04598081 0.01164101    0.0836328 ----
    72   0   0   F    T  1.82D+00 0.00321182 0.00117483 0.02644992 0.00651083    0.0836328 ----
    73   0   0   F    F  1.11D-01 0.00321182 0.00117483 0.04816643 0.01185651    0.0835457 ----
    74   0   0   F    T  2.92D+00 0.00287612 0.00096953 0.01878029 0.00451620    0.0835448 ----
    75   0   0   F    F  1.12D-01 0.00287612 0.00096953 0.05477942 0.01317310    0.0834498 ----
    76   0   0   F    T  2.20D+00 0.00430328 0.00116912 0.02780409 0.00666567    0.0834489 ----
    77   0   0   T    F  4.33D-01 0.00430328 0.00116912 0.06107570 0.01464212    0.0834785 ----
    78   0   0   F    T  3.46D+00 0.00182704 0.00059756 0.00760026 0.00183333    0.0834079 ----
    79   0   0   F    F -6.73D-02 0.00182704 0.00059756 0.02626416 0.00633542    0.0833719 ----
    80   0   0   F    T  1.70D+00 0.00253992 0.00081262 0.01424907 0.00348202    0.0833717 ----
    81   0   0   F    F  3.10D-02 0.00253992 0.00081262 0.02417980 0.00590877    0.0833353 ----
    82   0   0   F    T  1.82D+00 0.00248585 0.00078699 0.01345204 0.00334762    0.0833353 ----
    83   0   0   F    F  2.12D-02 0.00248585 0.00078699 0.02448063 0.00609216    0.0832991 ----
    84   0   0   F    T  2.44D+00 0.00239567 0.00067260 0.00995224 0.00254467    0.0832990 ----
    85   0   0   F    F -9.42D-02 0.00239567 0.00067260 0.02433093 0.00622112    0.0832679 ----
    86   0   0   F    T  2.03D+00 0.00266377 0.00068977 0.01052399 0.00276995    0.0832675 ----
    87   0   0   F    F -2.33D-01 0.00266377 0.00068977 0.02140915 0.00563496    0.0832463 ----
    88   0   0   F    T  2.20D+00 0.00199770 0.00056677 0.00710092 0.00196106    0.0832441 ----
    89   0   0   F    F -1.50D-01 0.00199770 0.00056677 0.01564054 0.00431945    0.0832258 ----
    90   0   0   F    T  2.00D+00 0.00140738 0.00053592 0.00638513 0.00183445    0.0832252 ----
    91   0   0   F    F  2.60D-01 0.00140738 0.00053592 0.01277192 0.00366938    0.0832034 ----
    92   0   0   F    T  1.63D+00 0.00236426 0.00065819 0.01017687 0.00284240    0.0832024 ----
    93   0   0   F    F  5.44D-02 0.00236426 0.00065819 0.01655254 0.00462313    0.0831791 ----
    94   0   0   F    T  2.48D+00 0.00128071 0.00053700 0.00707967 0.00196188    0.0831790 ----
    95   0   0   F    F -3.23D-01 0.00128071 0.00053700 0.01759008 0.00487447    0.0831672 ----
    96   0   0   F    T  2.25D+00 0.00116479 0.00045258 0.00538967 0.00146345    0.0831637 ----
    97   0   0   F    F  3.33D-01 0.00116479 0.00045258 0.01214956 0.00329895    0.0831456 ----
    98   0   0   F    T  2.39D+00 0.00150118 0.00049771 0.00677194 0.00183907    0.0831443 ----
    99   0   0   F    F -4.28D-01 0.00150118 0.00049771 0.01619091 0.00439700    0.0831396 ----
   100   0   0   F    T  1.80D+00 0.00130892 0.00042340 0.00498419 0.00139503    0.0831337 ----
   101   0   0   F    F -2.86D-02 0.00130892 0.00042340 0.00898812 0.00251569    0.0831238 ----
   102   0   0   F    T  2.88D+00 0.00080051 0.00031812 0.00256431 0.00084857    0.0831238 ----
   103   0   0   F    F -1.46D-01 0.00080051 0.00031812 0.00738497 0.00244381    0.0831162 ----
   104   0   0   F    T  1.52D+00 0.00108967 0.00039643 0.00364990 0.00137602    0.0831159 ----
   105   0   0   F    F  5.29D-01 0.00108967 0.00039643 0.00553512 0.00208676    0.0831058 ----
   106   0   0   F    T  2.83D+00 0.00109891 0.00034985 0.00301233 0.00112672    0.0831045 ----
   107   0   0   F    F -3.80D-01 0.00109891 0.00034985 0.00853170 0.00319117    0.0831002 ----
   108   0   0   F    T  1.70D+00 0.00108968 0.00034720 0.00317343 0.00116228    0.0830977 ----
   109   0   0   F    F -6.68D-02 0.00108968 0.00034720 0.00540639 0.00198011    0.0830917 ----
   110   0   0   F    T  2.05D+00 0.00102623 0.00029676 0.00247903 0.00089983    0.0830916 ----
   111   0   0   F    F  3.80D-01 0.00102623 0.00029676 0.00509070 0.00184780    0.0830844 ----
   112   0   0   F    T  1.71D+00 0.00115868 0.00037623 0.00413283 0.00149494    0.0830838 ----
   113   0   0   F    F  3.06D-01 0.00115868 0.00037623 0.00704908 0.00254982    0.0830744 ----
   114   0   0   F    T  2.22D+00 0.00109935 0.00037119 0.00467556 0.00150092    0.0830738 ----
   115   0   0   F    F -6.68D-02 0.00109935 0.00037119 0.01037412 0.00333024    0.0830649 ----
   116   0   0   F    T  1.77D+00 0.00158322 0.00039691 0.00583662 0.00175547    0.0830648 ----
   117   0   0   F    F  1.66D-02 0.00158322 0.00039691 0.01033289 0.00310781    0.0830559 ----
   118   0   0   F    T  1.77D+00 0.00136172 0.00039600 0.00620397 0.00178525    0.0830559 ----
   119   0   0   F    F  2.94D-01 0.00136172 0.00039600 0.01097946 0.00315944    0.0830452 ----
   120   0   0   F    T  2.25D+00 0.00118906 0.00039530 0.00656483 0.00181829    0.0830446 ----
   121   0   0   F    F -2.16D-01 0.00118906 0.00039530 0.01476478 0.00408946    0.0830366 ----
   122   0   0   F    T  1.70D+00 0.00120123 0.00039727 0.00703035 0.00188339    0.0830359 ----
   123   0   0   F    F  4.49D-01 0.00120123 0.00039727 0.01196881 0.00320637    0.0830248 ----
   124   0   0   F    T  2.02D+00 0.00118322 0.00043413 0.00878174 0.00230067    0.0830237 ----
   125   0   0   F    F  5.72D-01 0.00118322 0.00043413 0.01773027 0.00464503    0.0830073 ----
   126   0   0   F    T  1.46D+00 0.00213918 0.00063723 0.01912030 0.00500694    0.0830048 ----
   127   0   0   F    F -1.09D-01 0.00213918 0.00063723 0.02788189 0.00730129    0.0829884 ----
   128   0   0   F    T  3.90D+00 0.00109451 0.00036737 0.00599446 0.00166760    0.0829882 ----
   129   0   0   F    F -4.53D-01 0.00109451 0.00036737 0.02337393 0.00650241    0.0829854 ----
   130   0   0   F    T  1.66D+00 0.00142839 0.00041229 0.00729841 0.00213789    0.0829791 ----
   131   0   0   F    F  4.64D-01 0.00142839 0.00041229 0.01213187 0.00355374    0.0829674 ----
   132   0   0   F    T  2.16D+00 0.00125048 0.00043514 0.00779246 0.00241390    0.0829661 ----
   133   0   0   F    F -1.99D-01 0.00125048 0.00043514 0.01679886 0.00520385    0.0829564 ----
   134   0   0   F    T  1.76D+00 0.00146299 0.00042767 0.00779666 0.00236864    0.0829558 ----
   135   0   0   F    F  8.64D-02 0.00146299 0.00042767 0.01372504 0.00416970    0.0829448 ----
   136   0   0   F    T  2.98D+00 0.00100169 0.00033902 0.00501399 0.00152229    0.0829448 ----
   137   0   0   F    F -3.45D-01 0.00100169 0.00033902 0.01491971 0.00452976    0.0829397 ----
   138   0   0   F    T  2.38D+00 0.00120043 0.00030271 0.00395523 0.00124796    0.0829377 ----
   139   0   0   F    F -4.07D-01 0.00120043 0.00030271 0.00940088 0.00296618    0.0829355 ----
   140   0   0   F    T  1.86D+00 0.00089635 0.00025834 0.00283876 0.00094574    0.0829336 ----
   141   0   0   F    T  3.16D+00 0.00044187 0.00019312 0.00160573 0.00055731    0.0829297 ----
   142   0   0   F    T  1.82D+00 0.00091320 0.00024957 0.00270982 0.00096445    0.0829259 ----
   143   0   0   F    F -1.95D-01 0.00091320 0.00024957 0.00494212 0.00175894    0.0829231 ----
   144   0   0   F    T  2.24D+00 0.00065577 0.00019371 0.00167913 0.00063312    0.0829230 ----
   145   0   0   F    F -1.71D-01 0.00065577 0.00019371 0.00375642 0.00141637    0.0829209 ----
   146   0   0   F    T  2.02D+00 0.00042143 0.00018238 0.00142597 0.00058133    0.0829208 ----
   147   0   0   F    T  1.72D+00 0.00050725 0.00019461 0.00159331 0.00068459    0.0829186 ----
   148   0   0   F    F  3.05D-01 0.00050725 0.00019461 0.00273273 0.00117416    0.0829161 ----
   149   0   0   F    T  2.22D+00 0.00059003 0.00018945 0.00155243 0.00068978    0.0829159 ----
   150   0   0   F    F -9.82D-02 0.00059003 0.00018945 0.00344898 0.00153247    0.0829137 ----
   151   0   0   F    T  1.92D+00 0.00055400 0.00019081 0.00188396 0.00071950    0.0829137 ----
   152   0   0   F    F  3.82D-01 0.00055400 0.00019081 0.00361855 0.00138196    0.0829109 ----
   153   0   0   F    T  2.22D+00 0.00058536 0.00020559 0.00256846 0.00086134    0.0829106 ----
   154   0   0   F    F -3.64D-01 0.00058536 0.00020559 0.00569537 0.00190996    0.0829094 ----
   155   0   0   F    T  1.56D+00 0.00064399 0.00019193 0.00250677 0.00077582    0.0829087 ----
   156   0   0   F    F  1.15D+00 0.00064399 0.00019193 0.00392296 0.00121412    0.0829060 ----
   157   0   0   F    T  2.10D+00 0.00071036 0.00024010 0.00415805 0.00124057    0.0829048 ----
   158   0   0   F    F -2.77D-01 0.00071036 0.00024010 0.00875084 0.00261084    0.0829025 ----
   159   0   0   F    T  2.74D+00 0.00062407 0.00017613 0.00254986 0.00068836    0.0829021 ----
   160   0   0   F    F -2.43D-01 0.00062407 0.00017613 0.00698874 0.00188668    0.0829003 ----
   161   0   0   F    T  2.18D+00 0.00056313 0.00016908 0.00257469 0.00065443    0.0829001 ----
   162   0   0   F    F  1.60D-01 0.00056313 0.00016908 0.00561867 0.00142815    0.0828978 ----
   163   0   0   F    T  1.38D+00 0.00119354 0.00022661 0.00479554 0.00119589    0.0828978 ----
   164   0   0   F    T  3.50D+00 0.00037830 0.00014079 0.00195851 0.00047267    0.0828955 ----
   165   0   0   F    F -7.56D-02 0.00037830 0.00014079 0.00686262 0.00165624    0.0828935 ----
   166   0   0   F    T  1.69D+00 0.00053447 0.00019200 0.00363796 0.00090818    0.0828935 ----
   167   0   0   F    F  2.54D-01 0.00053447 0.00019200 0.00613328 0.00153111    0.0828911 ----
   168   0   0   F    T  1.52D+00 0.00070832 0.00022463 0.00484760 0.00126150    0.0828910 ----
   169   0   0   F    F  1.44D-01 0.00070832 0.00022463 0.00737882 0.00192020    0.0828883 ----
   170   0   0   F    T  3.01D+00 0.00042250 0.00016877 0.00271656 0.00072906    0.0828883 ----
   171   0   0   F    F -2.08D-01 0.00042250 0.00016877 0.00818494 0.00219664    0.0828863 ----
   172   0   0   F    T  1.58D+00 0.00058316 0.00020613 0.00410946 0.00109973    0.0828861 ----
   173   0   0   F    F  2.82D-01 0.00058316 0.00020613 0.00650272 0.00174018    0.0828835 ----
   174   0   0   F    T  1.98D+00 0.00062820 0.00020774 0.00420585 0.00112687    0.0828834 ----
   175   0   0   F    F -2.55D-01 0.00062820 0.00020774 0.00832960 0.00223175    0.0828816 ----
   176   0   0   F    T  2.68D+00 0.00042351 0.00015157 0.00225695 0.00062108    0.0828814 ----
   177   0   0   F    F -6.72D-02 0.00042351 0.00015157 0.00604421 0.00166329    0.0828796 ----
   178   0   0   F    T  2.01D+00 0.00068180 0.00016685 0.00271246 0.00077381    0.0828796 ----
   179   0   0   F    F  6.15D-02 0.00068180 0.00016685 0.00543868 0.00155155    0.0828777 ----
   180   0   0   F    T  2.03D+00 0.00061671 0.00016851 0.00267676 0.00080946    0.0828777 ----
   181   0   0   F    F -2.80D-01 0.00061671 0.00016851 0.00544641 0.00164701    0.0828766 ----
   182   0   0   F    T  2.21D+00 0.00045414 0.00013519 0.00163884 0.00053764    0.0828764 ----
   183   0   0   F    F  6.40D-02 0.00045414 0.00013519 0.00361609 0.00118630    0.0828751 ----
   184   0   0   F    T  2.31D+00 0.00049964 0.00013440 0.00163156 0.00054733    0.0828750 ----
   185   0   0   F    F -3.81D-01 0.00049964 0.00013440 0.00376261 0.00126223    0.0828745 ----
   186   0   0   F    T  1.75D+00 0.00040441 0.00011928 0.00127141 0.00044710    0.0828742 ----
   187   0   0   F    F  9.21D-01 0.00040441 0.00011928 0.00222138 0.00078116    0.0828731 ----
   188   0   0   F    T  2.46D+00 0.00040891 0.00013761 0.00167116 0.00061120    0.0828727 ----
   189   0   0   F    F -3.24D-01 0.00040891 0.00013761 0.00410330 0.00150073    0.0828720 ----
   190   0   0   F    T  3.55D+00 0.00038074 0.00009154 0.00086468 0.00028562    0.0828717 ---+
   191   0   0   T    F  3.91D-01 0.00038074 0.00009154 0.00307086 0.00101435    0.0828723 ----
   192   0   0   F    T  1.55D+00 0.00023772 0.00008423 0.00084264 0.00025600    0.0828714 ---+
   193   0   0   F    F  5.57D-01 0.00023772 0.00008423 0.00130679 0.00039702    0.0828709 ----
   194   0   0   F    T  1.74D+00 0.00030799 0.00009733 0.00116144 0.00035539    0.0828708 ----
   195   0   0   F    F  1.61D-01 0.00030799 0.00009733 0.00201990 0.00061807    0.0828702 ----
   196   0   0   F    T  3.11D+00 0.00026885 0.00007623 0.00068942 0.00023096    0.0828702 ---+
   197   0   0   F    F -1.73D-01 0.00026885 0.00007623 0.00214195 0.00071755    0.0828698 ----
   198   0   0   F    T  2.62D+00 0.00022851 0.00007342 0.00058905 0.00022658    0.0828698 -+-+
   199   0   0   T    F  4.91D-01 0.00022851 0.00007342 0.00154266 0.00059339    0.0828698 -+--
   200   0   0   F    T  1.67D+00 0.00018930 0.00006235 0.00039400 0.00017491    0.0828695 -+++
   201   0   0   F    F  6.93D-01 0.00018930 0.00006235 0.00065645 0.00029143    0.0828693 -+-+
   202   0   0   F    T  1.72D+00 0.00025748 0.00007822 0.00060670 0.00028621    0.0828692 ---+
   203   0   0   F    F  1.40D-01 0.00025748 0.00007822 0.00104567 0.00049329    0.0828688 ----
   204   0   0   F    T  2.06D+00 0.00022755 0.00007491 0.00063087 0.00027295    0.0828688 -+-+
   205   0   0   F    T  3.24D+00 0.00013936 0.00005890 0.00042989 0.00017349    0.0828684 -+++
   206   0   0   F    F -4.23D-01 0.00013936 0.00005890 0.00139327 0.00056228    0.0828684 -+--
   207   0   0   F    T  1.27D+00 0.00024219 0.00006920 0.00065015 0.00025469    0.0828682 -+-+
   208   0   0   F    F  1.06D+00 0.00024219 0.00006920 0.00082760 0.00032420    0.0828680 -+--
   209   0   0   F    T  2.35D+00 0.00018895 0.00007328 0.00072701 0.00028407    0.0828678 -+-+
   210   0   0   F    F -1.85D-01 0.00018895 0.00007328 0.00171040 0.00066833    0.0828675 -+--
   211   0   0   F    T  1.64D+00 0.00029913 0.00007809 0.00085122 0.00033176    0.0828675 ----
   212   0   0   F    F  3.50D-01 0.00029913 0.00007809 0.00139743 0.00054464    0.0828671 ----
   213   0   0   F    T  2.30D+00 0.00025407 0.00007557 0.00083671 0.00031987    0.0828671 ----
   214   0   0   F    F -2.49D-01 0.00025407 0.00007557 0.00192321 0.00073522    0.0828668 ----
   215   0   0   F    T  1.84D+00 0.00019430 0.00007211 0.00080491 0.00030012    0.0828668 -+--
   216   0   0   F    T  3.34D+00 0.00014473 0.00005477 0.00050530 0.00016546    0.0828665 -+-+
   217   0   0   F    F -3.13D-01 0.00014473 0.00005477 0.00168608 0.00055208    0.0828663 -+--
   218   0   0   F    T  1.28D+00 0.00024269 0.00007023 0.00098049 0.00029540    0.0828662 -+-+
   219   0   0   F    F  7.12D-01 0.00024269 0.00007023 0.00125798 0.00037901    0.0828660 -+--
   220   0   0   F    T  1.73D+00 0.00025585 0.00008127 0.00123288 0.00037569    0.0828659 ----
   221   0   0   F    F  6.57D-01 0.00025585 0.00008127 0.00212877 0.00064869    0.0828654 ----
   222   0   0   F    T  2.47D+00 0.00028191 0.00008674 0.00140197 0.00043563    0.0828653 ----
   223   0   0   F    F -4.95D-01 0.00028191 0.00008674 0.00345834 0.00107461    0.0828653 ----
   224   0   0   F    T  2.04D+00 0.00018875 0.00006670 0.00086631 0.00026627    0.0828650 -+-+
   225   0   0   F    F  2.18D-01 0.00018875 0.00006670 0.00176413 0.00054223    0.0828647 -+--
   226   0   0   F    T  2.22D+00 0.00029795 0.00006947 0.00099800 0.00029738    0.0828647 -+-+
   227   0   0   F    F  1.28D-01 0.00029795 0.00006947 0.00221653 0.00066047    0.0828643 -+--
   228   0   0   F    T  2.24D+00 0.00025211 0.00007253 0.00114191 0.00033242    0.0828643 -+--
   229   0   0   F    F -4.09D-01 0.00025211 0.00007253 0.00255944 0.00074506    0.0828642 -+--
   230   0   0   F    T  1.87D+00 0.00025443 0.00006002 0.00083264 0.00023541    0.0828641 -+-+
   231   0   0   F    F  2.78D-01 0.00025443 0.00006002 0.00155729 0.00044029    0.0828638 -+--
   232   0   0   F    T  1.58D+00 0.00022106 0.00007293 0.00126501 0.00035514    0.0828638 -+--
   233   0   0   F    F  5.37D-01 0.00022106 0.00007293 0.00200432 0.00056270    0.0828634 -+--
   234   0   0   F    T  4.02D+00 0.00017461 0.00005585 0.00075184 0.00021541    0.0828634 -+-+
   235   0   0   T    F  4.42D-01 0.00017461 0.00005585 0.00301950 0.00086514    0.0828635 -+--
   236   0   0   F    T  1.71D+00 0.00018127 0.00005591 0.00076845 0.00022298    0.0828632 -+-+
   237   0   0   F    T  2.84D+00 0.00011618 0.00004246 0.00043576 0.00013433    0.0828630 -+++
   238   0   0   F    F -4.11D-01 0.00011618 0.00004246 0.00123928 0.00038204    0.0828630 -+--
   239   0   0   F    T  1.91D+00 0.00013048 0.00003851 0.00034856 0.00011811    0.0828629 -+++
   240   0   0   F    T  1.64D+00 0.00015403 0.00004042 0.00038894 0.00013690    0.0828629 -+++
   241   0   0   F    F  1.65D-01 0.00015403 0.00004042 0.00063968 0.00022516    0.0828628 -+-+
   242   0   0   F    T  3.92D+00 0.00007940 0.00002772 0.00017933 0.00006689    0.0828628 ====
 Energy=    0.082862753575 NIter=   0.
 Dipole moment=       0.000000       0.000000       0.000000
 ***** Axes restored to original set *****
 -------------------------------------------------------------------
 Center     Atomic                   Forces (Hartrees/Bohr)
 Number     Number              X              Y              Z
 -------------------------------------------------------------------
    1          6          -0.000007131   -0.000003883   -0.000031369
    2          6          -0.000047415   -0.000041736    0.000009073
    3          7           0.000046589   -0.000064061   -0.000010063
    4          6          -0.000027678    0.000011947   -0.000000900
    5          7           0.000026664   -0.000053281   -0.000023227
    6          6          -0.000005359    0.000024125    0.000005201
    7          6          -0.000068770    0.000027373    0.000028966
    8          7           0.000047710   -0.000038244   -0.000015679
    9          1           0.000010433    0.000044307    0.000030780
   10          1          -0.000009027    0.000019561   -0.000010066
   11          1          -0.000028009   -0.000030679   -0.000039568
   12          1           0.000035319    0.000018003   -0.000022107
   13          1           0.000028971    0.000005002   -0.000025998
   14          1           0.000001976   -0.000017557    0.000030166
   15          1           0.000018838    0.000042268    0.000035891
   16          1          -0.000019020    0.000018809   -0.000008691
   17          6          -0.000013880    0.000003717   -0.000012979
   18          1          -0.000002854   -0.000002799    0.000011881
   19          1           0.000001879   -0.000006783    0.000033582
   20          1           0.000021077    0.000028090   -0.000021026
   21          1          -0.000010311    0.000015823    0.000036135
 -------------------------------------------------------------------
 Cartesian Forces:  Max     0.000068770 RMS     0.000027718

 GradGradGradGradGradGradGradGradGradGradGradGradGradGradGradGradGradGrad
 Berny optimization.
 Search for a local minimum.
 Step number   1 out of a maximum of   2
 All quantities printed in internal units (Hartrees-Bohrs-Radians)
 Second derivative matrix not updated -- unit matrix used.
 RFO step:  Lambda=-4.84037195D-08.
 Linear search not attempted -- first point.
 TrRot=  0.000000  0.000000  0.000000  0.000000  0.000000  0.000000
 Variable       Old X    -DE/DX   Delta X   Delta X   Delta X     New X
                                 (Linear)    (Quad)   (Total)
    X1        1.92751  -0.00001   0.00000  -0.00001  -0.00001   1.92750
    Y1        0.54227   0.00000   0.00000   0.00000   0.00000   0.54227
    Z1       -0.23331  -0.00003   0.00000  -0.00003  -0.00003  -0.23334
    X2       -0.43408  -0.00005   0.00000  -0.00005  -0.00005  -0.43413
    Y2       -0.05328  -0.00004   0.00000  -0.00004  -0.00004  -0.05332
    Z2       -0.84750   0.00001   0.00000   0.00001   0.00001  -0.84749
    X3        3.48018   0.00005   0.00000   0.00005   0.00005   3.48023
    Y3       -1.27181  -0.00006   0.00000  -0.00006  -0.00006  -1.27187
    Z3       -1.11513  -0.00001   0.00000  -0.00001  -0.00001  -1.11514
    X4        1.97375  -0.00003   0.00000  -0.00003  -0.00003   1.97372
    Y4       -2.96053   0.00001   0.00000   0.00001   0.00001  -2.96051
    Z4       -2.27716   0.00000   0.00000   0.00000   0.00000  -2.27717
    X5       -0.46030   0.00003   0.00000   0.00003   0.00003  -0.46027
    Y5       -2.24631  -0.00005   0.00000  -0.00005  -0.00005  -2.24636
    Z5       -2.14097  -0.00002   0.00000  -0.00002  -0.00002  -2.14099
    X6       -2.75061  -0.00001   0.00000  -0.00001  -0.00001  -2.75062
    Y6        1.46556   0.00002   0.00000   0.00002   0.00002   1.46558
    Z6       -0.25260   0.00001   0.00000   0.00001   0.00001  -0.25260
    X7       -3.23615  -0.00007   0.00000  -0.00007  -0.00007  -3.23622
    Y7        1.55498   0.00003   0.00000   0.00003   0.00003   1.55501
    Z7        2.60258   0.00003   0.00000   0.00003   0.00003   2.60261
    X8       -5.53575   0.00005   0.00000   0.00005   0.00005  -5.53570
    Y8        2.97444  -0.00004   0.00000  -0.00004  -0.00004   2.97440
    Z8        3.16004  -0.00002   0.00000  -0.00002  -0.00002   3.16002
    X9        2.53361   0.00001   0.00000   0.00001   0.00001   2.53362
    Y9        2.20360   0.00004   0.00000   0.00004   0.00004   2.20364
    Z9        0.79615   0.00003   0.00000   0.00003   0.00003   0.79619
   X10       -2.50715  -0.00001   0.00000  -0.00001  -0.00001  -2.50716
   Y10        3.41320   0.00002   0.00000   0.00002   0.00002   3.41322
   Z10       -1.00010  -0.00001   0.00000  -0.00001  -0.00001  -1.00011
   X11       -4.40763  -0.00003   0.00000  -0.00003  -0.00003  -4.40766
   Y11        0.59845  -0.00003   0.00000  -0.00003  -0.00003   0.59842
   Z11       -1.20930  -0.00004   0.00000  -0.00004  -0.00004  -1.20933
   X12       -3.43365   0.00004   0.00000   0.00004   0.00004  -3.43361
   Y12       -0.40251   0.00002   0.00000   0.00002   0.00002  -0.40249
   Z12        3.34533  -0.00002   0.00000  -0.00002  -0.00002   3.34531
   X13       -1.60998   0.00003   0.00000   0.00003   0.00003  -1.60995
   Y13        2.46882   0.00001   0.00000   0.00001   0.00001   2.46882
   Z13        3.57229  -0.00003   0.00000  -0.00003  -0.00003   3.57226
   X14       -5.87116   0.00000   0.00000   0.00000   0.00000  -5.87116
   Y14        3.05661  -0.00002   0.00000  -0.00002  -0.00002   3.05659
   Z14        5.10322   0.00003   0.00000   0.00003   0.00003   5.10325
   X15       -5.42972   0.00002   0.00000   0.00002   0.00002  -5.42970
   Y15        4.83792   0.00004   0.00000   0.00004   0.00004   4.83796
   Z15        2.51612   0.00004   0.00000   0.00004   0.00004   2.51616
   X16       -7.13101  -0.00002   0.00000  -0.00002  -0.00002  -7.13103
   Y16        2.15227   0.00002   0.00000   0.00002   0.00002   2.15229
   Z16        2.33684  -0.00001   0.00000  -0.00001  -0.00001   2.33683
   X17        6.22052  -0.00001   0.00000  -0.00001  -0.00001   6.22050
   Y17       -1.36584   0.00000   0.00000   0.00000   0.00000  -1.36584
   Z17       -0.86343  -0.00001   0.00000  -0.00001  -0.00001  -0.86345
   X18        2.62520   0.00000   0.00000   0.00000   0.00000   2.62519
   Y18       -4.66371   0.00000   0.00000   0.00000   0.00000  -4.66371
   Z18       -3.20376   0.00001   0.00000   0.00001   0.00001  -3.20374
   X19        6.74157   0.00000   0.00000   0.00000   0.00000   6.74157
   Y19       -1.38385  -0.00001   0.00000  -0.00001  -0.00001  -1.38386
   Z19        1.16869   0.00003   0.00000   0.00003   0.00003   1.16872
   X20        6.98385   0.00002   0.00000   0.00002   0.00002   6.98388
   Y20       -3.09569   0.00003   0.00000   0.00003   0.00003  -3.09566
   Z20       -1.77577  -0.00002   0.00000  -0.00002  -0.00002  -1.77579
   X21        7.07100  -0.00001   0.00000  -0.00001  -0.00001   7.07099
   Y21        0.31822   0.00002   0.00000   0.00002   0.00002   0.31824
   Z21       -1.78129   0.00004   0.00000   0.00004   0.00004  -1.78126
         Item               Value     Threshold  Converged?
 Maximum Force            0.000069     0.000450     YES
 RMS     Force            0.000028     0.000300     YES
 Maximum Displacement     0.000069     0.001800     YES
 RMS     Displacement     0.000028     0.001200     YES
 Predicted change in Energy=-2.420186D-08
 Optimization completed.
    -- Stationary point found.
 GradGradGradGradGradGradGradGradGradGradGradGradGradGradGradGradGradGrad

                          Input orientation:                          
 ---------------------------------------------------------------------
 Center     Atomic     Atomic              Coordinates (Angstroms)
 Number     Number      Type              X           Y           Z
 ---------------------------------------------------------------------
    1          6      10061000        1.019995    0.286957   -0.123460
    2          6      10061000       -0.229707   -0.028194   -0.448479
    3          7      10071000        1.841632   -0.673010   -0.590102
    4          6      10061000        1.044464   -1.566643   -1.205023
    5          7      10071000       -0.243578   -1.188694   -1.132952
    6          6      10061003       -1.455560    0.775540   -0.133671
    7          6      10061003       -1.712497    0.822861    1.377226
    8          7      10071000       -2.929393    1.574006    1.672221
    9          1      10011000        1.340730    1.166093    0.421307
   10          1      10011000       -1.326725    1.806188   -0.529229
   11          1      10011000       -2.332417    0.316689   -0.639932
   12          1      10011000       -1.817007   -0.212999    1.770275
   13          1      10011000       -0.851965    1.306442    1.890374
   14          1      10011000       -3.106885    1.617488    2.700507
   15          1      10011000       -2.873283    2.560118    1.331476
   16          1      10011000       -3.773570    1.138930    1.236602
   17          6      10061003        3.291755   -0.722772   -0.456910
   18          1      10011000        1.389194   -2.467927   -1.695354
   19          1      10011000        3.567484   -0.732303    0.618443
   20          1      10011000        3.695696   -1.638166   -0.939697
   21          1      10011000        3.741810    0.168394   -0.942621
 ---------------------------------------------------------------------
                    Distance matrix (angstroms):
                    1          2          3          4          5
     1  C    0.000000
     2  C    1.329178   0.000000
     3  N    1.346989   2.174004   0.000000
     4  C    2.146209   2.136047   1.346174   0.000000
     5  N    2.189346   1.347388   2.215562   1.344282   0.000000
     6  C    2.523330   1.499269   3.630166   3.589393   2.515090
     7  C    3.163189   2.501231   4.328954   4.469740   3.536250
     8  N    4.525333   3.788498   5.738455   5.825269   4.766037
     9  H    1.082830   2.156183   2.157812   3.193834   3.235858
    10  H    2.824855   2.138908   4.023508   4.177945   3.241451
    11  H    3.392094   2.139390   4.290067   3.907633   2.621544
    12  H    3.447430   2.734327   4.378199   4.344281   3.443310
    13  H    2.932424   2.763818   4.162506   4.629530   3.966905
    14  H    5.174577   4.571929   6.368855   6.528825   5.546944
    15  H    4.737269   4.105617   6.031252   6.229987   5.200225
    16  H    5.055086   4.093976   6.176606   6.041119   4.847005
    17  C    2.508313   3.589318   1.457077   2.514380   3.629421
    18  H    3.193203   3.182426   2.155924   1.082393   2.149111
    19  H    2.842360   4.006589   2.107762   3.222853   4.218989
    20  H    3.395838   4.271077   2.119268   2.665435   3.969541
    21  H    2.844883   4.006966   2.107821   3.217901   4.214408
                    6          7          8          9         10
     6  C    0.000000
     7  C    1.533318   0.000000
     8  N    2.463936   1.460163   0.000000
     9  H    2.877459   3.217730   4.468236   0.000000
    10  H    1.111441   2.179524   2.732918   2.903197   0.000000
    11  H    1.111631   2.170123   2.698755   3.916596   1.800634
    12  H    2.175515   1.112841   2.107226   3.700394   3.099228
    13  H    2.177830   1.112514   2.105918   2.643060   2.515874
    14  H    3.386490   2.080102   1.044397   5.017947   3.692665
    15  H    2.709486   2.089875   1.044831   4.530962   2.534261
    16  H    2.717144   2.089903   1.044840   5.178948   3.090379
    17  C    4.988630   5.549376   6.964989   2.854046   5.266045
    18  H    4.588198   5.467222   6.806466   4.205795   5.196549
    19  H    5.298135   5.556301   6.974161   2.932781   5.631551
    20  H    5.745529   6.377565   7.812297   3.906670   6.103833
    21  H    5.294873   5.963177   7.301924   2.936135   5.342594
                   11         12         13         14         15
    11  H    0.000000
    12  H    2.520974   0.000000
    13  H    3.094155   1.804004   0.000000
    14  H    3.667480   2.424829   2.416140   0.000000
    15  H    3.035121   2.999740   2.443317   1.678502   0.000000
    16  H    2.504871   2.437346   2.998542   1.678244   1.685020
    17  C    5.722350   5.596398   5.176665   7.509241   7.209951
    18  H    4.766381   5.232114   5.667989   7.498596   7.253389
    19  H    6.123130   5.530745   5.030488   7.375887   7.268558
    20  H    6.344247   6.305946   6.112384   8.374096   8.120056
    21  H    6.083572   6.197235   5.515775   7.891570   7.392653
                   16         17         18         19         20
    16  H    0.000000
    17  C    7.500182   0.000000
    18  H    6.946936   2.863399   0.000000
    19  H    7.600967   1.110181   3.620912   0.000000
    20  H    8.260658   1.110945   2.565049   1.806884   0.000000
    21  H    7.884915   1.110244   3.612700   1.810681   1.807151
                   21
    21  H    0.000000
 Stoichiometry    C6H12N3(1+)
 Framework group  C1[X(C6H12N3)]
 Deg. of freedom    57
 Full point group                 C1
 Largest Abelian subgroup         C1      NOp   1
 Largest concise Abelian subgroup C1      NOp   1
                         Standard orientation:                         
 ---------------------------------------------------------------------
 Center     Atomic     Atomic              Coordinates (Angstroms)
 Number     Number      Type              X           Y           Z
 ---------------------------------------------------------------------
    1          6      10061000        0.787977   -0.635919    0.321107
    2          6      10061000       -0.024335    0.414579    0.263499
    3          7      10071000        2.030002   -0.239119   -0.016979
    4          6      10061000        1.933355    1.078723   -0.274146
    5          7      10071000        0.670784    1.508287   -0.105376
    6          6      10061003       -1.490707    0.417604    0.575834
    7          6      10061003       -2.274264   -0.420093   -0.441696
    8          7      10071000       -3.705110   -0.379664   -0.153386
    9          1      10011000        0.513697   -1.646795    0.595735
   10          1      10011000       -1.645756    0.013774    1.599642
   11          1      10011000       -1.865824    1.463824    0.555033
   12          1      10011000       -2.095716   -0.024746   -1.466506
   13          1      10011000       -1.925194   -1.475902   -0.408442
   14          1      10011000       -4.245055   -0.954761   -0.837848
   15          1      10011000       -3.923821   -0.753810    0.797326
   16          1      10011000       -4.087662    0.591292   -0.204246
   17          6      10061003        3.225235   -1.069883   -0.082726
   18          1      10011000        2.758282    1.712168   -0.573842
   19          1      10011000        3.071676   -1.886843   -0.818592
   20          1      10011000        4.102976   -0.464847   -0.395297
   21          1      10011000        3.429104   -1.509945    0.915986
 ---------------------------------------------------------------------
 Rotational constants (GHZ):      4.5895131      0.7752510      0.6977324
 1|1|UNPC-UNK|FOpt|UFF|ZDO|C6H12N3(1+)|PCUSER|13-Dec-2007|0||# opt uff|
 |3-me-histamine-t||1,1|C,1.0199954638,0.2869573822,-0.1234599765|C,-0.
 2297072622,-0.02819429,-0.4484788982|N,1.8416321128,-0.6730103541,-0.5
 901015901|C,1.0444644246,-1.5666432664,-1.2050233571|N,-0.2435780419,-
 1.1886939362,-1.1329515326|C,-1.4555601391,0.7755401494,-0.1336714301|
 C,-1.712496975,0.8228612996,1.3772255543|N,-2.9293929906,1.5740062006,
 1.6722214527|H,1.3407299307,1.1660933724,0.4213069147|H,-1.3267245854,
 1.8061882825,-0.5292294583|H,-2.3324174048,0.3166886904,-0.6399315606|
 H,-1.8170073668,-0.212998533,1.7702747196|H,-0.8519647506,1.306441608,
 1.8903737567|H,-3.1068851261,1.6174881865,2.7005068355|H,-2.8732832564
 ,2.5601180693,1.3314756057|H,-3.7735697285,1.1389304024,1.2366019364|C
 ,3.2917551975,-0.7227719883,-0.4569100813|H,1.3891936687,-2.4679270275
 ,-1.6953544802|H,3.5674840038,-0.7323026754,0.6184432315|H,3.695696379
 ,-1.6381660171,-0.9396970739|H,3.7418102864,0.1683943746,-0.9426206381
 ||Version=IA32W-G03RevD.01|HF=0.0828628|RMSD=0.000e+000|RMSF=2.772e-00
 5|Thermal=0.|Dipole=0.,0.,0.|PG=C01 [X(C6H12N3)]||@


 Children are likely to live up to what you believe of them.
 -- Lady Bird Johnson
 Job cpu time:  0 days  0 hours  0 minutes  4.0 seconds.
 File lengths (MBytes):  RWF=     11 Int=      0 D2E=      0 Chk=      4 Scr=      1
 Normal termination of Gaussian 03 at Thu Dec 13 15:34:59 2007.
