 Entering Link 1 = C:\G03W\l1.exe PID=      2708.
  
 Copyright (c) 1988,1990,1992,1993,1995,1998,2003,2004, Gaussian, Inc.
                  All Rights Reserved.
  
 This is the Gaussian(R) 03 program.  It is based on the
 the Gaussian(R) 98 system (copyright 1998, Gaussian, Inc.),
 the Gaussian(R) 94 system (copyright 1995, Gaussian, Inc.),
 the Gaussian 92(TM) system (copyright 1992, Gaussian, Inc.),
 the Gaussian 90(TM) system (copyright 1990, Gaussian, Inc.),
 the Gaussian 88(TM) system (copyright 1988, Gaussian, Inc.),
 the Gaussian 86(TM) system (copyright 1986, Carnegie Mellon
 University), and the Gaussian 82(TM) system (copyright 1983,
 Carnegie Mellon University). Gaussian is a federally registered
 trademark of Gaussian, Inc.
  
 This software contains proprietary and confidential information,
 including trade secrets, belonging to Gaussian, Inc.
  
 This software is provided under written license and may be
 used, copied, transmitted, or stored only in accord with that
 written license.
  
 The following legend is applicable only to US Government
 contracts under FAR:
  
                    RESTRICTED RIGHTS LEGEND
  
 Use, reproduction and disclosure by the US Government is
 subject to restrictions as set forth in subparagraphs (a)
 and (c) of the Commercial Computer Software - Restricted
 Rights clause in FAR 52.227-19.
  
 Gaussian, Inc.
 340 Quinnipiac St., Bldg. 40, Wallingford CT 06492
  
  
 ---------------------------------------------------------------
 Warning -- This program may not be used in any manner that
 competes with the business of Gaussian, Inc. or will provide
 assistance to any competitor of Gaussian, Inc.  The licensee
 of this program is prohibited from giving any competitor of
 Gaussian, Inc. access to this program.  By using this program,
 the user acknowledges that Gaussian, Inc. is engaged in the
 business of creating and licensing software in the field of
 computational chemistry and represents and warrants to the
 licensee that it is not a competitor of Gaussian, Inc. and that
 it will not use this program in any manner prohibited above.
 ---------------------------------------------------------------
  

 Cite this work as:
 Gaussian 03, Revision D.01,
 M. J. Frisch, G. W. Trucks, H. B. Schlegel, G. E. Scuseria, 
 M. A. Robb, J. R. Cheeseman, J. A. Montgomery, Jr., T. Vreven, 
 K. N. Kudin, J. C. Burant, J. M. Millam, S. S. Iyengar, J. Tomasi, 
 V. Barone, B. Mennucci, M. Cossi, G. Scalmani, N. Rega, 
 G. A. Petersson, H. Nakatsuji, M. Hada, M. Ehara, K. Toyota, 
 R. Fukuda, J. Hasegawa, M. Ishida, T. Nakajima, Y. Honda, O. Kitao, 
 H. Nakai, M. Klene, X. Li, J. E. Knox, H. P. Hratchian, J. B. Cross, 
 V. Bakken, C. Adamo, J. Jaramillo, R. Gomperts, R. E. Stratmann, 
 O. Yazyev, A. J. Austin, R. Cammi, C. Pomelli, J. W. Ochterski, 
 P. Y. Ayala, K. Morokuma, G. A. Voth, P. Salvador, J. J. Dannenberg, 
 V. G. Zakrzewski, S. Dapprich, A. D. Daniels, M. C. Strain, 
 O. Farkas, D. K. Malick, A. D. Rabuck, K. Raghavachari, 
 J. B. Foresman, J. V. Ortiz, Q. Cui, A. G. Baboul, S. Clifford, 
 J. Cioslowski, B. B. Stefanov, G. Liu, A. Liashenko, P. Piskorz, 
 I. Komaromi, R. L. Martin, D. J. Fox, T. Keith, M. A. Al-Laham, 
 C. Y. Peng, A. Nanayakkara, M. Challacombe, P. M. W. Gill, 
 B. Johnson, W. Chen, M. W. Wong, C. Gonzalez, and J. A. Pople, 
 Gaussian, Inc., Wallingford CT, 2004.
 
 ******************************************
 Gaussian 03:  IA32W-G03RevD.01 13-Oct-2005
                13-Dec-2007 
 ******************************************
 ---------
 # opt uff
 ---------
 1/6=10,10=10,14=-1,18=4000020,38=1,56=1,64=2/1,3;
 2/9=110,17=6,18=5,40=1/2;
 3/5=30,11=9,16=1,25=1,30=1/1;
 4/20=10,22=1001,24=3/2;
 7/44=-1/16;
 1/6=10,10=10,14=-1,18=4000020,64=2/3(2);
 2/9=110/2;
 99//99;
 2/9=110/2;
 3/5=30,11=9,16=1,25=1,30=1/1;
 4/16=2,20=10,22=1001,24=3/2;
 7/44=-1/16;
 1/6=10,10=10,14=-1,18=4000020,64=2/3(-4);
 2/9=110/2;
 99//99;
 -----------------
 a-me-histamine-g+
 -----------------
 Symbolic Z-matrix:
 Charge =  1 Multiplicity = 1
 C                    -0.19423   1.27058  -1.17128 
 C                     0.48777   0.26058  -0.61528 
 N                     0.60377   2.34158  -1.18028 
 C                     1.74177   1.91858  -0.62928 
 N                     1.73977   0.62658  -0.25328 
 C                    -0.03523  -1.13342  -0.40828 
 C                    -0.49823  -1.35542   1.03572 
 N                    -1.64923  -0.41942   1.25072 
 H                    -1.22023   1.31358  -1.57128 
 H                    -0.87223  -1.33042  -1.11928 
 C                    -1.06623  -2.75742   1.27772 
 H                     0.30977  -1.11842   1.76772 
 H                    -2.05223  -0.51042   2.20772 
 H                    -1.36923   0.57858   1.13472 
 H                    -2.42623  -0.59542   0.57872 
 H                     0.39277   3.26358  -1.53228 
 H                     2.61677   2.57458  -0.49228 
 H                     0.77677  -1.85742  -0.65528 
 H                    -1.91023  -2.98342   0.58572 
 H                    -0.28023  -3.53042   1.11772 
 H                    -1.43923  -2.86642   2.32172 
 
 I=    1 IAn=  6 Valence= 6.
          JB=  1 J=    2 IAn=  6 IBT= 2 Dist= 1.34D+00
          JB=  2 J=    3 IAn=  7 IBT=12 Dist= 1.34D+00
          JB=  3 J=    9 IAn=  1 IBT= 1 Dist= 1.10D+00
 I=    2 IAn=  6 Valence= 6.
          JB=  1 J=    1 IAn=  6 IBT= 2 Dist= 1.34D+00
          JB=  2 J=    5 IAn=  7 IBT=12 Dist= 1.35D+00
          JB=  3 J=    6 IAn=  6 IBT= 1 Dist= 1.50D+00
 I=    3 IAn=  7 Valence=36.
          JB=  1 J=    1 IAn=  6 IBT=12 Dist= 1.34D+00
          JB=  2 J=    4 IAn=  6 IBT=12 Dist= 1.33D+00
          JB=  3 J=   16 IAn=  1 IBT= 1 Dist= 1.01D+00
 I=    4 IAn=  6 Valence=36.
          JB=  1 J=    3 IAn=  7 IBT=12 Dist= 1.33D+00
          JB=  2 J=    5 IAn=  7 IBT=12 Dist= 1.35D+00
          JB=  3 J=   17 IAn=  1 IBT= 1 Dist= 1.10D+00
 I=    5 IAn=  7 Valence=24.
          JB=  1 J=    2 IAn=  6 IBT=12 Dist= 1.35D+00
          JB=  2 J=    4 IAn=  6 IBT=12 Dist= 1.35D+00
 I=    8 IAn=  7 Valence= 4.
          JB=  1 J=    7 IAn=  6 IBT= 1 Dist= 1.50D+00
          JB=  2 J=   13 IAn=  1 IBT= 1 Dist= 1.04D+00
          JB=  3 J=   14 IAn=  1 IBT= 1 Dist= 1.04D+00
          JB=  4 J=   15 IAn=  1 IBT= 1 Dist= 1.04D+00
 Include all MM classes
 MMInit generated parameter data with length LenPar=  2313.

 GradGradGradGradGradGradGradGradGradGradGradGradGradGradGradGradGradGrad
 Berny optimization.
 Initialization pass.
 No Z-matrix variables, so optimization will use Cartesian coordinates.
 Trust Radius=1.00D-01 FncErr=1.00D-07 GrdErr=1.00D-07
 Number of steps in this run=   2 maximum allowed number of steps=   2.
 GradGradGradGradGradGradGradGradGradGradGradGradGradGradGradGradGradGrad

                          Input orientation:                          
 ---------------------------------------------------------------------
 Center     Atomic     Atomic              Coordinates (Angstroms)
 Number     Number      Type              X           Y           Z
 ---------------------------------------------------------------------
    1          6      10061000       -0.194232    1.270580   -1.171275
    2          6      10061000        0.487768    0.260580   -0.615275
    3          7      10071000        0.603768    2.341580   -1.180275
    4          6      10061000        1.741768    1.918580   -0.629275
    5          7      10071000        1.739768    0.626580   -0.253275
    6          6      10061003       -0.035232   -1.133420   -0.408275
    7          6      10061003       -0.498232   -1.355420    1.035725
    8          7      10071000       -1.649232   -0.419420    1.250725
    9          1      10011000       -1.220232    1.313580   -1.571275
   10          1      10011000       -0.872232   -1.330420   -1.119275
   11          6      10061003       -1.066232   -2.757420    1.277725
   12          1      10011000        0.309768   -1.118420    1.767725
   13          1      10011000       -2.052232   -0.510420    2.207725
   14          1      10011000       -1.369232    0.578580    1.134725
   15          1      10011000       -2.426232   -0.595420    0.578725
   16          1      10011000        0.392768    3.263580   -1.532275
   17          1      10011000        2.616768    2.574580   -0.492275
   18          1      10011000        0.776768   -1.857420   -0.655275
   19          1      10011000       -1.910232   -2.983420    0.585725
   20          1      10011000       -0.280232   -3.530420    1.117725
   21          1      10011000       -1.439232   -2.866420    2.321725
 ---------------------------------------------------------------------
                    Distance matrix (angstroms):
                    1          2          3          4          5
     1  C    0.000000
     2  C    1.339537   0.000000
     3  N    1.335637   2.159454   0.000000
     4  C    2.112289   2.078864   1.333257   0.000000
     5  N    2.235580   1.353700   2.256336   1.345602   0.000000
     6  C    2.527185   1.503201   3.616619   3.538541   2.504446
     7  C    3.443710   2.511862   4.448918   4.302197   3.255532
     8  N    3.292295   2.917383   4.313802   4.527640   3.852461
     9  H    1.102055   2.222613   2.129939   3.166517   3.312204
    10  H    2.688418   2.152881   3.958015   4.198702   3.376736
    11  C    4.794035   3.886732   5.901734   5.778104   4.655003
    12  H    3.820871   2.758988   4.555078   4.125482   3.028922
    13  H    4.247560   3.874967   5.163989   5.323819   4.661390
    14  H    2.679016   2.571395   3.515697   3.819112   3.405103
    15  H    3.395038   3.263398   4.571756   5.015145   4.420528
    16  H    2.108777   3.141325   1.009212   2.108135   3.225526
    17  H    3.172251   3.146803   2.140047   1.102148   2.149640
    18  H    3.315642   2.138000   4.235228   3.897445   2.694296
    19  H    4.912049   4.209078   6.147729   6.232410   5.201781
    20  H    5.319447   4.238490   6.367311   6.068945   4.820860
    21  H    5.555704   4.702917   6.600085   6.459364   5.379379
                    6          7          8          9         10
     6  C    0.000000
     7  C    1.532576   0.000000
     8  N    2.422204   1.499040   0.000000
     9  H    2.957127   3.800170   3.339313   0.000000
    10  H    1.115750   2.187356   2.655287   2.704837   0.000000
    11  C    2.557916   1.531924   2.409743   4.971273   2.796350
    12  H    2.203231   1.115732   2.143262   4.405048   3.126793
    13  H    3.361529   2.121915   1.042372   4.277855   3.624049
    14  H    2.662959   2.123393   1.043005   2.808000   2.995297
    15  H    2.642062   2.122176   1.042252   3.117887   2.416267
    16  H    4.558527   5.359446   5.047707   2.530966   4.782847
    17  H    4.559542   5.242414   5.495529   4.180542   5.274019
    18  H    1.115585   2.176490   3.403844   3.857759   1.792268
    19  H    2.815344   2.201506   2.661662   4.857258   2.591694
    20  H    2.852071   2.187435   3.401495   5.619489   3.192904
    21  H    3.525252   2.195996   2.679356   5.716276   3.810678
                   11         12         13         14         15
    11  C    0.000000
    12  H    2.195404   0.000000
    13  H    2.624139   2.478368   0.000000
    14  H    3.352783   2.469724   1.674437   0.000000
    15  H    2.648102   3.028687   1.673542   1.674712   0.000000
    16  H    6.802736   5.486239   5.848820   4.174537   5.224458
    17  H    6.717709   4.905925   6.213436   4.745455   6.052090
    18  H    2.818357   2.575876   4.244340   3.707224   3.657131
    19  H    1.114574   3.131094   2.960874   3.644438   2.443123
    20  H    1.113968   2.566777   3.667217   4.250893   3.675604
    21  H    1.113978   2.534052   2.437109   3.644433   3.028144
                   16         17         18         19         20
    16  H    0.000000
    17  H    2.549999   0.000000
    18  H    5.209724   4.801541   0.000000
    19  H    6.986755   7.248943   3.166690   0.000000
    20  H    7.323515   6.946635   2.657011   1.799759   0.000000
    21  H    7.469032   7.346714   3.845941   1.802561   1.798275
                   21
    21  H    0.000000
 Stoichiometry    C6H12N3(1+)
 Framework group  C1[X(C6H12N3)]
 Deg. of freedom    57
 Full point group                 C1
 Largest Abelian subgroup         C1      NOp   1
 Largest concise Abelian subgroup C1      NOp   1
                         Standard orientation:                         
 ---------------------------------------------------------------------
 Center     Atomic     Atomic              Coordinates (Angstroms)
 Number     Number      Type              X           Y           Z
 ---------------------------------------------------------------------
    1          6      10061000       -1.410534    0.781483    0.650895
    2          6      10061000       -0.687922   -0.304032    0.344546
    3          7      10071000       -2.611917    0.641368    0.084353
    4          6      10061000       -2.556180   -0.536957   -0.536950
    5          7      10071000       -1.382333   -1.183389   -0.415078
    6          6      10061003        0.727625   -0.559404    0.781153
    7          6      10061003        1.730346   -0.233306   -0.331051
    8          7      10071000        1.608080    1.239708   -0.580855
    9          1      10011000       -1.154327    1.674042    1.244377
   10          1      10011000        0.952985    0.039387    1.695244
   11          6      10061003        3.187450   -0.453070    0.087691
   12          1      10011000        1.495752   -0.786166   -1.271354
   13          1      10011000        2.271963    1.567113   -1.314752
   14          1      10011000        0.650990    1.504637   -0.899683
   15          1      10011000        1.806757    1.798741    0.276057
   16          1      10011000       -3.389955    1.282911    0.124210
   17          1      10011000       -3.404618   -0.950739   -1.105866
   18          1      10011000        0.822761   -1.633774    1.066119
   19          1      10011000        3.446826    0.137492    0.996666
   20          1      10011000        3.370032   -1.527591    0.317893
   21          1      10011000        3.889309   -0.158150   -0.725550
 ---------------------------------------------------------------------
 Rotational constants (GHZ):      4.0962698      0.9281631      0.8558142
 Standard basis: Dummy (5D, 7F)
 There are    21 symmetry adapted basis functions of A   symmetry.
 Integral buffers will be    262144 words long.
 Raffenetti 1 integral format.
 Two-electron integral symmetry is turned on.
    21 basis functions,    21 primitive gaussians,    21 cartesian basis functions
    13 alpha electrons       13 beta electrons
       nuclear repulsion energy        68.5687511637 Hartrees.
 NAtoms=   21 NActive=   21 NUniq=   21 SFac= 7.50D-01 NAtFMM=   80 NAOKFM=F Big=F
 UFF calculation of energy and first derivatives.
 MO and density RWFs will be updated without deorthogonalization.
 NRF= 0 NRA=   0 NVA=  21 HaveQM=F
 Convergence limit is  0.750E-04 MaxStp=  5000 StMxLn= 1.00D-04 StpMin= 1.00D-06.
 Convergence criteria           0.00011250 0.00007500 0.00045000 0.00030000
  Step  NS  ND Rises OKQ   Scale  Max. Force  RMS Force Max. Disp.  RMS Disp.     Energy   Flag
     1   0   0   F    T  1.00D+00 0.07379355 0.01725750 0.07379355 0.01725750    0.0985997 ----
     2   0   0   F    F -2.54D-01 0.07379355 0.01725750 0.07379355 0.01725750    0.0924133 ----
     3   0   0   F    T  1.70D+00 0.02224719 0.00699890 0.02204309 0.00755258    0.0916046 ----
     4   0   0   F    F -2.64D-01 0.02224719 0.00699890 0.03758104 0.01287632    0.0899167 ----
     5   0   0   F    T  1.60D+00 0.01558524 0.00477282 0.01895223 0.00591806    0.0896676 ----
     6   0   0   F    F  1.23D-01 0.01558524 0.00477282 0.03035519 0.00947876    0.0883936 ----
     7   0   0   F    T  1.51D+00 0.01781593 0.00454295 0.02036131 0.00703859    0.0883781 ----
     8   0   0   F    F  2.74D-01 0.01781593 0.00454295 0.03079277 0.01064458    0.0871839 ----
     9   0   0   F    T  3.23D+00 0.00823004 0.00296272 0.01058060 0.00419592    0.0871260 ----
    10   0   0   F    F -2.24D-01 0.00823004 0.00296272 0.03419430 0.01356035    0.0864903 ----
    11   0   0   F    T  1.93D+00 0.01084056 0.00307163 0.01404310 0.00546659    0.0864327 ----
    12   0   0   F    F -2.71D-01 0.01084056 0.00307163 0.02703810 0.01052519    0.0860737 ----
    13   0   0   F    T  1.72D+00 0.00710512 0.00251782 0.01327261 0.00446010    0.0860159 ----
    14   0   0   F    F  8.99D-02 0.00710512 0.00251782 0.02282079 0.00766865    0.0856446 ----
    15   0   0   F    T  2.65D+00 0.00506523 0.00188798 0.01154321 0.00315151    0.0856421 ----
    16   0   0   F    F -2.38D-01 0.00506523 0.00188798 0.03061225 0.00835771    0.0854371 ----
    17   0   0   F    T  1.40D+00 0.00680667 0.00213370 0.01605715 0.00456329    0.0854151 ----
    18   0   0   F    F  4.08D-01 0.00680667 0.00213370 0.02242232 0.00637222    0.0851570 ----
    19   0   0   F    T  2.19D+00 0.00572368 0.00190078 0.01259710 0.00410060    0.0851334 ----
    20   0   0   F    F -4.02D-01 0.00572368 0.00190078 0.02756243 0.00897209    0.0850518 ----
    21   0   0   F    T  2.77D+00 0.00482420 0.00116539 0.00612174 0.00193863    0.0849845 ----
    22   0   0   F    F -3.89D-01 0.00482420 0.00116539 0.01693788 0.00536387    0.0849414 ----
    23   0   0   F    T  3.01D+00 0.00230308 0.00074531 0.00322881 0.00108870    0.0849122 ----
    24   0   0   F    F  1.11D-01 0.00230308 0.00074531 0.00972684 0.00327972    0.0848542 ----
    25   0   0   F    T  2.34D+00 0.00198602 0.00082223 0.00458923 0.00155946    0.0848536 ----
    26   0   0   F    F -2.89D-01 0.00198602 0.00082223 0.01072562 0.00364466    0.0848240 ----
    27   0   0   F    T  1.62D+00 0.00175710 0.00077928 0.00467835 0.00160161    0.0848182 ----
    28   0   0   F    F  2.28D-01 0.00175710 0.00077928 0.00756902 0.00259122    0.0847815 ----
    29   0   0   F    T  2.73D+00 0.00163657 0.00061302 0.00321906 0.00116563    0.0847802 ----
    30   0   0   F    F -3.65D-01 0.00163657 0.00061302 0.00878483 0.00318100    0.0847665 ----
    31   0   0   F    T  1.08D+00 0.00264574 0.00074433 0.00488377 0.00187299    0.0847597 ----
    32   0   0   F    F  2.03D+00 0.00264574 0.00074433 0.00526292 0.00201841    0.0847283 ----
    33   0   0   F    T  2.76D+00 0.00206995 0.00078267 0.00540977 0.00221841    0.0847027 ----
    34   0   0   F    F -4.07D-01 0.00206995 0.00078267 0.01492030 0.00611844    0.0846861 ----
    35   0   0   F    T  2.39D+00 0.00225198 0.00061821 0.00359036 0.00151725    0.0846712 ----
    36   0   0   F    F  1.36D-01 0.00225198 0.00061821 0.00858201 0.00362667    0.0846389 ----
    37   0   0   F    T  2.45D+00 0.00224751 0.00062759 0.00372716 0.00168394    0.0846384 ----
    38   0   0   F    F -3.00D-01 0.00224751 0.00062759 0.00912176 0.00412122    0.0846211 ----
    39   0   0   F    T  1.75D+00 0.00181957 0.00060025 0.00404413 0.00164967    0.0846172 ----
    40   0   0   F    F  3.43D-01 0.00181957 0.00060025 0.00707402 0.00288562    0.0845923 ----
    41   0   0   F    T  1.53D+00 0.00240215 0.00072841 0.00641396 0.00253656    0.0845905 ----
    42   0   0   F    F  2.75D-01 0.00240215 0.00072841 0.00979787 0.00387481    0.0845595 ----
    43   0   0   F    T  1.71D+00 0.00290916 0.00076420 0.00732320 0.00289482    0.0845580 ----
    44   0   0   F    F  3.08D-01 0.00290916 0.00076420 0.01249345 0.00493859    0.0845192 ----
    45   0   0   F    T  2.81D+00 0.00204921 0.00066362 0.00553691 0.00229624    0.0845170 ----
    46   0   0   F    F  1.67D-01 0.00204921 0.00066362 0.01557944 0.00646103    0.0844724 ----
    47   0   0   F    T  2.74D+00 0.00152081 0.00071194 0.00712442 0.00274901    0.0844715 ----
    48   0   0   F    F  2.01D-01 0.00152081 0.00071194 0.01953284 0.00753688    0.0844205 ----
    49   0   0   F    T  1.46D+00 0.00300434 0.00105810 0.01637692 0.00618750    0.0844190 ----
    50   0   0   F    F  2.77D-01 0.00300434 0.00105810 0.02394885 0.00904832    0.0843561 ----
    51   0   0   F    T  1.82D+00 0.00220499 0.00106670 0.01706821 0.00634930    0.0843529 ----
    52   0   0   F    F  4.46D-01 0.00220499 0.00106670 0.03106001 0.01155419    0.0842669 ----
    53   0   0   F    T  2.73D+00 0.00363748 0.00106231 0.01666381 0.00613172    0.0842578 ----
    54   0   0   F    F -3.58D-01 0.00363748 0.00106231 0.04541090 0.01670968    0.0842150 ----
    55   0   0   F    T  2.28D+00 0.00211927 0.00093451 0.01210878 0.00470030    0.0841955 ----
    56   0   0   F    F -2.51D-01 0.00211927 0.00093451 0.02763246 0.01072617    0.0841538 ----
    57   0   0   F    T  1.64D+00 0.00297795 0.00094435 0.01132802 0.00490083    0.0841486 ----
    58   0   0   F    F  4.07D-01 0.00297795 0.00094435 0.01856365 0.00803117    0.0840893 ----
    59   0   0   F    T  1.89D+00 0.00362169 0.00103305 0.01296372 0.00599120    0.0840838 ----
    60   0   0   F    F -2.04D-02 0.00362169 0.00103305 0.02445473 0.01130179    0.0840218 ----
    61   0   0   F    T  4.75D+00 0.00180982 0.00062848 0.00533873 0.00232970    0.0840218 ----
    62   0   0   F    F -4.35D-01 0.00180982 0.00062848 0.02537020 0.01107096    0.0840082 ----
    63   0   0   F    T  2.18D+00 0.00266873 0.00068703 0.00712959 0.00287345    0.0839884 ----
    64   0   0   F    F -2.89D-01 0.00266873 0.00068703 0.01552054 0.00625526    0.0839691 ----
    65   0   0   F    T  2.21D+00 0.00159487 0.00056381 0.00539552 0.00201781    0.0839653 ----
    66   0   0   F    F -1.04D-02 0.00159487 0.00056381 0.01189878 0.00444989    0.0839435 ----
    67   0   0   F    T  1.57D+00 0.00195536 0.00065632 0.00730995 0.00281251    0.0839435 ----
    68   0   0   F    F  1.60D-01 0.00195536 0.00065632 0.01144515 0.00440352    0.0839193 ----
    69   0   0   F    T  1.97D+00 0.00273835 0.00062082 0.00683381 0.00259026    0.0839188 ----
    70   0   0   F    F -1.40D-02 0.00273835 0.00062082 0.01347451 0.00510732    0.0838952 ----
    71   0   0   F    T  3.27D+00 0.00108390 0.00046812 0.00445822 0.00153889    0.0838952 ----
    72   0   0   F    F  7.14D-01 0.00108390 0.00046812 0.01458844 0.00503563    0.0838632 ----
    73   0   0   F    T  1.26D+00 0.00297732 0.00098300 0.02003774 0.00684864    0.0838565 ----
    74   0   0   F    F  2.76D-01 0.00297732 0.00098300 0.02525527 0.00863193    0.0838098 ----
    75   0   0   F    T  3.47D+00 0.00148462 0.00066525 0.00916099 0.00317658    0.0838075 ----
    76   0   0   F    F -4.33D-01 0.00148462 0.00066525 0.03175536 0.01101120    0.0837961 ----
    77   0   0   F    T  2.11D+00 0.00153479 0.00063403 0.00803882 0.00295880    0.0837802 ----
    78   0   0   F    F  9.29D-01 0.00153479 0.00063403 0.01695021 0.00623876    0.0837405 ----
    79   0   0   F    T  1.81D+00 0.00262241 0.00094663 0.01832739 0.00665901    0.0837284 ----
    80   0   0   F    F -1.88D-01 0.00262241 0.00094663 0.03312169 0.01203431    0.0836892 ----
    81   0   0   F    T  3.01D+00 0.00212202 0.00066261 0.00882267 0.00324802    0.0836870 ----
    82   0   0   F    F -2.01D-01 0.00212202 0.00066261 0.02655212 0.00977502    0.0836558 ----
    83   0   0   F    T  1.60D+00 0.00298588 0.00080761 0.01304239 0.00489228    0.0836537 ----
    84   0   0   F    F  2.07D-01 0.00298588 0.00080761 0.02081835 0.00780909    0.0836154 ----
    85   0   0   F    T  2.39D+00 0.00227664 0.00071827 0.01010108 0.00393735    0.0836142 ----
    86   0   0   F    F -4.20D-01 0.00227664 0.00071827 0.02418086 0.00942557    0.0836035 ----
    87   0   0   F    T  2.24D+00 0.00220667 0.00056177 0.00622573 0.00243879    0.0835916 ----
    88   0   0   F    F  4.91D-01 0.00220667 0.00056177 0.01396029 0.00546862    0.0835620 ----
    89   0   0   F    T  1.78D+00 0.00257512 0.00076493 0.01155209 0.00457736    0.0835584 ----
    90   0   0   F    F  6.39D-01 0.00257512 0.00076493 0.02057757 0.00815358    0.0835127 ----
    91   0   0   F    T  4.17D+00 0.00192282 0.00063659 0.00788706 0.00320896    0.0835045 ----
    92   0   0   T    F  4.45D-01 0.00192282 0.00063659 0.03285411 0.01336717    0.0835174 ----
    93   0   0   F    T  1.77D+00 0.00191378 0.00064540 0.00879010 0.00336699    0.0834809 ----
    94   0   0   F    F  4.99D-01 0.00191378 0.00064540 0.01551915 0.00594451    0.0834500 ----
    95   0   0   F    T  2.17D+00 0.00193687 0.00070422 0.01105656 0.00410695    0.0834462 ----
    96   0   0   F    F -3.75D-01 0.00193687 0.00070422 0.02398233 0.00890821    0.0834326 ----
    97   0   0   F    T  2.36D+00 0.00159606 0.00052607 0.00642021 0.00236154    0.0834250 ----
    98   0   0   F    F -2.83D-01 0.00159606 0.00052607 0.01513919 0.00556863    0.0834126 ----
    99   0   0   F    T  2.97D+00 0.00103687 0.00038772 0.00358730 0.00134291    0.0834103 ----
   100   0   0   F    F -3.86D-01 0.00103687 0.00038772 0.01066673 0.00399311    0.0834050 ----
   101   0   0   F    T  2.20D+00 0.00084079 0.00034446 0.00272080 0.00111430    0.0834016 ----
   102   0   0   F    F -3.25D-01 0.00084079 0.00034446 0.00598827 0.00245249    0.0833974 ----
   103   0   0   F    T  2.02D+00 0.00099462 0.00028645 0.00221193 0.00082130    0.0833961 ----
   104   0   0   F    F  2.60D-01 0.00099462 0.00028645 0.00445790 0.00165524    0.0833898 ----
   105   0   0   F    T  2.49D+00 0.00115632 0.00028088 0.00233384 0.00083905    0.0833895 ----
   106   0   0   F    F -4.32D-01 0.00115632 0.00028088 0.00580329 0.00208636    0.0833880 ----
   107   0   0   F    T  2.55D+00 0.00066731 0.00019894 0.00119257 0.00046527    0.0833860 ----
   108   0   0   F    F -1.25D-01 0.00066731 0.00019894 0.00303803 0.00118527    0.0833833 ----
   109   0   0   F    T  3.07D+00 0.00048938 0.00015942 0.00093466 0.00033828    0.0833832 ----
   110   0   0   F    F -3.70D-01 0.00048938 0.00015942 0.00286614 0.00103735    0.0833822 ----
   111   0   0   F    T  1.00D+00 0.00055022 0.00022004 0.00188026 0.00068094    0.0833817 ----
   112   0   0   F    F  2.12D+00 0.00055022 0.00022004 0.00188026 0.00068094    0.0833791 ----
   113   0   0   F    T  3.49D+00 0.00050202 0.00020216 0.00181896 0.00060901    0.0833769 ----
   114   0   0   F    F -9.81D-02 0.00050202 0.00020216 0.00634582 0.00212466    0.0833729 ----
   115   0   0   F    T  2.12D+00 0.00073449 0.00024175 0.00285652 0.00090356    0.0833729 ----
   116   0   0   F    F -2.55D-01 0.00073449 0.00024175 0.00605820 0.00191629    0.0833703 ----
   117   0   0   F    T  2.65D+00 0.00039580 0.00018123 0.00185571 0.00053872    0.0833700 ----
   118   0   0   F    F -1.58D-01 0.00039580 0.00018123 0.00491549 0.00142700    0.0833677 ----
   119   0   0   F    T  1.85D+00 0.00066277 0.00019446 0.00214131 0.00065040    0.0833676 ----
   120   0   0   F    F  6.42D-01 0.00066277 0.00019446 0.00395683 0.00120184    0.0833646 ----
   121   0   0   F    T  2.36D+00 0.00060407 0.00021643 0.00253552 0.00083525    0.0833640 ----
   122   0   0   F    F -2.33D-01 0.00060407 0.00021643 0.00598968 0.00197311    0.0833616 ----
   123   0   0   F    T  1.64D+00 0.00064924 0.00022422 0.00271125 0.00092418    0.0833614 ----
   124   0   0   F    F  5.80D-01 0.00064924 0.00022422 0.00444041 0.00151359    0.0833578 ----
   125   0   0   F    T  1.93D+00 0.00090981 0.00025695 0.00345643 0.00124034    0.0833573 ----
   126   0   0   F    F -8.19D-02 0.00090981 0.00025695 0.00666561 0.00239196    0.0833536 ----
   127   0   0   F    T  2.54D+00 0.00044309 0.00021117 0.00206390 0.00086376    0.0833536 ----
   128   0   0   F    F  2.56D-02 0.00044309 0.00021117 0.00524758 0.00219617    0.0833499 ----
   129   0   0   F    T  1.49D+00 0.00103278 0.00027712 0.00358118 0.00151272    0.0833499 ----
   130   0   0   F    F  2.76D-01 0.00103278 0.00027712 0.00533232 0.00225242    0.0833455 ----
   131   0   0   F    T  1.93D+00 0.00069596 0.00027338 0.00380789 0.00149072    0.0833453 ----
   132   0   0   F    F -5.63D-02 0.00069596 0.00027338 0.00734048 0.00287366    0.0833410 ----
   133   0   0   F    T  3.70D+00 0.00056811 0.00018845 0.00205059 0.00073380    0.0833410 ----
   134   0   0   T    F  4.99D-01 0.00056811 0.00018845 0.00757796 0.00271175    0.0833410 ----
   135   0   0   F    T  2.68D+00 0.00055330 0.00015272 0.00147040 0.00050562    0.0833390 ----
   136   0   0   F    F -2.92D-01 0.00055330 0.00015272 0.00393786 0.00135409    0.0833378 ----
   137   0   0   F    T  2.18D+00 0.00038288 0.00013850 0.00125767 0.00043883    0.0833376 ----
   138   0   0   F    F  3.27D-01 0.00038288 0.00013850 0.00274774 0.00095875    0.0833359 ----
   139   0   0   F    T  1.71D+00 0.00058597 0.00017780 0.00205527 0.00074476    0.0833358 ----
   140   0   0   F    F -1.70D-01 0.00058597 0.00017780 0.00351153 0.00127246    0.0833345 ----
   141   0   0   F    T  2.27D+00 0.00051500 0.00013744 0.00114505 0.00046567    0.0833344 ----
   142   0   0   F    F -2.44D-01 0.00051500 0.00013744 0.00259851 0.00105677    0.0833335 ----
   143   0   0   F    T  2.17D+00 0.00033755 0.00011885 0.00079878 0.00036791    0.0833334 ----
   144   0   0   F    F  6.51D-02 0.00033755 0.00011885 0.00173465 0.00079895    0.0833324 ----
   145   0   0   F    T  2.18D+00 0.00030247 0.00011942 0.00087091 0.00039021    0.0833324 ----
   146   0   0   F    F  5.03D-01 0.00030247 0.00011942 0.00189927 0.00085097    0.0833311 ----
   147   0   0   F    T  2.09D+00 0.00047237 0.00014735 0.00142659 0.00061225    0.0833309 ----
   148   0   0   F    F -4.53D-02 0.00047237 0.00014735 0.00298020 0.00127902    0.0833295 ----
   149   0   0   F    T  1.34D+00 0.00045853 0.00017837 0.00230450 0.00091461    0.0833295 ----
   150   0   0   F    F  9.09D-01 0.00045853 0.00017837 0.00307676 0.00122110    0.0833276 ----
   151   0   0   F    T  4.01D+00 0.00031247 0.00014009 0.00165732 0.00058073    0.0833270 ----
   152   0   0   F    F -4.89D-01 0.00031247 0.00014009 0.00665130 0.00233062    0.0833269 ----
   153   0   0   F    T  2.38D+00 0.00037302 0.00012786 0.00156832 0.00050043    0.0833257 ----
   154   0   0   F    F -1.76D-01 0.00037302 0.00012786 0.00373255 0.00119101    0.0833247 ----
   155   0   0   F    T  1.27D+00 0.00052638 0.00015745 0.00254991 0.00077488    0.0833247 ----
   156   0   0   F    F  1.68D+00 0.00052638 0.00015745 0.00322843 0.00098108    0.0833231 ----
   157   0   0   F    T  2.14D+00 0.00047342 0.00019687 0.00412817 0.00122832    0.0833220 ----
   158   0   0   F    F -4.01D-01 0.00047342 0.00019687 0.00885114 0.00263362    0.0833212 ----
   159   0   0   F    T  2.75D+00 0.00037817 0.00013262 0.00193727 0.00057427    0.0833205 ----
   160   0   0   F    F  6.96D-02 0.00037817 0.00013262 0.00531813 0.00157646    0.0833189 ----
   161   0   0   F    T  1.55D+00 0.00050226 0.00018133 0.00362223 0.00108903    0.0833188 ----
   162   0   0   F    F  8.51D-01 0.00050226 0.00018133 0.00560846 0.00168619    0.0833165 ----
   163   0   0   F    T  2.44D+00 0.00059462 0.00019546 0.00426470 0.00127752    0.0833159 ----
   164   0   0   F    F -3.12D-01 0.00059462 0.00019546 0.01041996 0.00312137    0.0833143 ----
   165   0   0   F    T  2.92D+00 0.00038441 0.00014743 0.00251795 0.00073633    0.0833139 ----
   166   0   0   F    F  6.96D-01 0.00038441 0.00014743 0.00734028 0.00214654    0.0833110 ----
   167   0   0   F    T  2.21D+00 0.00060097 0.00021965 0.00565216 0.00164696    0.0833105 ----
   168   0   0   F    F -3.23D-01 0.00060097 0.00021965 0.01249137 0.00363980    0.0833087 ----
   169   0   0   F    T  1.74D+00 0.00050756 0.00020237 0.00482737 0.00141850    0.0833082 ----
   170   0   0   F    F  6.37D-01 0.00050756 0.00020237 0.00838628 0.00246426    0.0833051 ----
   171   0   0   F    T  1.82D+00 0.00063302 0.00025155 0.00746681 0.00221518    0.0833045 ----
   172   0   0   F    T  3.34D+00 0.00049093 0.00018539 0.00402812 0.00120835    0.0833009 ----
   173   0   0   T    F  3.43D-01 0.00049093 0.00018539 0.01344855 0.00403426    0.0833042 ----
   174   0   0   F    T  2.92D+00 0.00026884 0.00011379 0.00149997 0.00047260    0.0832996 ----
   175   0   0   F    F -8.16D-02 0.00026884 0.00011379 0.00438723 0.00138230    0.0832986 ----
   176   0   0   F    T  1.39D+00 0.00048099 0.00015724 0.00280483 0.00091467    0.0832986 ----
   177   0   0   F    F  3.20D-01 0.00048099 0.00015724 0.00389313 0.00126957    0.0832972 ----
   178   0   0   F    T  2.76D+00 0.00035626 0.00012693 0.00181038 0.00060799    0.0832971 ----
   179   0   0   F    F -2.21D-02 0.00035626 0.00012693 0.00498945 0.00167563    0.0832958 ----
   180   0   0   F    T  2.37D+00 0.00037570 0.00013426 0.00204357 0.00069253    0.0832958 ----
   181   0   0   F    F -1.41D-01 0.00037570 0.00013426 0.00483532 0.00163860    0.0832946 ----
   182   0   0   F    T  2.89D+00 0.00028074 0.00011116 0.00140477 0.00048782    0.0832946 ----
   183   0   0   T    F  4.29D-01 0.00028074 0.00011116 0.00405496 0.00140812    0.0832950 ----
   184   0   0   F    T  1.95D+00 0.00021106 0.00008678 0.00093466 0.00030981    0.0832941 ----
   185   0   0   F    T  1.85D+00 0.00026237 0.00008895 0.00114062 0.00032559    0.0832936 ----
   186   0   0   F    F  7.86D-01 0.00026237 0.00008895 0.00211578 0.00060396    0.0832929 ----
   187   0   0   F    T  3.89D+00 0.00018554 0.00007470 0.00101053 0.00027738    0.0832928 -+-+
   188   0   0   F    F -4.25D-01 0.00018554 0.00007470 0.00393026 0.00107881    0.0832926 -+--
   189   0   0   F    T  1.54D+00 0.00021456 0.00008961 0.00147175 0.00040174    0.0832924 ----
   190   0   0   F    F  2.72D-01 0.00021456 0.00008961 0.00227129 0.00061999    0.0832919 ----
   191   0   0   F    T  2.71D+00 0.00020404 0.00007494 0.00098917 0.00029063    0.0832919 -+-+
   192   0   0   F    F  7.33D-02 0.00020404 0.00007494 0.00268444 0.00078872    0.0832914 -+--
   193   0   0   F    T  1.55D+00 0.00028381 0.00010173 0.00167446 0.00054479    0.0832914 ----
   194   0   0   F    F  4.35D-01 0.00028381 0.00010173 0.00260192 0.00084655    0.0832907 ----
   195   0   0   F    T  2.28D+00 0.00025258 0.00009973 0.00162759 0.00053322    0.0832906 ----
   196   0   0   F    F -2.08D-01 0.00025258 0.00009973 0.00370843 0.00121493    0.0832901 ----
   197   0   0   F    T  2.04D+00 0.00024907 0.00009293 0.00146664 0.00047260    0.0832901 ----
   198   0   0   F    F  7.68D-01 0.00024907 0.00009293 0.00298593 0.00096215    0.0832893 ----
   199   0   0   F    T  1.60D+00 0.00034590 0.00013886 0.00323241 0.00106443    0.0832891 ----
   200   0   0   F    T  2.84D+00 0.00026232 0.00010284 0.00174181 0.00059807    0.0832881 ----
   201   0   0   F    F -4.35D-01 0.00026232 0.00010284 0.00495447 0.00170118    0.0832879 ----
   202   0   0   F    T  1.91D+00 0.00032993 0.00009388 0.00143281 0.00050364    0.0832876 ----
   203   0   0   F    T  2.54D+00 0.00020740 0.00007892 0.00108879 0.00037781    0.0832871 ----
   204   0   0   F    F -1.94D-01 0.00020740 0.00007892 0.00276923 0.00096092    0.0832867 ----
   205   0   0   F    T  2.89D+00 0.00027858 0.00006754 0.00078094 0.00026843    0.0832867 -+-+
   206   0   0   F    F -3.91D-01 0.00027858 0.00006754 0.00225395 0.00077476    0.0832865 -+--
   207   0   0   F    T  2.82D+00 0.00012584 0.00005141 0.00050012 0.00016740    0.0832864 -+-+
   208   0   0   F    F -4.19D-01 0.00012584 0.00005141 0.00141022 0.00047202    0.0832864 -+--
   209   0   0   F    T  2.38D+00 0.00012717 0.00004121 0.00031475 0.00011517    0.0832863 -+++
   210   0   0   F    F -3.89D-01 0.00012717 0.00004121 0.00074924 0.00027414    0.0832863 -+-+
   211   0   0   F    T  1.60D+00 0.00013668 0.00003791 0.00024626 0.00010456    0.0832862 -+++
   212   0   0   F    F  3.01D-01 0.00013668 0.00003791 0.00039468 0.00016757    0.0832861 -+++
   213   0   0   F    T  2.86D+00 0.00007172 0.00003095 0.00019445 0.00007628    0.0832861 ====
 Energy=    0.083286130109 NIter=   0.
 Dipole moment=       0.000000       0.000000       0.000000
 ***** Axes restored to original set *****
 -------------------------------------------------------------------
 Center     Atomic                   Forces (Hartrees/Bohr)
 Number     Number              X              Y              Z
 -------------------------------------------------------------------
    1          6           0.000041456   -0.000019471   -0.000010313
    2          6           0.000018378    0.000063780   -0.000010601
    3          7           0.000030091    0.000020686    0.000023541
    4          6          -0.000024157   -0.000001015   -0.000031086
    5          7          -0.000033884    0.000045984   -0.000030300
    6          6          -0.000075877   -0.000032935    0.000010662
    7          6           0.000058098    0.000007592   -0.000010418
    8          7          -0.000065777   -0.000027063    0.000029725
    9          1           0.000039790   -0.000015487   -0.000030413
   10          1           0.000041997    0.000026174    0.000014031
   11          6          -0.000025829    0.000045218    0.000023220
   12          1          -0.000006381    0.000000045    0.000024168
   13          1          -0.000019454   -0.000056900    0.000042874
   14          1          -0.000003542    0.000031129   -0.000015537
   15          1           0.000012982   -0.000034664    0.000026308
   16          1           0.000008822   -0.000021666    0.000022142
   17          1           0.000043538    0.000040286   -0.000030347
   18          1          -0.000013493   -0.000000157   -0.000047687
   19          1           0.000007343   -0.000028769    0.000013278
   20          1          -0.000032219   -0.000025185    0.000009368
   21          1          -0.000001885   -0.000017582   -0.000022615
 -------------------------------------------------------------------
 Cartesian Forces:  Max     0.000075877 RMS     0.000030954

 GradGradGradGradGradGradGradGradGradGradGradGradGradGradGradGradGradGrad
 Berny optimization.
 Search for a local minimum.
 Step number   1 out of a maximum of   2
 All quantities printed in internal units (Hartrees-Bohrs-Radians)
 Second derivative matrix not updated -- unit matrix used.
 RFO step:  Lambda=-6.03652873D-08.
 Linear search not attempted -- first point.
 TrRot=  0.000000  0.000000  0.000000  0.000000  0.000000  0.000000
 Variable       Old X    -DE/DX   Delta X   Delta X   Delta X     New X
                                 (Linear)    (Quad)   (Total)
    X1       -0.15381   0.00004   0.00000   0.00004   0.00004  -0.15377
    Y1        2.33775  -0.00002   0.00000  -0.00002  -0.00002   2.33773
    Z1       -2.64803  -0.00001   0.00000  -0.00001  -0.00001  -2.64804
    X2        0.79106   0.00002   0.00000   0.00002   0.00002   0.79108
    Y2        0.52259   0.00006   0.00000   0.00006   0.00006   0.52266
    Z2       -1.19660  -0.00001   0.00000  -0.00001  -0.00001  -1.19661
    X3        1.35187   0.00003   0.00000   0.00003   0.00003   1.35190
    Y3        4.38451   0.00002   0.00000   0.00002   0.00002   4.38453
    Z3       -2.50577   0.00002   0.00000   0.00002   0.00002  -2.50575
    X4        3.22605  -0.00002   0.00000  -0.00002  -0.00002   3.22602
    Y4        3.72045   0.00000   0.00000   0.00000   0.00000   3.72044
    Z4       -0.92091  -0.00003   0.00000  -0.00003  -0.00003  -0.92094
    X5        2.92665  -0.00003   0.00000  -0.00003  -0.00003   2.92662
    Y5        1.34132   0.00005   0.00000   0.00005   0.00005   1.34136
    Z5       -0.08514  -0.00003   0.00000  -0.00003  -0.00003  -0.08517
    X6       -0.31041  -0.00008   0.00000  -0.00008  -0.00008  -0.31048
    Y6       -2.06362  -0.00003   0.00000  -0.00003  -0.00003  -2.06365
    Z6       -0.82204   0.00001   0.00000   0.00001   0.00001  -0.82203
    X7       -1.09753   0.00006   0.00000   0.00006   0.00006  -1.09747
    Y7       -2.50807   0.00001   0.00000   0.00001   0.00001  -2.50806
    Z7        1.94940  -0.00001   0.00000  -0.00001  -0.00001   1.94939
    X8       -3.15851  -0.00007   0.00000  -0.00007  -0.00007  -3.15858
    Y8       -0.80529  -0.00003   0.00000  -0.00003  -0.00003  -0.80532
    Z8        2.68277   0.00003   0.00000   0.00003   0.00003   2.68280
    X9       -1.85965   0.00004   0.00000   0.00004   0.00004  -1.85962
    Y9        2.22780  -0.00002   0.00000  -0.00002  -0.00002   2.22778
    Z9       -3.77171  -0.00003   0.00000  -0.00003  -0.00003  -3.77174
   X10       -1.97344   0.00004   0.00000   0.00004   0.00004  -1.97339
   Y10       -2.32921   0.00003   0.00000   0.00003   0.00003  -2.32918
   Z10       -2.08113   0.00001   0.00000   0.00001   0.00001  -2.08112
   X11       -1.90404  -0.00003   0.00000  -0.00003  -0.00003  -1.90407
   Y11       -5.26626   0.00005   0.00000   0.00005   0.00005  -5.26622
   Z11        2.32866   0.00002   0.00000   0.00002   0.00002   2.32868
   X12        0.55944  -0.00001   0.00000  -0.00001  -0.00001   0.55943
   Y12       -2.15050   0.00000   0.00000   0.00000   0.00000  -2.15050
   Z12        3.19648   0.00002   0.00000   0.00002   0.00002   3.19650
   X13       -3.73373  -0.00002   0.00000  -0.00002  -0.00002  -3.73375
   Y13       -1.10968  -0.00006   0.00000  -0.00006  -0.00006  -1.10974
   Z13        4.54686   0.00004   0.00000   0.00004   0.00004   4.54691
   X14       -2.62714   0.00000   0.00000   0.00000   0.00000  -2.62714
   Y14        1.09276   0.00003   0.00000   0.00003   0.00003   1.09279
   Z14        2.58075  -0.00002   0.00000  -0.00002  -0.00002   2.58073
   X15       -4.75524   0.00001   0.00000   0.00001   0.00001  -4.75523
   Y15       -1.02357  -0.00003   0.00000  -0.00003  -0.00003  -1.02360
   Z15        1.54076   0.00003   0.00000   0.00003   0.00003   1.54079
   X16        1.11511   0.00001   0.00000   0.00001   0.00001   1.11512
   Y16        6.11353  -0.00002   0.00000  -0.00002  -0.00002   6.11351
   Z16       -3.42550   0.00002   0.00000   0.00002   0.00002  -3.42548
   X17        4.77513   0.00004   0.00000   0.00004   0.00004   4.77517
   Y17        4.94273   0.00004   0.00000   0.00004   0.00004   4.94277
   Z17       -0.38629  -0.00003   0.00000  -0.00003  -0.00003  -0.38632
   X18        1.14378  -0.00001   0.00000  -0.00001  -0.00001   1.14376
   Y18       -3.47260   0.00000   0.00000   0.00000   0.00000  -3.47260
   Z18       -1.38084  -0.00005   0.00000  -0.00005  -0.00005  -1.38088
   X19       -3.55852   0.00001   0.00000   0.00001   0.00001  -3.55851
   Y19       -5.72364  -0.00003   0.00000  -0.00003  -0.00003  -5.72367
   Z19        1.11920   0.00001   0.00000   0.00001   0.00001   1.11921
   X20       -0.32357  -0.00003   0.00000  -0.00003  -0.00003  -0.32360
   Y20       -6.55927  -0.00003   0.00000  -0.00003  -0.00003  -6.55929
   Z20        1.84097   0.00001   0.00000   0.00001   0.00001   1.84098
   X21       -2.42168   0.00000   0.00000   0.00000   0.00000  -2.42168
   Y21       -5.59558  -0.00002   0.00000  -0.00002  -0.00002  -5.59560
   Z21        4.33603  -0.00002   0.00000  -0.00002  -0.00002   4.33601
         Item               Value     Threshold  Converged?
 Maximum Force            0.000076     0.000450     YES
 RMS     Force            0.000031     0.000300     YES
 Maximum Displacement     0.000076     0.001800     YES
 RMS     Displacement     0.000031     0.001200     YES
 Predicted change in Energy=-3.018264D-08
 Optimization completed.
    -- Stationary point found.
 GradGradGradGradGradGradGradGradGradGradGradGradGradGradGradGradGradGrad

                          Input orientation:                          
 ---------------------------------------------------------------------
 Center     Atomic     Atomic              Coordinates (Angstroms)
 Number     Number      Type              X           Y           Z
 ---------------------------------------------------------------------
    1          6      10061000       -0.081394    1.237084   -1.401278
    2          6      10061000        0.418613    0.276545   -0.633213
    3          7      10071000        0.715379    2.320184   -1.325998
    4          6      10061000        1.707150    1.968775   -0.487324
    5          7      10071000        1.548718    0.709794   -0.045055
    6          6      10061003       -0.164260   -1.092021   -0.435003
    7          6      10061003       -0.580786   -1.327211    1.031577
    8          7      10071000       -1.671412   -0.426142    1.419658
    9          1      10011000       -0.984087    1.178900   -1.995905
   10          1      10011000       -1.044298   -1.232564   -1.101287
   11          6      10061003       -1.007575   -2.786787    1.232274
   12          1      10011000        0.296041   -1.137993    1.691504
   13          1      10011000       -1.975806   -0.587217    2.406097
   14          1      10011000       -1.390222    0.578264    1.365674
   15          1      10011000       -2.516366   -0.541650    0.815337
   16          1      10011000        0.590093    3.235139   -1.812699
   17          1      10011000        2.526890    2.615581   -0.204418
   18          1      10011000        0.605260   -1.837619   -0.730707
   19          1      10011000       -1.883087   -3.028819    0.592254
   20          1      10011000       -0.171227   -3.471015    0.974200
   21          1      10011000       -1.281496   -2.961055    2.294527
 ---------------------------------------------------------------------
                    Distance matrix (angstroms):
                    1          2          3          4          5
     1  C    0.000000
     2  C    1.327617   0.000000
     3  N    1.346706   2.178183   0.000000
     4  C    2.137656   2.131961   1.345538   0.000000
     5  N    2.185095   1.345649   2.220050   1.343776   0.000000
     6  C    2.522952   1.500666   3.634663   3.587950   2.516524
     7  C    3.569844   2.518403   4.532294   4.290133   3.137406
     8  N    3.640352   3.012682   4.558257   4.559265   3.715505
     9  H    1.082507   2.153774   2.153947   3.184726   3.231250
    10  H    2.667648   2.153279   3.971017   4.265676   3.407655
    11  C    4.897443   3.859800   5.966110   5.739523   4.515782
    12  H    3.917749   2.724014   4.608704   4.048522   2.828278
    13  H    4.627416   3.964433   5.442792   5.335649   4.484713
    14  H    3.130990   2.712649   3.835744   3.867925   3.262641
    15  H    3.742508   3.373698   4.818670   5.083035   4.339504
    16  H    2.147646   3.189651   1.043895   2.146651   3.228140
    17  H    3.183688   3.178017   2.150994   1.081835   2.148078
    18  H    3.221019   2.124625   4.201645   3.970143   2.801704
    19  H    5.041647   4.210109   6.248484   6.247499   5.114751
    20  H    5.274198   4.120181   6.294042   5.937649   4.634248
    21  H    5.720455   4.684452   6.707250   6.401089   5.192196
                    6          7          8          9         10
     6  C    0.000000
     7  C    1.542616   0.000000
     8  N    2.480861   1.466969   0.000000
     9  H    2.874998   3.950809   3.835967   0.000000
    10  H    1.112723   2.184699   2.720065   2.572766   0.000000
    11  C    2.522543   1.533881   2.459357   5.113547   2.804008
    12  H    2.176241   1.113612   2.109859   4.539131   3.099215
    13  H    3.407106   2.093556   1.044826   4.845647   3.685908
    14  H    2.745045   2.097056   1.044420   3.438883   3.079717
    15  H    2.720048   2.100080   1.045224   3.634728   2.513522
    16  H    4.603413   5.502354   5.382148   2.596099   4.810168
    17  H    4.587131   5.170198   5.432812   4.195288   5.325972
    18  H    1.111539   2.184689   3.435051   3.636776   1.795679
    19  H    2.785823   2.187342   2.739221   5.021122   2.607332
    20  H    2.765052   2.183329   3.423484   5.577093   3.174989
    21  H    3.491682   2.180708   2.709837   5.969547   3.817787
                   11         12         13         14         15
    11  C    0.000000
    12  H    2.151471   0.000000
    13  H    2.674591   2.444440   0.000000
    14  H    3.389363   2.428001   1.668453   0.000000
    15  H    2.736955   3.005483   1.680714   1.680856   0.000000
    16  H    6.934551   5.611612   6.244396   4.591588   5.551648
    17  H    6.613782   4.760308   6.111217   4.686109   6.036757
    18  H    2.712094   2.540118   4.250288   3.770047   3.716764
    19  H    1.111183   3.087422   3.043032   3.721847   2.576202
    20  H    1.110968   2.485127   3.690952   4.246865   3.755808
    21  H    1.110758   2.485119   2.475808   3.660789   3.092965
                   16         17         18         19         20
    16  H    0.000000
    17  H    2.592605   0.000000
    18  H    5.186889   4.878589   0.000000
    19  H    7.151055   7.207069   3.059585   0.000000
    20  H    7.301980   6.761333   2.485482   1.808835   0.000000
    21  H    7.665832   7.200514   3.738181   1.806720   1.798894
                   21
    21  H    0.000000
 Stoichiometry    C6H12N3(1+)
 Framework group  C1[X(C6H12N3)]
 Deg. of freedom    57
 Full point group                 C1
 Largest Abelian subgroup         C1      NOp   1
 Largest concise Abelian subgroup C1      NOp   1
                         Standard orientation:                         
 ---------------------------------------------------------------------
 Center     Atomic     Atomic              Coordinates (Angstroms)
 Number     Number      Type              X           Y           Z
 ---------------------------------------------------------------------
    1          6      10061000       -1.551661    0.648505    0.814989
    2          6      10061000       -0.685418   -0.254498    0.371395
    3          7      10071000       -2.715857    0.503417    0.153767
    4          6      10061000       -2.511227   -0.518545   -0.697229
    5          7      10071000       -1.264355   -1.006331   -0.582728
    6          6      10061003        0.727245   -0.433609    0.845000
    7          6      10061003        1.744709   -0.169867   -0.284103
    8          7      10071000        1.698920    1.231076   -0.716839
    9          1      10011000       -1.368739    1.391579    1.580627
   10          1      10011000        0.932537    0.247527    1.700606
   11          6      10061003        3.160057   -0.529601    0.185122
   12          1      10011000        1.500112   -0.823912   -1.151588
   13          1      10011000        2.396285    1.427990   -1.469546
   14          1      10011000        0.767747    1.490669   -1.112239
   15          1      10011000        1.896563    1.895316    0.065602
   16          1      10011000       -3.588424    1.063494    0.274837
   17          1      10011000       -3.253839   -0.899247   -1.385676
   18          1      10011000        0.835415   -1.477469    1.211301
   19          1      10011000        3.454024    0.097114    1.054339
   20          1      10011000        3.207405   -1.599952    0.478986
   21          1      10011000        3.887732   -0.364560   -0.637698
 ---------------------------------------------------------------------
 Rotational constants (GHZ):      4.0583122      0.8893653      0.8615856
 1|1|UNPC-UNK|FOpt|UFF|ZDO|C6H12N3(1+)|PCUSER|13-Dec-2007|0||# opt uff|
 |a-me-histamine-g+||1,1|C,-0.0813937504,1.2370844759,-1.4012780263|C,0
 .4186127592,0.2765448034,-0.6332128013|N,0.7153787287,2.3201838352,-1.
 3259978925|C,1.7071504109,1.9687752267,-0.4873242661|N,1.5487179961,0.
 7097944112,-0.0450554026|C,-0.1642599397,-1.0920209019,-0.4350026846|C
 ,-0.5807855567,-1.3272109685,1.0315773698|N,-1.6714122051,-0.426141910
 8,1.419658279|H,-0.9840869815,1.1788996543,-1.9959048529|H,-1.04429780
 17,-1.2325643958,-1.1012865879|C,-1.0075749493,-2.7867866054,1.2322743
 513|H,0.2960414757,-1.1379930803,1.6915043911|H,-1.975805635,-0.587216
 958,2.4060969547|H,-1.3902223974,0.5782642163,1.3656735549|H,-2.516365
 5395,-0.5416499068,0.8153372267|H,0.5900932801,3.2351391114,-1.8126985
 727|H,2.5268900692,2.6155812804,-0.204417962|H,0.6052604827,-1.8376191
 956,-0.7307068894|H,-1.8830873331,-3.0288188361,0.5922542703|H,-0.1712
 269074,-3.4710148667,0.9741996302|H,-1.2814956856,-2.9610554789,2.2945
 273502||Version=IA32W-G03RevD.01|HF=0.0832861|RMSD=0.000e+000|RMSF=3.0
 95e-005|Thermal=0.|Dipole=0.,0.,0.|PG=C01 [X(C6H12N3)]||@


 Children are likely to live up to what you believe of them.
 -- Lady Bird Johnson
 Job cpu time:  0 days  0 hours  0 minutes  3.0 seconds.
 File lengths (MBytes):  RWF=     11 Int=      0 D2E=      0 Chk=      4 Scr=      1
 Normal termination of Gaussian 03 at Thu Dec 13 15:35:16 2007.
