 Entering Link 1 = C:\G03W\l1.exe PID=      3808.
  
 Copyright (c) 1988,1990,1992,1993,1995,1998,2003,2004, Gaussian, Inc.
                  All Rights Reserved.
  
 This is the Gaussian(R) 03 program.  It is based on the
 the Gaussian(R) 98 system (copyright 1998, Gaussian, Inc.),
 the Gaussian(R) 94 system (copyright 1995, Gaussian, Inc.),
 the Gaussian 92(TM) system (copyright 1992, Gaussian, Inc.),
 the Gaussian 90(TM) system (copyright 1990, Gaussian, Inc.),
 the Gaussian 88(TM) system (copyright 1988, Gaussian, Inc.),
 the Gaussian 86(TM) system (copyright 1986, Carnegie Mellon
 University), and the Gaussian 82(TM) system (copyright 1983,
 Carnegie Mellon University). Gaussian is a federally registered
 trademark of Gaussian, Inc.
  
 This software contains proprietary and confidential information,
 including trade secrets, belonging to Gaussian, Inc.
  
 This software is provided under written license and may be
 used, copied, transmitted, or stored only in accord with that
 written license.
  
 The following legend is applicable only to US Government
 contracts under FAR:
  
                    RESTRICTED RIGHTS LEGEND
  
 Use, reproduction and disclosure by the US Government is
 subject to restrictions as set forth in subparagraphs (a)
 and (c) of the Commercial Computer Software - Restricted
 Rights clause in FAR 52.227-19.
  
 Gaussian, Inc.
 340 Quinnipiac St., Bldg. 40, Wallingford CT 06492
  
  
 ---------------------------------------------------------------
 Warning -- This program may not be used in any manner that
 competes with the business of Gaussian, Inc. or will provide
 assistance to any competitor of Gaussian, Inc.  The licensee
 of this program is prohibited from giving any competitor of
 Gaussian, Inc. access to this program.  By using this program,
 the user acknowledges that Gaussian, Inc. is engaged in the
 business of creating and licensing software in the field of
 computational chemistry and represents and warrants to the
 licensee that it is not a competitor of Gaussian, Inc. and that
 it will not use this program in any manner prohibited above.
 ---------------------------------------------------------------
  

 Cite this work as:
 Gaussian 03, Revision D.01,
 M. J. Frisch, G. W. Trucks, H. B. Schlegel, G. E. Scuseria, 
 M. A. Robb, J. R. Cheeseman, J. A. Montgomery, Jr., T. Vreven, 
 K. N. Kudin, J. C. Burant, J. M. Millam, S. S. Iyengar, J. Tomasi, 
 V. Barone, B. Mennucci, M. Cossi, G. Scalmani, N. Rega, 
 G. A. Petersson, H. Nakatsuji, M. Hada, M. Ehara, K. Toyota, 
 R. Fukuda, J. Hasegawa, M. Ishida, T. Nakajima, Y. Honda, O. Kitao, 
 H. Nakai, M. Klene, X. Li, J. E. Knox, H. P. Hratchian, J. B. Cross, 
 V. Bakken, C. Adamo, J. Jaramillo, R. Gomperts, R. E. Stratmann, 
 O. Yazyev, A. J. Austin, R. Cammi, C. Pomelli, J. W. Ochterski, 
 P. Y. Ayala, K. Morokuma, G. A. Voth, P. Salvador, J. J. Dannenberg, 
 V. G. Zakrzewski, S. Dapprich, A. D. Daniels, M. C. Strain, 
 O. Farkas, D. K. Malick, A. D. Rabuck, K. Raghavachari, 
 J. B. Foresman, J. V. Ortiz, Q. Cui, A. G. Baboul, S. Clifford, 
 J. Cioslowski, B. B. Stefanov, G. Liu, A. Liashenko, P. Piskorz, 
 I. Komaromi, R. L. Martin, D. J. Fox, T. Keith, M. A. Al-Laham, 
 C. Y. Peng, A. Nanayakkara, M. Challacombe, P. M. W. Gill, 
 B. Johnson, W. Chen, M. W. Wong, C. Gonzalez, and J. A. Pople, 
 Gaussian, Inc., Wallingford CT, 2004.
 
 ******************************************
 Gaussian 03:  IA32W-G03RevD.01 13-Oct-2005
                13-Dec-2007 
 ******************************************
 ---------
 # opt uff
 ---------
 1/6=10,10=10,14=-1,18=4000020,38=1,56=1,64=2/1,3;
 2/9=110,17=6,18=5,40=1/2;
 3/5=30,11=9,16=1,25=1,30=1/1;
 4/20=10,22=1001,24=3/2;
 7/44=-1/16;
 1/6=10,10=10,14=-1,18=4000020,64=2/3(2);
 2/9=110/2;
 99//99;
 2/9=110/2;
 3/5=30,11=9,16=1,25=1,30=1/1;
 4/16=2,20=10,22=1001,24=3/2;
 7/44=-1/16;
 1/6=10,10=10,14=-1,18=4000020,64=2/3(-4);
 2/9=110/2;
 99//99;
 ----------------
 a-me-histamine-t
 ----------------
 Symbolic Z-matrix:
 Charge =  1 Multiplicity = 1
 C                     1.72265   0.11959  -0.32701 
 C                     0.44665  -0.02741  -0.70801 
 N                     2.42265  -0.88541  -0.85901 
 C                     1.52565  -1.59741  -1.54301 
 N                     0.26865  -1.11641  -1.49301 
 C                    -0.68235   0.88759  -0.32401 
 C                    -0.99435   0.79859   1.17399 
 N                    -2.13635   1.74359   1.40199 
 H                     2.20165   0.88559   0.30399 
 H                    -0.39435   1.93159  -0.59501 
 C                    -1.51035  -0.57341   1.61899 
 H                    -0.12835   1.12659   1.79699 
 H                    -2.43135   1.76559   2.40099 
 H                    -1.89135   2.72159   1.13699 
 H                    -2.97735   1.48059   0.84399 
 H                     3.41065  -1.06541  -0.76501 
 H                     1.78965  -2.50641  -2.10601 
 H                    -1.58635   0.62959  -0.92401 
 H                    -2.39835  -0.88941   1.02399 
 H                    -0.72435  -1.35241   1.49399 
 H                    -1.80235  -0.56541   2.69399 
 
 I=    1 IAn=  6 Valence= 6.
          JB=  1 J=    2 IAn=  6 IBT= 2 Dist= 1.34D+00
          JB=  2 J=    3 IAn=  7 IBT=12 Dist= 1.34D+00
          JB=  3 J=    9 IAn=  1 IBT= 1 Dist= 1.10D+00
 I=    2 IAn=  6 Valence= 6.
          JB=  1 J=    1 IAn=  6 IBT= 2 Dist= 1.34D+00
          JB=  2 J=    5 IAn=  7 IBT=12 Dist= 1.35D+00
          JB=  3 J=    6 IAn=  6 IBT= 1 Dist= 1.50D+00
 I=    3 IAn=  7 Valence=36.
          JB=  1 J=    1 IAn=  6 IBT=12 Dist= 1.34D+00
          JB=  2 J=    4 IAn=  6 IBT=12 Dist= 1.33D+00
          JB=  3 J=   16 IAn=  1 IBT= 1 Dist= 1.01D+00
 I=    4 IAn=  6 Valence=36.
          JB=  1 J=    3 IAn=  7 IBT=12 Dist= 1.33D+00
          JB=  2 J=    5 IAn=  7 IBT=12 Dist= 1.35D+00
          JB=  3 J=   17 IAn=  1 IBT= 1 Dist= 1.10D+00
 I=    5 IAn=  7 Valence=24.
          JB=  1 J=    2 IAn=  6 IBT=12 Dist= 1.35D+00
          JB=  2 J=    4 IAn=  6 IBT=12 Dist= 1.35D+00
 I=    8 IAn=  7 Valence= 4.
          JB=  1 J=    7 IAn=  6 IBT= 1 Dist= 1.50D+00
          JB=  2 J=   13 IAn=  1 IBT= 1 Dist= 1.04D+00
          JB=  3 J=   14 IAn=  1 IBT= 1 Dist= 1.04D+00
          JB=  4 J=   15 IAn=  1 IBT= 1 Dist= 1.04D+00
 Include all MM classes
 MMInit generated parameter data with length LenPar=  2313.

 GradGradGradGradGradGradGradGradGradGradGradGradGradGradGradGradGradGrad
 Berny optimization.
 Initialization pass.
 No Z-matrix variables, so optimization will use Cartesian coordinates.
 Trust Radius=1.00D-01 FncErr=1.00D-07 GrdErr=1.00D-07
 Number of steps in this run=   2 maximum allowed number of steps=   2.
 GradGradGradGradGradGradGradGradGradGradGradGradGradGradGradGradGradGrad

                          Input orientation:                          
 ---------------------------------------------------------------------
 Center     Atomic     Atomic              Coordinates (Angstroms)
 Number     Number      Type              X           Y           Z
 ---------------------------------------------------------------------
    1          6      10061000        1.722652    0.119594   -0.327014
    2          6      10061000        0.446652   -0.027406   -0.708014
    3          7      10071000        2.422652   -0.885406   -0.859014
    4          6      10061000        1.525652   -1.597406   -1.543014
    5          7      10071000        0.268652   -1.116406   -1.493014
    6          6      10061003       -0.682348    0.887594   -0.324014
    7          6      10061003       -0.994348    0.798594    1.173986
    8          7      10071000       -2.136348    1.743594    1.401986
    9          1      10011000        2.201652    0.885594    0.303986
   10          1      10011000       -0.394348    1.931594   -0.595014
   11          6      10061003       -1.510348   -0.573406    1.618986
   12          1      10011000       -0.128348    1.126594    1.796986
   13          1      10011000       -2.431348    1.765594    2.400986
   14          1      10011000       -1.891348    2.721594    1.136986
   15          1      10011000       -2.977348    1.480594    0.843986
   16          1      10011000        3.410652   -1.065406   -0.765014
   17          1      10011000        1.789652   -2.506406   -2.106014
   18          1      10011000       -1.586348    0.629594   -0.924014
   19          1      10011000       -2.398348   -0.889406    1.023986
   20          1      10011000       -0.724348   -1.352406    1.493986
   21          1      10011000       -1.802348   -0.565406    2.693986
 ---------------------------------------------------------------------
                    Distance matrix (angstroms):
                    1          2          3          4          5
     1  C    0.000000
     2  C    1.339756   0.000000
     3  N    1.335309   2.159523   0.000000
     4  C    2.113186   2.079992   1.333945   0.000000
     5  N    2.236374   1.354190   2.257218   1.346815   0.000000
     6  C    2.524650   1.503104   3.615353   3.540685   2.507385
     7  C    3.177441   2.510116   4.317966   4.412857   3.517852
     8  N    4.529757   3.776298   5.727848   5.765895   4.727013
     9  H    1.101979   2.222102   2.130223   3.167598   3.312658
    10  H    2.799439   2.134884   3.992577   4.127826   3.245963
    11  C    3.836594   3.089157   4.659004   4.501568   3.625498
    12  H    2.991927   2.817333   4.196437   4.616437   4.001594
    13  H    5.235171   4.600393   6.420025   6.520947   5.546094
    14  H    4.687718   4.053057   5.966998   6.124708   5.129595
    15  H    5.031258   4.050499   6.136625   5.953895   4.768909
    16  H    2.108415   3.141017   1.008653   2.107494   3.225639
    17  H    3.172571   3.146982   2.140873   1.101338   2.149723
    18  H    3.400881   2.147416   4.286202   3.876498   2.610230
    19  H    4.452631   3.440479   5.175688   4.742207   3.674195
    20  H    3.386832   2.824123   3.957058   3.787597   3.156567
    21  H    4.692685   4.113520   5.529632   5.485688   4.703574
                    6          7          8          9         10
     6  C    0.000000
     7  C    1.532733   0.000000
     8  N    2.413696   1.499724   0.000000
     9  H    2.951583   3.313440   4.556316   0.000000
    10  H    1.116387   2.184731   2.656674   2.939648   0.000000
    11  C    2.568142   1.531883   2.409866   4.199625   3.524525
    12  H    2.205148   1.116095   2.137470   2.777774   2.537803
    13  H    3.354923   2.122637   1.041878   5.161056   3.626698
    14  H    2.638135   2.122241   1.042465   4.562613   2.421762
    15  H    2.642517   2.122808   1.042983   5.240960   2.990988
    16  H    4.556461   5.161225   6.584495   2.531964   4.846538
    17  H    4.561309   5.425134   6.766243   4.181328   5.171926
    18  H    1.115249   2.186465   2.637001   3.990296   1.795636
    19  H    2.814159   2.200695   2.672867   4.982873   3.820369
    20  H    2.885219   2.191370   3.404031   3.871204   3.906082
    21  H    3.531846   2.196306   2.666890   4.883597   4.362911
                   11         12         13         14         15
    11  C    0.000000
    12  H    2.198092   0.000000
    13  H    2.632620   2.465146   0.000000
    14  H    3.351792   2.467346   1.674286   0.000000
    15  H    2.640384   3.024951   1.674392   1.674911   0.000000
    16  H    5.490151   4.888070   7.222678   6.787502   7.062403
    17  H    5.338737   5.666641   7.508653   7.169295   6.879168
    18  H    2.814220   3.126758   3.613882   2.952492   2.405183
    19  H    1.114641   3.132840   2.991027   3.648169   2.446332
    20  H    1.113671   2.567580   3.668572   4.252860   3.677553
    21  H    1.113981   2.543570   2.432088   3.638205   2.998206
                   16         17         18         19         20
    16  H    0.000000
    17  H    2.549981   0.000000
    18  H    5.279045   4.756994   0.000000
    19  H    6.080788   5.472745   2.600271   0.000000
    20  H    4.720559   4.540034   3.243161   1.799318   0.000000
    21  H    6.276149   6.301583   3.816360   1.802524   1.794841
                   21
    21  H    0.000000
 Stoichiometry    C6H12N3(1+)
 Framework group  C1[X(C6H12N3)]
 Deg. of freedom    57
 Full point group                 C1
 Largest Abelian subgroup         C1      NOp   1
 Largest concise Abelian subgroup C1      NOp   1
                         Standard orientation:                         
 ---------------------------------------------------------------------
 Center     Atomic     Atomic              Coordinates (Angstroms)
 Number     Number      Type              X           Y           Z
 ---------------------------------------------------------------------
    1          6      10061000       -1.391619   -0.938138    0.521599
    2          6      10061000       -0.710947   -0.221916   -0.383198
    3          7      10071000       -2.615404   -0.412486    0.616937
    4          6      10061000       -2.614043    0.605957   -0.244561
    5          7      10071000       -1.454265    0.781927   -0.906273
    6          6      10061003        0.713965   -0.472061   -0.791088
    7          6      10061003        1.687937   -0.173658    0.354164
    8          7      10071000        3.053870   -0.451518   -0.199184
    9          1      10011000       -1.088897   -1.808291    1.126208
   10          1      10011000        0.805854   -1.539401   -1.105193
   11          6      10061003        1.715090    1.298537    0.776740
   12          1      10011000        1.513610   -0.842805    1.230247
   13          1      10011000        3.802346   -0.282782    0.505672
   14          1      10011000        3.152450   -1.440157   -0.514794
   15          1      10011000        3.271416    0.151765   -1.021702
   16          1      10011000       -3.372830   -0.718473    1.208593
   17          1      10011000       -3.491033    1.252583   -0.404903
   18          1      10011000        0.958255    0.154694   -1.680627
   19          1      10011000        1.925398    1.968923   -0.088580
   20          1      10011000        0.736694    1.604343    1.212039
   21          1      10011000        2.495024    1.481816    1.550733
 ---------------------------------------------------------------------
 Rotational constants (GHZ):      4.0300478      0.8866048      0.8580813
 Standard basis: Dummy (5D, 7F)
 There are    21 symmetry adapted basis functions of A   symmetry.
 Integral buffers will be    262144 words long.
 Raffenetti 1 integral format.
 Two-electron integral symmetry is turned on.
    21 basis functions,    21 primitive gaussians,    21 cartesian basis functions
    13 alpha electrons       13 beta electrons
       nuclear repulsion energy        68.6008804459 Hartrees.
 NAtoms=   21 NActive=   21 NUniq=   21 SFac= 7.50D-01 NAtFMM=   80 NAOKFM=F Big=F
 UFF calculation of energy and first derivatives.
 MO and density RWFs will be updated without deorthogonalization.
 NRF= 0 NRA=   0 NVA=  21 HaveQM=F
 Convergence limit is  0.750E-04 MaxStp=  5000 StMxLn= 1.00D-04 StpMin= 1.00D-06.
 Convergence criteria           0.00011250 0.00007500 0.00045000 0.00030000
  Step  NS  ND Rises OKQ   Scale  Max. Force  RMS Force Max. Disp.  RMS Disp.     Energy   Flag
     1   0   0   F    T  1.00D+00 0.06728850 0.01731699 0.06728850 0.01731699    0.0964790 ----
     2   0   0   F    F -2.70D-01 0.06728850 0.01731699 0.06728850 0.01731699    0.0905284 ----
     3   0   0   F    T  1.74D+00 0.02094210 0.00676172 0.01908757 0.00725890    0.0895869 ----
     4   0   0   F    F -2.87D-01 0.02094210 0.00676172 0.03324175 0.01264165    0.0880886 ----
     5   0   0   F    T  1.62D+00 0.01699073 0.00452868 0.01686231 0.00557372    0.0877986 ----
     6   0   0   F    F  9.14D-02 0.01699073 0.00452868 0.02726708 0.00901295    0.0866674 ----
     7   0   0   F    T  1.56D+00 0.01306709 0.00416633 0.01536642 0.00630471    0.0866594 ----
     8   0   0   F    F  1.06D-01 0.01306709 0.00416633 0.02397500 0.00983674    0.0857251 ----
     9   0   0   F    T  3.36D+00 0.00654224 0.00243306 0.00912270 0.00323411    0.0857165 ----
    10   0   0   F    F -1.75D-01 0.00654224 0.00243306 0.03067940 0.01087625    0.0852228 ----
    11   0   0   F    T  1.88D+00 0.01168399 0.00268306 0.01520456 0.00476299    0.0851993 ----
    12   0   0   F    F -2.94D-01 0.01168399 0.00268306 0.02862870 0.00896824    0.0849504 ----
    13   0   0   F    T  1.77D+00 0.00632471 0.00209461 0.01322343 0.00358178    0.0848981 ----
    14   0   0   F    F  1.62D-01 0.00632471 0.00209461 0.02336775 0.00632953    0.0846201 ----
    15   0   0   F    T  2.58D+00 0.00506110 0.00167661 0.01172746 0.00284877    0.0846146 ----
    16   0   0   F    F -3.99D-01 0.00506110 0.00167661 0.03026822 0.00735258    0.0845375 ----
    17   0   0   F    T  1.41D+00 0.00576314 0.00162403 0.01290416 0.00312952    0.0844772 ----
    18   0   0   F    F  6.81D-01 0.00576314 0.00162403 0.01823506 0.00442237    0.0843122 ----
    19   0   0   F    T  2.13D+00 0.00442925 0.00161620 0.01273328 0.00349632    0.0842799 ----
    20   0   0   F    F -2.93D-01 0.00442925 0.00161620 0.02706753 0.00743224    0.0841775 ----
    21   0   0   F    T  2.88D+00 0.00332504 0.00105385 0.00482544 0.00182536    0.0841563 ----
    22   0   0   F    F -4.88D-01 0.00332504 0.00105385 0.01388825 0.00525361    0.0841514 ----
    23   0   0   F    T  2.13D+00 0.00198700 0.00077744 0.00280974 0.00126090    0.0841047 ----
    24   0   0   F    F -3.52D-02 0.00198700 0.00077744 0.00599722 0.00269131    0.0840655 ----
    25   0   0   F    T  2.02D+00 0.00237901 0.00071576 0.00298666 0.00128608    0.0840655 ----
    26   0   0   F    F -1.47D-01 0.00237901 0.00071576 0.00602998 0.00259656    0.0840385 ----
    27   0   0   F    T  2.58D+00 0.00136850 0.00052155 0.00225152 0.00085909    0.0840377 ----
    28   0   0   F    F -3.92D-02 0.00136850 0.00052155 0.00580527 0.00221506    0.0840165 ----
    29   0   0   F    T  2.81D+00 0.00108157 0.00044100 0.00204812 0.00075654    0.0840164 ----
    30   0   0   F    F -3.03D-01 0.00108157 0.00044100 0.00576140 0.00212815    0.0840067 ----
    31   0   0   F    T  1.05D+00 0.00155243 0.00057688 0.00400127 0.00141738    0.0840044 ----
    32   0   0   F    F  1.34D+00 0.00155243 0.00057688 0.00418776 0.00148344    0.0839872 ----
    33   0   0   F    T  1.97D+00 0.00176560 0.00062123 0.00505155 0.00175757    0.0839788 ----
    34   0   0   F    F  8.37D-02 0.00176560 0.00062123 0.00996899 0.00346848    0.0839529 ----
    35   0   0   F    T  2.99D+00 0.00126937 0.00050326 0.00353719 0.00125750    0.0839528 ----
    36   0   0   F    F -4.84D-02 0.00126937 0.00050326 0.01057300 0.00375879    0.0839301 ----
    37   0   0   F    T  1.74D+00 0.00241464 0.00062813 0.00585156 0.00205406    0.0839301 ----
    38   0   0   F    F  3.36D-01 0.00241464 0.00062813 0.01018945 0.00357677    0.0839030 ----
    39   0   0   F    T  2.85D+00 0.00222783 0.00055307 0.00492060 0.00167447    0.0839011 ----
    40   0   0   F    F -5.00D-01 0.00222783 0.00055307 0.01404418 0.00477919    0.0839011 ----
    41   0   0   F    T  1.44D+00 0.00164755 0.00053557 0.00446454 0.00165700    0.0838874 ----
    42   0   0   F    F  1.13D+00 0.00164755 0.00053557 0.00643900 0.00238982    0.0838674 ----
    43   0   0   F    T  1.52D+00 0.00177369 0.00075155 0.00873498 0.00334957    0.0838597 ----
    44   0   0   F    F  3.53D-01 0.00177369 0.00075155 0.01326528 0.00508679    0.0838256 ----
    45   0   0   F    T  3.60D+00 0.00131794 0.00055309 0.00473585 0.00191156    0.0838231 ----
    46   0   0   T    F  4.38D-01 0.00131794 0.00055309 0.01705586 0.00688435    0.0838329 ----
    47   0   0   F    T  2.38D+00 0.00123086 0.00043571 0.00354527 0.00126660    0.0838079 ----
    48   0   0   F    F  2.93D-01 0.00123086 0.00043571 0.00843610 0.00301392    0.0837905 ----
    49   0   0   F    T  1.52D+00 0.00192857 0.00061125 0.00719329 0.00256580    0.0837895 ----
    50   0   0   F    F  1.28D-01 0.00192857 0.00061125 0.01092403 0.00389653    0.0837696 ----
    51   0   0   F    T  3.00D+00 0.00158271 0.00045272 0.00383176 0.00146631    0.0837693 ----
    52   0   0   F    F -2.01D-01 0.00158271 0.00045272 0.01148257 0.00439406    0.0837548 ----
    53   0   0   F    T  1.73D+00 0.00151453 0.00052406 0.00546506 0.00203038    0.0837539 ----
    54   0   0   F    F  1.94D-01 0.00151453 0.00052406 0.00945358 0.00351219    0.0837365 ----
    55   0   0   F    T  3.48D+00 0.00125594 0.00039275 0.00316110 0.00120656    0.0837360 ----
    56   0   0   F    F -3.17D-01 0.00125594 0.00039275 0.01098699 0.00419363    0.0837270 ----
    57   0   0   F    T  1.88D+00 0.00121622 0.00043216 0.00430204 0.00152589    0.0837245 ----
    58   0   0   F    F -1.05D-01 0.00121622 0.00043216 0.00807157 0.00286291    0.0837147 ----
    59   0   0   F    T  1.88D+00 0.00111990 0.00039890 0.00374247 0.00136271    0.0837146 ----
    60   0   0   F    F -2.84D-01 0.00111990 0.00039890 0.00703691 0.00256228    0.0837089 ----
    61   0   0   F    T  3.83D+00 0.00077607 0.00022241 0.00122324 0.00047900    0.0837078 ----
    62   0   0   F    F -3.92D-01 0.00077607 0.00022241 0.00468443 0.00183436    0.0837057 ----
    63   0   0   F    T  1.79D+00 0.00067678 0.00024337 0.00151046 0.00062286    0.0837042 ----
    64   0   0   F    F -6.84D-02 0.00067678 0.00024337 0.00270245 0.00111439    0.0837011 ----
    65   0   0   F    T  2.56D+00 0.00048572 0.00018506 0.00096479 0.00040474    0.0837011 ----
    66   0   0   F    F -1.81D-01 0.00048572 0.00018506 0.00247463 0.00103813    0.0836990 ----
    67   0   0   F    T  2.85D+00 0.00039308 0.00014792 0.00080944 0.00029786    0.0836988 ---+
    68   0   0   F    T  2.22D+00 0.00049097 0.00016076 0.00111026 0.00038350    0.0836968 ----
    69   0   0   T    F  4.64D-01 0.00049097 0.00016076 0.00246011 0.00084976    0.0836971 ----
    70   0   0   F    T  1.73D+00 0.00022206 0.00011284 0.00072563 0.00022756    0.0836960 ---+
    71   0   0   F    F  1.49D+00 0.00022206 0.00011284 0.00125753 0.00039437    0.0836949 ----
    72   0   0   F    T  2.37D+00 0.00038212 0.00014881 0.00138622 0.00041505    0.0836943 ----
    73   0   0   F    F  1.62D-01 0.00038212 0.00014881 0.00327920 0.00098184    0.0836924 ----
    74   0   0   F    T  1.67D+00 0.00073113 0.00018726 0.00242186 0.00068376    0.0836923 ----
    75   0   0   F    F  2.83D-01 0.00073113 0.00018726 0.00404103 0.00114090    0.0836901 ----
    76   0   0   F    T  2.69D+00 0.00040239 0.00016290 0.00212309 0.00054468    0.0836900 ----
    77   0   0   F    F  2.01D-01 0.00040239 0.00016290 0.00570775 0.00146432    0.0836874 ----
    78   0   0   F    T  1.01D+00 0.00078529 0.00028932 0.00699628 0.00174357    0.0836873 ----
    79   0   0   F    F  1.90D+00 0.00078529 0.00028932 0.00705576 0.00175840    0.0836829 ----
    80   0   0   F    T  3.55D+00 0.00063218 0.00026209 0.00594064 0.00143875    0.0836795 ----
    81   0   0   T    F  4.38D-01 0.00063218 0.00026209 0.02106501 0.00510168    0.0836817 ----
    82   0   0   F    T  1.64D+00 0.00086763 0.00025370 0.00576134 0.00136227    0.0836762 ----
    83   0   0   F    F  5.54D-01 0.00086763 0.00025370 0.00944937 0.00223431    0.0836717 ----
    84   0   0   F    T  2.52D+00 0.00062786 0.00025333 0.00589810 0.00137855    0.0836710 ----
    85   0   0   F    F -3.75D-01 0.00062786 0.00025333 0.01485090 0.00347106    0.0836690 ----
    86   0   0   F    T  1.45D+00 0.00073404 0.00026184 0.00643253 0.00149623    0.0836678 ----
    87   0   0   F    F  1.13D+00 0.00073404 0.00026184 0.00932618 0.00216930    0.0836630 ----
    88   0   0   F    T  3.11D+00 0.00081372 0.00025817 0.00634852 0.00148602    0.0836612 ----
    89   0   0   F    F -3.70D-01 0.00081372 0.00025817 0.01974271 0.00462126    0.0836585 ----
    90   0   0   F    T  3.56D+00 0.00056504 0.00018813 0.00335584 0.00081703    0.0836571 ----
    91   0   0   F    F -4.06D-01 0.00056504 0.00018813 0.01195303 0.00291015    0.0836558 ----
    92   0   0   F    T  2.17D+00 0.00052893 0.00018343 0.00307166 0.00079722    0.0836547 ----
    93   0   0   F    F  3.77D-01 0.00052893 0.00018343 0.00665965 0.00172845    0.0836518 ----
    94   0   0   F    T  1.41D+00 0.00087668 0.00026524 0.00624136 0.00168726    0.0836515 ----
    95   0   0   F    F -3.89D-02 0.00087668 0.00026524 0.00880376 0.00237996    0.0836485 ----
    96   0   0   F    T  2.97D+00 0.00055235 0.00017655 0.00258779 0.00076985    0.0836485 ----
    97   0   0   F    F -3.88D-01 0.00055235 0.00017655 0.00768904 0.00228744    0.0836475 ----
    98   0   0   F    T  3.01D+00 0.00040150 0.00013414 0.00137206 0.00046485    0.0836467 ----
    99   0   0   F    F -1.64D-01 0.00040150 0.00013414 0.00413314 0.00140029    0.0836454 ----
   100   0   0   F    T  2.21D+00 0.00046732 0.00014058 0.00141858 0.00052917    0.0836453 ----
   101   0   0   F    F -2.37D-01 0.00046732 0.00014058 0.00313888 0.00117089    0.0836444 ----
   102   0   0   F    T  3.06D+00 0.00035452 0.00010128 0.00078051 0.00029254    0.0836443 ---+
   103   0   0   F    F -1.80D-01 0.00035452 0.00010128 0.00238455 0.00089373    0.0836435 ----
   104   0   0   F    T  1.54D+00 0.00035317 0.00012696 0.00129036 0.00047688    0.0836435 ----
   105   0   0   F    T  4.50D+00 0.00022761 0.00006802 0.00042787 0.00016281    0.0836427 -+++
   106   0   0   T    F  3.19D-01 0.00022761 0.00006802 0.00192489 0.00073247    0.0836434 -+--
   107   0   0   F    T  2.15D+00 0.00011812 0.00005342 0.00030829 0.00010890    0.0836425 -+++
   108   0   0   F    T  1.28D+00 0.00019980 0.00006679 0.00054175 0.00018247    0.0836423 -+-+
   109   0   0   F    F  1.66D+00 0.00019980 0.00006679 0.00069393 0.00023373    0.0836420 -+-+
   110   0   0   F    T  1.68D+00 0.00031831 0.00009085 0.00115325 0.00036958    0.0836418 ----
   111   0   0   F    F  9.57D-02 0.00031831 0.00009085 0.00194307 0.00062269    0.0836413 ----
   112   0   0   F    T  1.61D+00 0.00029201 0.00009748 0.00137127 0.00042314    0.0836413 ----
   113   0   0   F    F  8.43D-01 0.00029201 0.00009748 0.00221109 0.00068229    0.0836406 ----
   114   0   0   F    T  2.69D+00 0.00027321 0.00010103 0.00150183 0.00046659    0.0836404 ----
   115   0   0   F    F -2.11D-01 0.00027321 0.00010103 0.00404676 0.00125724    0.0836398 ----
   116   0   0   F    T  2.62D+00 0.00024319 0.00008957 0.00118582 0.00037824    0.0836398 ----
   117   0   0   F    F -3.56D-01 0.00024319 0.00008957 0.00310806 0.00099139    0.0836395 ----
   118   0   0   F    T  2.04D+00 0.00020670 0.00008015 0.00097128 0.00031329    0.0836393 ----
   119   0   0   F    F  6.99D-01 0.00020670 0.00008015 0.00198035 0.00063876    0.0836387 ----
   120   0   0   F    T  1.82D+00 0.00029614 0.00010963 0.00191093 0.00059578    0.0836386 ----
   121   0   0   F    F  4.25D-01 0.00029614 0.00010963 0.00348158 0.00108546    0.0836377 ----
   122   0   0   F    T  1.67D+00 0.00050654 0.00013593 0.00297666 0.00092467    0.0836376 ----
   123   0   0   F    F -3.05D-01 0.00050654 0.00013593 0.00497904 0.00154670    0.0836371 ----
   124   0   0   F    T  3.56D+00 0.00020013 0.00007629 0.00094284 0.00030170    0.0836370 ----
   125   0   0   F    F -5.69D-02 0.00020013 0.00007629 0.00336029 0.00107524    0.0836363 ----
   126   0   0   F    T  1.83D+00 0.00027936 0.00010253 0.00176528 0.00055456    0.0836363 ----
   127   0   0   F    F  5.03D-02 0.00027936 0.00010253 0.00322800 0.00101407    0.0836357 ----
   128   0   0   F    T  1.86D+00 0.00034407 0.00010333 0.00180671 0.00057267    0.0836357 ----
   129   0   0   F    F  1.24D-01 0.00034407 0.00010333 0.00336018 0.00106507    0.0836350 ----
   130   0   0   F    T  2.35D+00 0.00031628 0.00009653 0.00156759 0.00050896    0.0836350 ----
   131   0   0   F    F -3.55D-01 0.00031628 0.00009653 0.00368618 0.00119683    0.0836347 ----
   132   0   0   F    T  3.80D+00 0.00016422 0.00005958 0.00066544 0.00020277    0.0836346 -+-+
   133   0   0   T    F  4.89D-01 0.00016422 0.00005958 0.00253169 0.00077143    0.0836346 -+--
   134   0   0   F    T  2.42D+00 0.00019796 0.00005084 0.00053155 0.00015617    0.0836344 -+-+
   135   0   0   F    T  2.07D+00 0.00020151 0.00005493 0.00059535 0.00018204    0.0836341 -+-+
   136   0   0   F    F -3.64D-01 0.00020151 0.00005493 0.00123349 0.00037717    0.0836341 -+--
   137   0   0   F    T  2.27D+00 0.00013768 0.00003678 0.00030907 0.00010564    0.0836340 -+++
   138   0   0   F    F -2.89D-01 0.00013768 0.00003678 0.00070187 0.00023989    0.0836340 -+-+
   139   0   0   F    T  2.23D+00 0.00008847 0.00003100 0.00018188 0.00007654    0.0836339 ====
 Energy=    0.083633943802 NIter=   0.
 Dipole moment=       0.000000       0.000000       0.000000
 ***** Axes restored to original set *****
 -------------------------------------------------------------------
 Center     Atomic                   Forces (Hartrees/Bohr)
 Number     Number              X              Y              Z
 -------------------------------------------------------------------
    1          6          -0.000025441    0.000039725   -0.000032255
    2          6           0.000101248   -0.000006525   -0.000020921
    3          7           0.000056709   -0.000002885    0.000021454
    4          6          -0.000011759    0.000006239    0.000021538
    5          7          -0.000031794    0.000007385    0.000054376
    6          6          -0.000090448   -0.000027383   -0.000021136
    7          6          -0.000040116   -0.000031917   -0.000014849
    8          7           0.000057161   -0.000012327    0.000018366
    9          1           0.000024071    0.000062534    0.000030100
   10          1           0.000019600    0.000012683    0.000014295
   11          6          -0.000034512   -0.000005308    0.000008721
   12          1          -0.000008251   -0.000013002   -0.000009290
   13          1           0.000030387   -0.000010433    0.000027995
   14          1           0.000008524    0.000023713   -0.000035704
   15          1          -0.000019775   -0.000013643    0.000008076
   16          1          -0.000034971    0.000012330   -0.000032455
   17          1          -0.000010986   -0.000058067   -0.000000500
   18          1           0.000024835    0.000033778    0.000013134
   19          1           0.000008780   -0.000005659   -0.000006358
   20          1          -0.000014851   -0.000013772   -0.000004725
   21          1          -0.000008410    0.000002534   -0.000039865
 -------------------------------------------------------------------
 Cartesian Forces:  Max     0.000101248 RMS     0.000031004

 GradGradGradGradGradGradGradGradGradGradGradGradGradGradGradGradGradGrad
 Berny optimization.
 Search for a local minimum.
 Step number   1 out of a maximum of   2
 All quantities printed in internal units (Hartrees-Bohrs-Radians)
 Second derivative matrix not updated -- unit matrix used.
 RFO step:  Lambda=-6.05593665D-08.
 Linear search not attempted -- first point.
 TrRot=  0.000000  0.000000  0.000000  0.000000  0.000000  0.000000
 Variable       Old X    -DE/DX   Delta X   Delta X   Delta X     New X
                                 (Linear)    (Quad)   (Total)
    X1        3.17650  -0.00003   0.00000  -0.00003  -0.00003   3.17647
    Y1        0.19600   0.00004   0.00000   0.00004   0.00004   0.19604
    Z1       -0.57165  -0.00003   0.00000  -0.00003  -0.00003  -0.57168
    X2        0.80648   0.00010   0.00000   0.00010   0.00010   0.80658
    Y2       -0.09326  -0.00001   0.00000  -0.00001  -0.00001  -0.09327
    Z2       -1.34515  -0.00002   0.00000  -0.00002  -0.00002  -1.34517
    X3        4.60835   0.00006   0.00000   0.00006   0.00006   4.60841
    Y3       -1.65771   0.00000   0.00000   0.00000   0.00000  -1.65771
    Z3       -1.56630   0.00002   0.00000   0.00002   0.00002  -1.56627
    X4        3.00798  -0.00001   0.00000  -0.00001  -0.00001   3.00797
    Y4       -3.05441   0.00001   0.00000   0.00001   0.00001  -3.05441
    Z4       -2.96353   0.00002   0.00000   0.00002   0.00002  -2.96350
    X5        0.64606  -0.00003   0.00000  -0.00003  -0.00003   0.64603
    Y5       -2.12689   0.00001   0.00000   0.00001   0.00001  -2.12688
    Z5       -2.86271   0.00005   0.00000   0.00005   0.00005  -2.86266
    X6       -1.39034  -0.00009   0.00000  -0.00009  -0.00009  -1.39043
    Y6        1.57834  -0.00003   0.00000  -0.00003  -0.00003   1.57831
    Z6       -0.68775  -0.00002   0.00000  -0.00002  -0.00002  -0.68777
    X7       -2.01302  -0.00004   0.00000  -0.00004  -0.00004  -2.01306
    Y7        1.52380  -0.00003   0.00000  -0.00003  -0.00003   1.52377
    Z7        2.16246  -0.00001   0.00000  -0.00001  -0.00001   2.16244
    X8       -3.96052   0.00006   0.00000   0.00006   0.00006  -3.96046
    Y8        3.40483  -0.00001   0.00000  -0.00001  -0.00001   3.40482
    Z8        2.74298   0.00002   0.00000   0.00002   0.00002   2.74300
    X9        3.87957   0.00002   0.00000   0.00002   0.00002   3.87959
    Y9        1.67350   0.00006   0.00000   0.00006   0.00006   1.67356
    Z9        0.65547   0.00003   0.00000   0.00003   0.00003   0.65550
   X10       -0.91915   0.00002   0.00000   0.00002   0.00002  -0.91913
   Y10        3.54091   0.00001   0.00000   0.00001   0.00001   3.54093
   Z10       -1.26936   0.00001   0.00000   0.00001   0.00001  -1.26934
   X11       -2.89796  -0.00003   0.00000  -0.00003  -0.00003  -2.89800
   Y11       -1.11096  -0.00001   0.00000  -0.00001  -0.00001  -1.11097
   Z11        3.00349   0.00001   0.00000   0.00001   0.00001   3.00350
   X12       -0.27929  -0.00001   0.00000  -0.00001  -0.00001  -0.27930
   Y12        2.01304  -0.00001   0.00000  -0.00001  -0.00001   2.01303
   Z12        3.24948  -0.00001   0.00000  -0.00001  -0.00001   3.24947
   X13       -4.39320   0.00003   0.00000   0.00003   0.00003  -4.39317
   Y13        3.44640  -0.00001   0.00000  -0.00001  -0.00001   3.44639
   Z13        4.66918   0.00003   0.00000   0.00003   0.00003   4.66921
   X14       -3.38204   0.00001   0.00000   0.00001   0.00001  -3.38204
   Y14        5.23173   0.00002   0.00000   0.00002   0.00002   5.23175
   Z14        2.26705  -0.00004   0.00000  -0.00004  -0.00004   2.26701
   X15       -5.64866  -0.00002   0.00000  -0.00002  -0.00002  -5.64868
   Y15        3.06061  -0.00001   0.00000  -0.00001  -0.00001   3.06059
   Z15        1.77681   0.00001   0.00000   0.00001   0.00001   1.77682
   X16        6.54342  -0.00003   0.00000  -0.00003  -0.00003   6.54339
   Y16       -1.94527   0.00001   0.00000   0.00001   0.00001  -1.94526
   Z16       -1.31264  -0.00003   0.00000  -0.00003  -0.00003  -1.31267
   X17        3.55143  -0.00001   0.00000  -0.00001  -0.00001   3.55141
   Y17       -4.70862  -0.00006   0.00000  -0.00006  -0.00006  -4.70867
   Z17       -4.03489   0.00000   0.00000   0.00000   0.00000  -4.03489
   X18       -3.07761   0.00002   0.00000   0.00002   0.00002  -3.07759
   Y18        0.98030   0.00003   0.00000   0.00003   0.00003   0.98034
   Z18       -1.78889   0.00001   0.00000   0.00001   0.00001  -1.78888
   X19       -4.60578   0.00001   0.00000   0.00001   0.00001  -4.60577
   Y19       -1.69296  -0.00001   0.00000  -0.00001  -0.00001  -1.69297
   Z19        1.92992  -0.00001   0.00000  -0.00001  -0.00001   1.92991
   X20       -1.38250  -0.00001   0.00000  -0.00001  -0.00001  -1.38252
   Y20       -2.52993  -0.00001   0.00000  -0.00001  -0.00001  -2.52994
   Z20        2.69806   0.00000   0.00000   0.00000   0.00000   2.69806
   X21       -3.36108  -0.00001   0.00000  -0.00001  -0.00001  -3.36109
   Y21       -1.09371   0.00000   0.00000   0.00000   0.00000  -1.09371
   Z21        5.05062  -0.00004   0.00000  -0.00004  -0.00004   5.05058
         Item               Value     Threshold  Converged?
 Maximum Force            0.000101     0.000450     YES
 RMS     Force            0.000031     0.000300     YES
 Maximum Displacement     0.000101     0.001800     YES
 RMS     Displacement     0.000031     0.001200     YES
 Predicted change in Energy=-3.027968D-08
 Optimization completed.
    -- Stationary point found.
 GradGradGradGradGradGradGradGradGradGradGradGradGradGradGradGradGradGrad

                          Input orientation:                          
 ---------------------------------------------------------------------
 Center     Atomic     Atomic              Coordinates (Angstroms)
 Number     Number      Type              X           Y           Z
 ---------------------------------------------------------------------
    1          6      10061000        1.680930    0.103717   -0.302505
    2          6      10061000        0.426769   -0.049352   -0.711820
    3          7      10071000        2.438636   -0.877223   -0.828848
    4          6      10061000        1.591753   -1.616325   -1.568231
    5          7      10071000        0.341879   -1.125501   -1.514882
    6          6      10061003       -0.735735    0.835219   -0.363942
    7          6      10061003       -1.065245    0.806360    1.144323
    8          7      10071000       -2.095817    1.801759    1.451523
    9          1      10011000        2.052980    0.885578    0.346859
   10          1      10011000       -0.486392    1.873771   -0.671715
   11          6      10061003       -1.533536   -0.587896    1.589379
   12          1      10011000       -0.147792    1.065257    1.719550
   13          1      10011000       -2.324782    1.823757    2.470822
   14          1      10011000       -1.789701    2.768512    1.199670
   15          1      10011000       -2.989144    1.619603    0.940246
   16          1      10011000        3.462629   -1.029394   -0.694619
   17          1      10011000        1.879334   -2.491693   -2.135170
   18          1      10011000       -1.628603    0.518754   -0.946642
   19          1      10011000       -2.437273   -0.895877    1.021268
   20          1      10011000       -0.731589   -1.338779    1.427754
   21          1      10011000       -1.778605   -0.578768    2.672674
 ---------------------------------------------------------------------
                    Distance matrix (angstroms):
                    1          2          3          4          5
     1  C    0.000000
     2  C    1.328115   0.000000
     3  N    1.346625   2.178686   0.000000
     4  C    2.137419   2.132142   1.345425   0.000000
     5  N    2.184925   1.345441   2.220062   1.343852   0.000000
     6  C    2.525696   1.501633   3.636650   3.588535   2.516017
     7  C    3.182529   2.530537   4.359476   4.504108   3.575396
     8  N    4.497086   3.803960   5.739190   5.865184   4.828124
     9  H    1.082313   2.153940   2.153714   3.184308   3.230849
    10  H    2.822533   2.129290   4.018513   4.159712   3.223756
    11  C    3.793461   3.070561   4.659365   4.560219   3.666421
    12  H    2.890933   2.735697   4.117909   4.585456   3.937100
    13  H    5.166779   4.605300   6.393220   6.594495   5.629835
    14  H    4.626331   4.062867   5.940126   6.190500   5.203438
    15  H    5.064774   4.145262   6.230941   6.143965   4.965780
    16  H    2.147591   3.190176   1.043904   2.146593   3.228180
    17  H    3.183422   3.178190   2.150769   1.081846   2.148255
    18  H    3.397084   2.145331   4.301751   3.913519   2.628550
    19  H    4.439725   3.452960   5.215147   4.843304   3.769412
    20  H    3.300733   2.753578   3.918624   3.801431   3.139575
    21  H    4.613660   4.074158   5.489522   5.515534   4.725569
                    6          7          8          9         10
     6  C    0.000000
     7  C    1.544108   0.000000
     8  N    2.465752   1.465357   0.000000
     9  H    2.878316   3.219557   4.390010   0.000000
    10  H    1.111525   2.184589   2.665253   2.909025   0.000000
    11  C    2.545035   1.536659   2.458784   4.071618   3.502693
    12  H    2.177047   1.113388   2.099780   2.599993   2.546859
    13  H    3.396787   2.093115   1.044931   4.955421   3.641115
    14  H    2.700619   2.092352   1.044867   4.363361   2.449745
    15  H    2.719194   2.098666   1.045283   5.129709   2.987773
    16  H    4.605691   5.220473   6.596793   2.595940   4.901394
    17  H    4.587393   5.504795   6.862938   4.194827   5.176450
    18  H    1.112161   2.184542   2.759635   3.919408   1.793405
    19  H    2.794768   2.189798   2.752989   4.877579   3.787225
    20  H    2.817172   2.189356   3.424129   3.724234   3.845565
    21  H    3.508272   2.182504   2.694206   4.715376   4.343927
                   11         12         13         14         15
    11  C    0.000000
    12  H    2.161052   0.000000
    13  H    2.686835   2.424668   0.000000
    14  H    3.388653   2.422233   1.671736   0.000000
    15  H    2.722723   2.997981   1.680987   1.681058   0.000000
    16  H    5.511191   4.821921   7.187114   6.752732   7.163473
    17  H    5.398554   5.623166   7.583723   7.228604   7.075522
    18  H    2.768594   3.098394   3.723809   3.113521   2.573574
    19  H    1.111010   3.094408   3.083872   3.725442   2.576580
    20  H    1.110435   2.491055   3.691597   4.247524   3.753164
    21  H    1.110707   2.504160   2.472080   3.657068   3.049516
                   16         17         18         19         20
    16  H    0.000000
    17  H    2.592359   0.000000
    18  H    5.327375   4.772946   0.000000
    19  H    6.145806   5.580575   2.554955   0.000000
    20  H    4.710802   4.565145   3.145285   1.808521   0.000000
    21  H    6.245980   6.336810   3.785037   1.805974   1.795462
                   21
    21  H    0.000000
 Stoichiometry    C6H12N3(1+)
 Framework group  C1[X(C6H12N3)]
 Deg. of freedom    57
 Full point group                 C1
 Largest Abelian subgroup         C1      NOp   1
 Largest concise Abelian subgroup C1      NOp   1
                         Standard orientation:                         
 ---------------------------------------------------------------------
 Center     Atomic     Atomic              Coordinates (Angstroms)
 Number     Number      Type              X           Y           Z
 ---------------------------------------------------------------------
    1          6      10061000        1.344594   -0.930955   -0.499308
    2          6      10061000        0.702434   -0.189877    0.396416
    3          7      10071000        2.601495   -0.467017   -0.634812
    4          6      10061000        2.685005    0.573210    0.214377
    5          7      10071000        1.525491    0.765268    0.865975
    6          6      10061003       -0.717203   -0.375079    0.849445
    7          6      10061003       -1.732522   -0.145781   -0.291090
    8          7      10071000       -3.082106   -0.493575    0.161604
    9          1      10011000        0.940408   -1.776350   -1.040917
   10          1      10011000       -0.824433   -1.409322    1.242294
   11          6      10061003       -1.703326    1.309512   -0.783625
   12          1      10011000       -1.470206   -0.808006   -1.146825
   13          1      10011000       -3.790898   -0.371583   -0.596428
   14          1      10011000       -3.145569   -1.491910    0.463346
   15          1      10011000       -3.393314    0.091798    0.969753
   16          1      10011000        3.350272   -0.836711   -1.261225
   17          1      10011000        3.571679    1.176420    0.356986
   18          1      10011000       -0.932568    0.324836    1.686488
   19          1      10011000       -1.937961    2.007821    0.048032
   20          1      10011000       -0.703753    1.561688   -1.196333
   21          1      10011000       -2.451703    1.452404   -1.591823
 ---------------------------------------------------------------------
 Rotational constants (GHZ):      4.0732151      0.8732389      0.8465681
 1|1|UNPC-UNK|FOpt|UFF|ZDO|C6H12N3(1+)|PCUSER|13-Dec-2007|0||# opt uff|
 |a-me-histamine-t||1,1|C,1.6809301369,0.1037169995,-0.3025045639|C,0.4
 267694942,-0.0493523608,-0.7118201254|N,2.4386359848,-0.8772228825,-0.
 8288479636|C,1.5917531158,-1.6163250845,-1.5682306556|N,0.3418790797,-
 1.1255013616,-1.5148822483|C,-0.7357350229,0.8352189595,-0.3639417073|
 C,-1.0652446039,0.8063602631,1.1443226878|N,-2.0958172472,1.8017592093
 ,1.4515228063|H,2.0529797183,0.8855776557,0.346859322|H,-0.4863921692,
 1.873771309,-0.6717147141|C,-1.5335357424,-0.5878959379,1.5893792093|H
 ,-0.1477924528,1.0652570922,1.7195502608|H,-2.3247818157,1.8237567622,
 2.4708223138|H,-1.7897005297,2.7685116848,1.1996697823|H,-2.9891440685
 ,1.6196027912,0.9402464044|H,3.462628788,-1.0293943918,-0.6946194723|H
 ,1.8793336644,-2.4916926156,-2.1351696854|H,-1.6286033957,0.5187540319
 ,-0.9466416243|H,-2.4372726568,-0.8958766197,1.0212678269|H,-0.7315894
 416,-1.3387790183,1.4277537397|H,-1.7786052655,-0.5787682857,2.6726741
 171||Version=IA32W-G03RevD.01|HF=0.0836339|RMSD=0.000e+000|RMSF=3.100e
 -005|Thermal=0.|Dipole=0.,0.,0.|PG=C01 [X(C6H12N3)]||@


 Children are likely to live up to what you believe of them.
 -- Lady Bird Johnson
 Job cpu time:  0 days  0 hours  0 minutes  4.0 seconds.
 File lengths (MBytes):  RWF=     11 Int=      0 D2E=      0 Chk=      4 Scr=      1
 Normal termination of Gaussian 03 at Thu Dec 13 15:35:20 2007.
