 Entering Gaussian System, Link 0=g09
 Input=2-SnBu3-N-Me-piperidine-ax-ax_sp.gjf
 Output=2-SnBu3-N-Me-piperidine-ax-ax_sp.out
 Initial command:
 /usr/local/g09/l1.exe /home/scratch/stylianakis/Gau-24575.inp -scrdir=/home/scratch/stylianakis/
 Entering Link 1 = /usr/local/g09/l1.exe PID=     24576.
  
 Copyright (c) 1988,1990,1992,1993,1995,1998,2003,2009, Gaussian, Inc.
                  All Rights Reserved.
  
 This is part of the Gaussian(R) 09 program.  It is based on
 the Gaussian(R) 03 system (copyright 2003, Gaussian, Inc.),
 the Gaussian(R) 98 system (copyright 1998, Gaussian, Inc.),
 the Gaussian(R) 94 system (copyright 1995, Gaussian, Inc.),
 the Gaussian 92(TM) system (copyright 1992, Gaussian, Inc.),
 the Gaussian 90(TM) system (copyright 1990, Gaussian, Inc.),
 the Gaussian 88(TM) system (copyright 1988, Gaussian, Inc.),
 the Gaussian 86(TM) system (copyright 1986, Carnegie Mellon
 University), and the Gaussian 82(TM) system (copyright 1983,
 Carnegie Mellon University). Gaussian is a federally registered
 trademark of Gaussian, Inc.
  
 This software contains proprietary and confidential information,
 including trade secrets, belonging to Gaussian, Inc.
  
 This software is provided under written license and may be
 used, copied, transmitted, or stored only in accord with that
 written license.
  
 The following legend is applicable only to US Government
 contracts under FAR:
  
                    RESTRICTED RIGHTS LEGEND
  
 Use, reproduction and disclosure by the US Government is
 subject to restrictions as set forth in subparagraphs (a)
 and (c) of the Commercial Computer Software - Restricted
 Rights clause in FAR 52.227-19.
  
 Gaussian, Inc.
 340 Quinnipiac St., Bldg. 40, Wallingford CT 06492
  
  
 ---------------------------------------------------------------
 Warning -- This program may not be used in any manner that
 competes with the business of Gaussian, Inc. or will provide
 assistance to any competitor of Gaussian, Inc.  The licensee
 of this program is prohibited from giving any competitor of
 Gaussian, Inc. access to this program.  By using this program,
 the user acknowledges that Gaussian, Inc. is engaged in the
 business of creating and licensing software in the field of
 computational chemistry and represents and warrants to the
 licensee that it is not a competitor of Gaussian, Inc. and that
 it will not use this program in any manner prohibited above.
 ---------------------------------------------------------------
  

 Cite this work as:
 Gaussian 09, Revision A.01,
 M. J. Frisch, G. W. Trucks, H. B. Schlegel, G. E. Scuseria, 
 M. A. Robb, J. R. Cheeseman, G. Scalmani, V. Barone, B. Mennucci, 
 G. A. Petersson, H. Nakatsuji, M. Caricato, X. Li, H. P. Hratchian, 
 A. F. Izmaylov, J. Bloino, G. Zheng, J. L. Sonnenberg, M. Hada, 
 M. Ehara, K. Toyota, R. Fukuda, J. Hasegawa, M. Ishida, T. Nakajima, 
 Y. Honda, O. Kitao, H. Nakai, T. Vreven, J. A. Montgomery, Jr., 
 J. E. Peralta, F. Ogliaro, M. Bearpark, J. J. Heyd, E. Brothers, 
 K. N. Kudin, V. N. Staroverov, R. Kobayashi, J. Normand, 
 K. Raghavachari, A. Rendell, J. C. Burant, S. S. Iyengar, J. Tomasi, 
 M. Cossi, N. Rega, J. M. Millam, M. Klene, J. E. Knox, J. B. Cross, 
 V. Bakken, C. Adamo, J. Jaramillo, R. Gomperts, R. E. Stratmann, 
 O. Yazyev, A. J. Austin, R. Cammi, C. Pomelli, J. W. Ochterski, 
 R. L. Martin, K. Morokuma, V. G. Zakrzewski, G. A. Voth, 
 P. Salvador, J. J. Dannenberg, S. Dapprich, A. D. Daniels, 
 O. Farkas, J. B. Foresman, J. V. Ortiz, J. Cioslowski, 
 and D. J. Fox, Gaussian, Inc., Wallingford CT, 2009.
 
 ******************************************
 Gaussian 09:  EM64L-G09RevA.01  8-May-2009
                23-Oct-2016 
 ******************************************
 %mem=8000Mb
 %nproc=8
 Will use up to    8 processors via shared memory.
 %RWF=/media/S/Gaussian_scratch/,140GB,/media/TOSHIBA\ EXT/,200GB,/home/scratch/s
 tylianakis/,60GB,
 %NoSave
 ------------
 # mp2/dgdzvp
 ------------
 1/38=1/1;
 2/12=2,17=6,18=5,40=1/2;
 3/5=27,6=1,11=9,16=1,25=1,30=1/1,2,3;
 4//1;
 5/5=2,38=5/2;
 8/10=1/1;
 9/16=-3/6;
 6/7=2,8=2,9=2,10=2/1;
 99/5=1,9=1/99;
 -----------------------------
 2-SnBu3-N-Me-piperidine-ax,ax
 -----------------------------
 Symbolic Z-matrix:
 Charge =  0 Multiplicity = 1
 C
 N                    1    B1
 C                    2    B2       1    A1
 C                    1    B3       2    A2       3    D1       0
 C                    3    B4       2    A3       1    D2       0
 C                    4    B5       1    A4       2    D3       0
 C                    2    B6       1    A5       4    D4       0
 H                    1    B7       2    A6       7    D5       0
 H                    3    B8       2    A7       1    D6       0
 H                    3    B9       2    A8       1    D7       0
 H                    4    B10      1    A9       2    D8       0
 H                    4    B11      1    A10      2    D9       0
 H                    5    B12      3    A11      2    D10      0
 H                    5    B13      3    A12      2    D11      0
 H                    6    B14      4    A13      1    D12      0
 H                    6    B15      4    A14      1    D13      0
 Sn                   1    B16      2    A15      7    D14      0
 C                    17   B17      1    A16      2    D15      0
 C                    18   B18      17   A17      1    D16      0
 C                    19   B19      18   A18      17   D17      0
 C                    20   B20      19   A19      18   D18      0
 C                    17   B21      1    A20      2    D19      0
 C                    22   B22      17   A21      1    D20      0
 C                    23   B23      22   A22      17   D21      0
 C                    24   B24      23   A23      22   D22      0
 C                    17   B25      1    A24      2    D23      0
 C                    26   B26      17   A25      1    D24      0
 C                    27   B27      26   A26      17   D25      0
 C                    28   B28      27   A27      26   D26      0
 H                    7    B29      2    A28      1    D27      0
 H                    7    B30      2    A29      1    D28      0
 H                    7    B31      2    A30      1    D29      0
 H                    18   B32      17   A31      1    D30      0
 H                    18   B33      17   A32      1    D31      0
 H                    19   B34      18   A33      17   D32      0
 H                    19   B35      18   A34      17   D33      0
 H                    20   B36      19   A35      18   D34      0
 H                    20   B37      19   A36      18   D35      0
 H                    21   B38      20   A37      19   D36      0
 H                    21   B39      20   A38      19   D37      0
 H                    21   B40      20   A39      19   D38      0
 H                    22   B41      17   A40      1    D39      0
 H                    22   B42      17   A41      1    D40      0
 H                    23   B43      22   A42      17   D41      0
 H                    23   B44      22   A43      17   D42      0
 H                    24   B45      23   A44      22   D43      0
 H                    24   B46      23   A45      22   D44      0
 H                    25   B47      24   A46      23   D45      0
 H                    25   B48      24   A47      23   D46      0
 H                    25   B49      24   A48      23   D47      0
 H                    26   B50      17   A49      1    D48      0
 H                    26   B51      17   A50      1    D49      0
 H                    27   B52      26   A51      17   D50      0
 H                    27   B53      26   A52      17   D51      0
 H                    28   B54      27   A53      26   D52      0
 H                    28   B55      27   A54      26   D53      0
 H                    29   B56      28   A55      27   D54      0
 H                    29   B57      28   A56      27   D55      0
 H                    29   B58      28   A57      27   D56      0
       Variables:
  B1                    1.47674                  
  B2                    1.46935                  
  B3                    1.54485                  
  B4                    1.54216                  
  B5                    1.53703                  
  B6                    1.46501                  
  B7                    1.09798                  
  B8                    1.09813                  
  B9                    1.09608                  
  B10                   1.1011                   
  B11                   1.0974                   
  B12                   1.09752                  
  B13                   1.09805                  
  B14                   1.09944                  
  B15                   1.09675                  
  B16                   2.23488                  
  B17                   2.20756                  
  B18                   1.53919                  
  B19                   1.53876                  
  B20                   1.5348                   
  B21                   2.20797                  
  B22                   1.53926                  
  B23                   1.53855                  
  B24                   1.53476                  
  B25                   2.19976                  
  B26                   1.53829                  
  B27                   1.53847                  
  B28                   1.53483                  
  B29                   1.10445                  
  B30                   1.09546                  
  B31                   1.09591                  
  B32                   1.09703                  
  B33                   1.09773                  
  B34                   1.09848                  
  B35                   1.09873                  
  B36                   1.09844                  
  B37                   1.09833                  
  B38                   1.09583                  
  B39                   1.09659                  
  B40                   1.09662                  
  B41                   1.0984                   
  B42                   1.09814                  
  B43                   1.09858                  
  B44                   1.09895                  
  B45                   1.09849                  
  B46                   1.09844                  
  B47                   1.09587                  
  B48                   1.09661                  
  B49                   1.09665                  
  B50                   1.09765                  
  B51                   1.09839                  
  B52                   1.09887                  
  B53                   1.09894                  
  B54                   1.09832                  
  B55                   1.09848                  
  B56                   1.09592                  
  B57                   1.09668                  
  B58                   1.09672                  
  A1                  112.30145                  
  A2                  113.76735                  
  A3                  114.68271                  
  A4                  111.81588                  
  A5                  113.71319                  
  A6                  106.55326                  
  A7                  108.02107                  
  A8                  108.24854                  
  A9                  109.62904                  
  A10                 110.14753                  
  A11                 109.46992                  
  A12                 109.89537                  
  A13                 109.67392                  
  A14                 110.39028                  
  A15                 110.3034                   
  A16                 115.62012                  
  A17                 115.27812                  
  A18                 113.35632                  
  A19                 113.31389                  
  A20                 107.35777                  
  A21                 115.88441                  
  A22                 113.47826                  
  A23                 113.37873                  
  A24                 103.1315                   
  A25                 117.30975                  
  A26                 113.30807                  
  A27                 113.45011                  
  A28                 115.16437                  
  A29                 109.20737                  
  A30                 109.36296                  
  A31                 107.79875                  
  A32                 107.31191                  
  A33                 110.21809                  
  A34                 109.85594                  
  A35                 109.08549                  
  A36                 109.08232                  
  A37                 111.42781                  
  A38                 111.2295                   
  A39                 111.24226                  
  A40                 106.92961                  
  A41                 107.77868                  
  A42                 110.07896                  
  A43                 109.89034                  
  A44                 109.05572                  
  A45                 109.0953                   
  A46                 111.43026                  
  A47                 111.24895                  
  A48                 111.24783                  
  A49                 105.39994                  
  A50                 107.23278                  
  A51                 110.2257                   
  A52                 109.90943                  
  A53                 109.02152                  
  A54                 109.0498                   
  A55                 111.44711                  
  A56                 111.25532                  
  A57                 111.25131                  
  D1                  -50.815                    
  D2                   52.30477                  
  D3                   52.06257                  
  D4                   79.42902                  
  D5                  -39.5214                   
  D6                  -68.89959                  
  D7                  176.16929                  
  D8                  -68.20724                  
  D9                  175.38528                  
  D10                -176.11997                  
  D11                  67.11424                  
  D12                  67.65485                  
  D13                -175.38973                  
  D14                -147.43587                  
  D15                 -57.98655                  
  D16                -164.20714                  
  D17                -179.61015                  
  D18                -179.58411                  
  D19                 179.40056                  
  D20                -153.14379                  
  D21                 179.12387                  
  D22                -179.90621                  
  D23                  62.56294                  
  D24                -161.31258                  
  D25                 177.72517                  
  D26                -179.93092                  
  D27                 -63.09066                  
  D28                  58.11416                  
  D29                 175.4995                   
  D30                 -41.31853                  
  D31                  72.81804                  
  D32                 -57.59579                  
  D33                  58.64547                  
  D34                 -57.30451                  
  D35                  58.15796                  
  D36                -179.87868                  
  D37                 -59.78689                  
  D38                  60.03199                  
  D39                 -30.50266                  
  D40                  83.12206                  
  D41                 -58.80738                  
  D42                  57.26181                  
  D43                 -57.63004                  
  D44                  57.79071                  
  D45                 179.82946                  
  D46                 -60.08315                  
  D47                  59.73853                  
  D48                 -38.44695                  
  D49                  74.43147                  
  D50                 -60.26906                  
  D51                  55.99239                  
  D52                 -57.60154                  
  D53                  57.76732                  
  D54                -179.99082                  
  D55                 -59.89207                  
  D56                  59.92891                  
 
 Stoichiometry    C18H39NSn
 Framework group  C1[X(C18H39NSn)]
 Deg. of freedom   171
 Full point group                 C1      NOp   1
 Largest Abelian subgroup         C1      NOp   1
 Largest concise Abelian subgroup C1      NOp   1
                         Standard orientation:                         
 ---------------------------------------------------------------------
 Center     Atomic      Atomic             Coordinates (Angstroms)
 Number     Number       Type             X           Y           Z
 ---------------------------------------------------------------------
      1          6           0        2.374961    0.058790   -0.999206
      2          7           0        3.129637    1.062969   -0.222766
      3          6           0        3.605275    0.532033    1.062095
      4          6           0        3.111422   -1.290327   -1.154366
      5          6           0        4.394517   -0.788967    0.960524
      6          6           0        3.577126   -1.846044    0.200903
      7          6           0        4.177417    1.737550   -0.993060
      8          1           0        2.228401    0.483528   -2.001039
      9          1           0        2.731320    0.368601    1.706591
     10          1           0        4.211148    1.304507    1.549522
     11          1           0        3.994867   -1.157596   -1.798048
     12          1           0        2.467209   -2.015850   -1.667090
     13          1           0        4.647150   -1.142579    1.968332
     14          1           0        5.346220   -0.616622    0.440640
     15          1           0        2.703258   -2.131522    0.803913
     16          1           0        4.166571   -2.759680    0.057095
     17         50           0        0.256395   -0.034873   -0.293812
     18          6           0       -0.017687   -0.513402    1.843758
     19          6           0       -1.439244   -0.948049    2.242954
     20          6           0       -1.582821   -1.261415    3.742607
     21          6           0       -2.998148   -1.704462    4.137788
     22          6           0       -0.782789   -1.542187   -1.528013
     23          6           0       -2.300940   -1.346861   -1.690452
     24          6           0       -2.964925   -2.414595   -2.577134
     25          6           0       -4.478156   -2.216362   -2.739404
     26          6           0       -0.505456    1.981954   -0.730781
     27          6           0       -1.779229    2.430214    0.006036
     28          6           0       -2.198569    3.872789   -0.325642
     29          6           0       -3.468298    4.324018    0.409125
     30          1           0        4.986709    1.081574   -1.359888
     31          1           0        3.726549    2.226725   -1.863379
     32          1           0        4.635670    2.519048   -0.376387
     33          1           0        0.697432   -1.303255    2.104945
     34          1           0        0.279710    0.373723    2.417837
     35          1           0       -2.163990   -0.166775    1.976489
     36          1           0       -1.732613   -1.837590    1.668628
     37          1           0       -0.863204   -2.044867    4.016325
     38          1           0       -1.301085   -0.372971    4.323666
     39          1           0       -3.066115   -1.917277    5.210606
     40          1           0       -3.736640   -0.927676    3.905956
     41          1           0       -3.294867   -2.612822    3.599816
     42          1           0       -0.300810   -1.534859   -2.514995
     43          1           0       -0.574800   -2.530254   -1.096288
     44          1           0       -2.789388   -1.352746   -0.706445
     45          1           0       -2.506664   -0.356280   -2.119532
     46          1           0       -2.486211   -2.408049   -3.565810
     47          1           0       -2.768936   -3.407958   -2.151228
     48          1           0       -4.917261   -2.991131   -3.378036
     49          1           0       -4.990273   -2.255528   -1.770514
     50          1           0       -4.705217   -1.244210   -3.193282
     51          1           0        0.323290    2.663228   -0.498659
     52          1           0       -0.658486    2.043789   -1.816701
     53          1           0       -2.613987    1.757300   -0.234535
     54          1           0       -1.631809    2.348383    1.091963
     55          1           0       -1.371127    4.551726   -0.079274
     56          1           0       -2.351617    3.961396   -1.409792
     57          1           0       -3.736910    5.354254    0.149305
     58          1           0       -4.322580    3.684599    0.156021
     59          1           0       -3.334844    4.280503    1.496822
 ---------------------------------------------------------------------
 Rotational constants (GHZ):      0.2406267      0.1537250      0.1482857
 Standard basis: DGDZVP (5D, 7F)
 There are   380 symmetry adapted basis functions of A   symmetry.
 Integral buffers will be    131072 words long.
 Raffenetti 1 integral format.
 Two-electron integral symmetry is turned on.
   380 basis functions,   879 primitive gaussians,   402 cartesian basis functions
   102 alpha electrons      102 beta electrons
       nuclear repulsion energy      2606.2100529221 Hartrees.
 NAtoms=   59 NActive=   59 NUniq=   59 SFac= 7.50D-01 NAtFMM=   80 NAOKFM=F Big=F
 One-electron integrals computed using PRISM.
 NBasis=   380 RedAO= T  NBF=   380
 NBsUse=   380 1.00D-06 NBFU=   380
 Harris functional with IExCor=  205 diagonalized for initial guess.
 ExpMin= 4.34D-02 ExpMax= 2.45D+05 ExpMxC= 3.68D+04 IAcc=2 IRadAn=         0 AccDes= 0.00D+00
 HarFok:  IExCor=  205 AccDes= 0.00D+00 IRadAn=         0 IDoV= 1
 ScaDFX=  1.000000  1.000000  1.000000  1.000000
 Defaulting to unpruned grid for atomic number  50.
 Defaulting to unpruned grid for atomic number  50.
 Defaulting to unpruned grid for atomic number  50.
 Defaulting to unpruned grid for atomic number  50.
 Defaulting to unpruned grid for atomic number  50.
 Defaulting to unpruned grid for atomic number  50.
 Defaulting to unpruned grid for atomic number  50.
 Defaulting to unpruned grid for atomic number  50.
 FoFCou: FMM=F IPFlag=           0 FMFlag=      100000 FMFlg1=           0
         NFxFlg=           0 DoJE=T BraDBF=F KetDBF=T FulRan=T
         Omega=  0.000000  0.000000  1.000000  0.000000  0.000000 ICntrl=     500 IOpCl=  0
         NMat0=    1 NMatS0=    1 NMatT0=    0 NMatD0=    1 NMtDS0=    0 NMtDT0=    0
         I1Cent=           4 NGrid=           0.
 Petite list used in FoFCou.
 Initial guess orbital symmetries:
       Occupied  (A) (A) (A) (A) (A) (A) (A) (A) (A) (A) (A) (A)
                 (A) (A) (A) (A) (A) (A) (A) (A) (A) (A) (A) (A)
                 (A) (A) (A) (A) (A) (A) (A) (A) (A) (A) (A) (A)
                 (A) (A) (A) (A) (A) (A) (A) (A) (A) (A) (A) (A)
                 (A) (A) (A) (A) (A) (A) (A) (A) (A) (A) (A) (A)
                 (A) (A) (A) (A) (A) (A) (A) (A) (A) (A) (A) (A)
                 (A) (A) (A) (A) (A) (A) (A) (A) (A) (A) (A) (A)
                 (A) (A) (A) (A) (A) (A) (A) (A) (A) (A) (A) (A)
                 (A) (A) (A) (A) (A) (A)
       Virtual   (A) (A) (A) (A) (A) (A) (A) (A) (A) (A) (A) (A)
                 (A) (A) (A) (A) (A) (A) (A) (A) (A) (A) (A) (A)
                 (A) (A) (A) (A) (A) (A) (A) (A) (A) (A) (A) (A)
                 (A) (A) (A) (A) (A) (A) (A) (A) (A) (A) (A) (A)
                 (A) (A) (A) (A) (A) (A) (A) (A) (A) (A) (A) (A)
                 (A) (A) (A) (A) (A) (A) (A) (A) (A) (A) (A) (A)
                 (A) (A) (A) (A) (A) (A) (A) (A) (A) (A) (A) (A)
                 (A) (A) (A) (A) (A) (A) (A) (A) (A) (A) (A) (A)
                 (A) (A) (A) (A) (A) (A) (A) (A) (A) (A) (A) (A)
                 (A) (A) (A) (A) (A) (A) (A) (A) (A) (A) (A) (A)
                 (A) (A) (A) (A) (A) (A) (A) (A) (A) (A) (A) (A)
                 (A) (A) (A) (A) (A) (A) (A) (A) (A) (A) (A) (A)
                 (A) (A) (A) (A) (A) (A) (A) (A) (A) (A) (A) (A)
                 (A) (A) (A) (A) (A) (A) (A) (A) (A) (A) (A) (A)
                 (A) (A) (A) (A) (A) (A) (A) (A) (A) (A) (A) (A)
                 (A) (A) (A) (A) (A) (A) (A) (A) (A) (A) (A) (A)
                 (A) (A) (A) (A) (A) (A) (A) (A) (A) (A) (A) (A)
                 (A) (A) (A) (A) (A) (A) (A) (A) (A) (A) (A) (A)
                 (A) (A) (A) (A) (A) (A) (A) (A) (A) (A) (A) (A)
                 (A) (A) (A) (A) (A) (A) (A) (A) (A) (A) (A) (A)
                 (A) (A) (A) (A) (A) (A) (A) (A) (A) (A) (A) (A)
                 (A) (A) (A) (A) (A) (A) (A) (A) (A) (A) (A) (A)
                 (A) (A) (A) (A) (A) (A) (A) (A) (A) (A) (A) (A)
                 (A) (A)
 The electronic state of the initial guess is 1-A.
 Requested convergence on RMS density matrix=1.00D-08 within 128 cycles.
 Requested convergence on MAX density matrix=1.00D-06.
 Requested convergence on             energy=1.00D-06.
 No special actions if energy rises.
 Initial convergence to 1.0D-05 achieved.  Increase integral accuracy.
 SCF Done:  E(RHF) =  -6780.85112324     A.U. after   13 cycles
             Convg  =    0.3114D-08             -V/T =  2.0020
 ExpMin= 4.34D-02 ExpMax= 2.45D+05 ExpMxC= 3.68D+04 IAcc=3 IRadAn=         5 AccDes= 0.00D+00
 HarFok:  IExCor=  205 AccDes= 0.00D+00 IRadAn=         5 IDoV=-2
 ScaDFX=  1.000000  1.000000  1.000000  1.000000
 Defaulting to unpruned grid for atomic number  50.
 Defaulting to unpruned grid for atomic number  50.
 Defaulting to unpruned grid for atomic number  50.
 Defaulting to unpruned grid for atomic number  50.
 Defaulting to unpruned grid for atomic number  50.
 Defaulting to unpruned grid for atomic number  50.
 Defaulting to unpruned grid for atomic number  50.
 Defaulting to unpruned grid for atomic number  50.
 Range of M.O.s used for correlation:    38   380
 NBasis=   380 NAE=   102 NBE=   102 NFC=    37 NFV=     0
 NROrb=    343 NOA=    65 NOB=    65 NVA=   278 NVB=   278
 Fully direct method using O(OVN) memory.
 JobTyp=1 Pass  1:  I=   1 to  19 NPSUse=  8 ParTrn=T ParDer=T DoDerP=F.
 JobTyp=1 Pass  2:  I=  20 to  60 NPSUse=  8 ParTrn=T ParDer=T DoDerP=F.
 JobTyp=1 Pass  3:  I=  61 to  65 NPSUse=  8 ParTrn=T ParDer=T DoDerP=F.
 Spin components of T(2) and E(2):
     alpha-alpha T2 =       0.1227830969D+00 E2=     -0.3249462211D+00
     alpha-beta  T2 =       0.7129925913D+00 E2=     -0.1976399131D+01
     beta-beta   T2 =       0.1227830969D+00 E2=     -0.3249462211D+00
 ANorm=    0.1399485186D+01
 E2 =    -0.2626291573D+01 EUMP2 =    -0.67834774148127D+04

 **********************************************************************

            Population analysis using the SCF density.

 **********************************************************************

 Orbital symmetries:
       Occupied  (A) (A) (A) (A) (A) (A) (A) (A) (A) (A) (A) (A)
                 (A) (A) (A) (A) (A) (A) (A) (A) (A) (A) (A) (A)
                 (A) (A) (A) (A) (A) (A) (A) (A) (A) (A) (A) (A)
                 (A) (A) (A) (A) (A) (A) (A) (A) (A) (A) (A) (A)
                 (A) (A) (A) (A) (A) (A) (A) (A) (A) (A) (A) (A)
                 (A) (A) (A) (A) (A) (A) (A) (A) (A) (A) (A) (A)
                 (A) (A) (A) (A) (A) (A) (A) (A) (A) (A) (A) (A)
                 (A) (A) (A) (A) (A) (A) (A) (A) (A) (A) (A) (A)
                 (A) (A) (A) (A) (A) (A)
       Virtual   (A) (A) (A) (A) (A) (A) (A) (A) (A) (A) (A) (A)
                 (A) (A) (A) (A) (A) (A) (A) (A) (A) (A) (A) (A)
                 (A) (A) (A) (A) (A) (A) (A) (A) (A) (A) (A) (A)
                 (A) (A) (A) (A) (A) (A) (A) (A) (A) (A) (A) (A)
                 (A) (A) (A) (A) (A) (A) (A) (A) (A) (A) (A) (A)
                 (A) (A) (A) (A) (A) (A) (A) (A) (A) (A) (A) (A)
                 (A) (A) (A) (A) (A) (A) (A) (A) (A) (A) (A) (A)
                 (A) (A) (A) (A) (A) (A) (A) (A) (A) (A) (A) (A)
                 (A) (A) (A) (A) (A) (A) (A) (A) (A) (A) (A) (A)
                 (A) (A) (A) (A) (A) (A) (A) (A) (A) (A) (A) (A)
                 (A) (A) (A) (A) (A) (A) (A) (A) (A) (A) (A) (A)
                 (A) (A) (A) (A) (A) (A) (A) (A) (A) (A) (A) (A)
                 (A) (A) (A) (A) (A) (A) (A) (A) (A) (A) (A) (A)
                 (A) (A) (A) (A) (A) (A) (A) (A) (A) (A) (A) (A)
                 (A) (A) (A) (A) (A) (A) (A) (A) (A) (A) (A) (A)
                 (A) (A) (A) (A) (A) (A) (A) (A) (A) (A) (A) (A)
                 (A) (A) (A) (A) (A) (A) (A) (A) (A) (A) (A) (A)
                 (A) (A) (A) (A) (A) (A) (A) (A) (A) (A) (A) (A)
                 (A) (A) (A) (A) (A) (A) (A) (A) (A) (A) (A) (A)
                 (A) (A) (A) (A) (A) (A) (A) (A) (A) (A) (A) (A)
                 (A) (A) (A) (A) (A) (A) (A) (A) (A) (A) (A) (A)
                 (A) (A) (A) (A) (A) (A) (A) (A) (A) (A) (A) (A)
                 (A) (A) (A) (A) (A) (A) (A) (A) (A) (A) (A) (A)
                 (A) (A)
 The electronic state is 1-A.
 Alpha  occ. eigenvalues -- **********-156.93449-146.51457-146.51451-146.51446
 Alpha  occ. eigenvalues --  -31.56734 -27.19648 -27.19626 -27.19609 -19.15908
 Alpha  occ. eigenvalues --  -19.15900 -19.15881 -19.15878 -19.15853 -15.53602
 Alpha  occ. eigenvalues --  -11.24409 -11.23970 -11.23755 -11.21941 -11.21827
 Alpha  occ. eigenvalues --  -11.21785 -11.21701 -11.21558 -11.21531 -11.21484
 Alpha  occ. eigenvalues --  -11.21387 -11.21133 -11.20771 -11.20745 -11.20705
 Alpha  occ. eigenvalues --  -11.20534 -11.20499 -11.19977  -5.49415  -3.95630
 Alpha  occ. eigenvalues --   -3.95608  -3.95599  -1.35712  -1.35687  -1.35635
 Alpha  occ. eigenvalues --   -1.35163  -1.35120  -1.22056  -1.06765  -1.06494
 Alpha  occ. eigenvalues --   -1.06468  -1.06241  -1.00614  -0.97562  -0.96868
 Alpha  occ. eigenvalues --   -0.96615  -0.93432  -0.85573  -0.84727  -0.84599
 Alpha  occ. eigenvalues --   -0.84140  -0.83493  -0.79103  -0.78635  -0.78399
 Alpha  occ. eigenvalues --   -0.73737  -0.65978  -0.64112  -0.63877  -0.63442
 Alpha  occ. eigenvalues --   -0.62410  -0.61894  -0.60594  -0.58717  -0.58162
 Alpha  occ. eigenvalues --   -0.57972  -0.57440  -0.57334  -0.57155  -0.56943
 Alpha  occ. eigenvalues --   -0.56402  -0.56103  -0.54139  -0.53962  -0.53145
 Alpha  occ. eigenvalues --   -0.51749  -0.51405  -0.50256  -0.49891  -0.49740
 Alpha  occ. eigenvalues --   -0.49478  -0.49047  -0.48848  -0.48669  -0.47601
 Alpha  occ. eigenvalues --   -0.47432  -0.46950  -0.46826  -0.46531  -0.46349
 Alpha  occ. eigenvalues --   -0.46137  -0.45882  -0.44837  -0.37819  -0.36019
 Alpha  occ. eigenvalues --   -0.35760  -0.31828
 Alpha virt. eigenvalues --    0.13260   0.14156   0.15828   0.17544   0.20483
 Alpha virt. eigenvalues --    0.21829   0.21891   0.22571   0.22991   0.23798
 Alpha virt. eigenvalues --    0.24532   0.24602   0.25177   0.25568   0.25933
 Alpha virt. eigenvalues --    0.26593   0.26783   0.27017   0.27203   0.27516
 Alpha virt. eigenvalues --    0.27923   0.28710   0.29080   0.29365   0.30677
 Alpha virt. eigenvalues --    0.30819   0.31293   0.31370   0.31639   0.31965
 Alpha virt. eigenvalues --    0.32204   0.32553   0.32769   0.32981   0.33287
 Alpha virt. eigenvalues --    0.33837   0.34009   0.34489   0.34918   0.35380
 Alpha virt. eigenvalues --    0.36028   0.36102   0.36475   0.36769   0.37052
 Alpha virt. eigenvalues --    0.37125   0.37572   0.37793   0.38211   0.38569
 Alpha virt. eigenvalues --    0.39035   0.39579   0.39969   0.40526   0.41551
 Alpha virt. eigenvalues --    0.41798   0.42380   0.43173   0.44073   0.44668
 Alpha virt. eigenvalues --    0.45064   0.45505   0.46169   0.47008   0.47073
 Alpha virt. eigenvalues --    0.47297   0.47386   0.47800   0.48189   0.48476
 Alpha virt. eigenvalues --    0.49665   0.49872   0.50892   0.51607   0.52204
 Alpha virt. eigenvalues --    0.52956   0.53343   0.53480   0.54120   0.54433
 Alpha virt. eigenvalues --    0.56725   0.57083   0.58152   0.58621   0.59476
 Alpha virt. eigenvalues --    0.60595   0.60956   0.62276   0.63127   0.64100
 Alpha virt. eigenvalues --    0.64447   0.65395   0.65940   0.67174   0.68725
 Alpha virt. eigenvalues --    0.68900   0.69602   0.70197   0.70554   0.72103
 Alpha virt. eigenvalues --    0.72677   0.73128   0.73744   0.74289   0.74751
 Alpha virt. eigenvalues --    0.74960   0.75983   0.76575   0.77018   0.78044
 Alpha virt. eigenvalues --    0.78515   0.79631   0.80649   0.81564   0.82437
 Alpha virt. eigenvalues --    0.83877   0.86970   0.88612   0.90481   0.91158
 Alpha virt. eigenvalues --    0.93072   0.96842   1.02501   1.03847   1.05329
 Alpha virt. eigenvalues --    1.05729   1.06221   1.08754   1.09274   1.09766
 Alpha virt. eigenvalues --    1.10864   1.11276   1.11929   1.12033   1.12378
 Alpha virt. eigenvalues --    1.12953   1.14158   1.14523   1.14592   1.14757
 Alpha virt. eigenvalues --    1.15068   1.15635   1.15768   1.16458   1.16535
 Alpha virt. eigenvalues --    1.16832   1.16935   1.17533   1.17863   1.18188
 Alpha virt. eigenvalues --    1.18381   1.18804   1.19794   1.20519   1.21162
 Alpha virt. eigenvalues --    1.21186   1.21841   1.23464   1.24278   1.25741
 Alpha virt. eigenvalues --    1.26147   1.26662   1.28378   1.30499   1.31784
 Alpha virt. eigenvalues --    1.32684   1.33702   1.35531   1.36658   1.37822
 Alpha virt. eigenvalues --    1.38711   1.40747   1.41419   1.42803   1.43023
 Alpha virt. eigenvalues --    1.43604   1.45436   1.47472   1.48958   1.49779
 Alpha virt. eigenvalues --    1.49901   1.51346   1.51676   1.53837   1.54472
 Alpha virt. eigenvalues --    1.55051   1.57056   1.58074   1.59824   1.60102
 Alpha virt. eigenvalues --    1.60618   1.62429   1.63485   1.64447   1.64808
 Alpha virt. eigenvalues --    1.65178   1.66726   1.67707   1.68373   1.69444
 Alpha virt. eigenvalues --    1.70301   1.73564   1.74894   1.75024   1.75357
 Alpha virt. eigenvalues --    1.79286   1.79545   1.80969   1.81681   1.81767
 Alpha virt. eigenvalues --    1.82589   1.83247   1.85824   1.87707   1.90204
 Alpha virt. eigenvalues --    1.91981   1.93424   1.94495   1.94615   1.94796
 Alpha virt. eigenvalues --    1.95641   1.96188   1.97238   2.00286   2.02586
 Alpha virt. eigenvalues --    2.03024   2.03267   2.04180   2.05711   2.09402
 Alpha virt. eigenvalues --    2.09783   2.10636   2.12810   2.14398   2.15364
 Alpha virt. eigenvalues --    2.15446   2.15572   2.15988   2.19012   2.21414
 Alpha virt. eigenvalues --    2.22546   2.24018   2.25171   2.25706   2.30269
 Alpha virt. eigenvalues --    2.30482   2.30492   2.31864   2.32971   2.33615
 Alpha virt. eigenvalues --    2.33961   2.34416   2.37376   2.38150   2.38464
 Alpha virt. eigenvalues --    2.38620   2.41853   2.42455   2.43625   2.43731
 Alpha virt. eigenvalues --    2.44454   2.45349   2.45395   2.46233   2.46522
 Alpha virt. eigenvalues --    2.47088   2.49558   2.49750   2.51024   2.52128
 Alpha virt. eigenvalues --    2.53985   2.54251   2.54604   2.60207   2.66625
 Alpha virt. eigenvalues --    2.69547   2.76900   2.79058
          Condensed to atoms (all electrons):
 Mulliken atomic charges:
              1
     1  C   -0.435467
     2  N   -0.487184
     3  C   -0.295797
     4  C   -0.395191
     5  C   -0.408058
     6  C   -0.418354
     7  C   -0.434944
     8  H    0.273668
     9  H    0.208298
    10  H    0.250561
    11  H    0.205642
    12  H    0.235490
    13  H    0.235307
    14  H    0.186683
    15  H    0.172970
    16  H    0.243990
    17  Sn   1.114416
    18  C   -0.780343
    19  C   -0.326240
    20  C   -0.339972
    21  C   -0.573170
    22  C   -0.770605
    23  C   -0.322687
    24  C   -0.337748
    25  C   -0.571992
    26  C   -0.772491
    27  C   -0.320554
    28  C   -0.339075
    29  C   -0.572366
    30  H    0.162514
    31  H    0.207056
    32  H    0.203480
    33  H    0.220601
    34  H    0.222915
    35  H    0.187627
    36  H    0.185437
    37  H    0.180625
    38  H    0.182388
    39  H    0.203159
    40  H    0.178430
    41  H    0.177106
    42  H    0.215972
    43  H    0.216592
    44  H    0.185709
    45  H    0.186044
    46  H    0.181060
    47  H    0.181192
    48  H    0.202393
    49  H    0.177844
    50  H    0.177423
    51  H    0.241147
    52  H    0.213821
    53  H    0.183400
    54  H    0.181952
    55  H    0.183081
    56  H    0.180347
    57  H    0.201954
    58  H    0.177167
    59  H    0.176778
 Sum of Mulliken atomic charges =   0.00000
 Mulliken charges with hydrogens summed into heavy atoms:
              1
     1  C   -0.161799
     2  N   -0.487184
     3  C    0.163062
     4  C    0.045941
     5  C    0.013931
     6  C   -0.001394
     7  C    0.138105
    17  Sn   1.114416
    18  C   -0.336827
    19  C    0.046824
    20  C    0.023041
    21  C   -0.014475
    22  C   -0.338041
    23  C    0.049067
    24  C    0.024504
    25  C   -0.014332
    26  C   -0.317524
    27  C    0.044798
    28  C    0.024354
    29  C   -0.016467
 Sum of Mulliken charges with hydrogens summed into heavy atoms =   0.00000
 Electronic spatial extent (au):  <R**2>=           9629.0868
 Charge=              0.0000 electrons
 Dipole moment (field-independent basis, Debye):
    X=              0.9952    Y=             -0.5540    Z=             -0.1059  Tot=              1.1439
 Quadrupole moment (field-independent basis, Debye-Ang):
   XX=           -157.9512   YY=           -160.3410   ZZ=           -157.3878
   XY=             -0.0377   XZ=              0.3533   YZ=             -0.5379
 Traceless Quadrupole moment (field-independent basis, Debye-Ang):
   XX=              0.6088   YY=             -1.7810   ZZ=              1.1722
   XY=             -0.0377   XZ=              0.3533   YZ=             -0.5379
 Octapole moment (field-independent basis, Debye-Ang**2):
  XXX=             61.0667  YYY=             -6.7369  ZZZ=            -22.5043  XYY=             13.8085
  XXY=              3.5558  XXZ=             -5.6719  XZZ=             15.3114  YZZ=              7.0313
  YYZ=             -1.7475  XYZ=              1.1881
 Hexadecapole moment (field-independent basis, Debye-Ang**3):
 XXXX=          -7124.1756 YYYY=          -3616.9052 ZZZZ=          -3223.9498 XXXY=             34.7773
 XXXZ=              2.0125 YYYX=             32.6679 YYYZ=             -5.9757 ZZZX=              5.8848
 ZZZY=             -0.5605 XXYY=          -1799.4572 XXZZ=          -1737.9876 YYZZ=          -1145.7215
 XXYZ=             -5.8464 YYXZ=              9.7719 ZZXY=             -2.4277
 N-N= 2.606210052922D+03 E-N=-2.128725290143D+04  KE= 6.767412164796D+03
 1\1\GINC-ROCK\SP\RMP2-FC\DGDZVP\C18H39N1Sn1\STYLIANAKIS\23-Oct-2016\0\
 \# mp2/dgdzvp\\2-SnBu3-N-Me-piperidine-ax,ax\\0,1\C\N,1,1.47674317\C,2
 ,1.46935099,1,112.30144966\C,1,1.54485148,2,113.76734885,3,-50.8150018
 3,0\C,3,1.54216102,2,114.68270779,1,52.30477495,0\C,4,1.53702819,1,111
 .8158783,2,52.06257369,0\C,2,1.46501034,1,113.71318676,4,79.42901952,0
 \H,1,1.09797612,2,106.55325829,7,-39.52139861,0\H,3,1.09812679,2,108.0
 2106552,1,-68.89959336,0\H,3,1.0960763,2,108.24854229,1,176.16928654,0
 \H,4,1.10109904,1,109.62904067,2,-68.20724024,0\H,4,1.09739688,1,110.1
 4752689,2,175.38528151,0\H,5,1.09751622,3,109.46991795,2,-176.11997214
 ,0\H,5,1.09805317,3,109.89536603,2,67.11423603,0\H,6,1.09943805,4,109.
 67391647,1,67.65484688,0\H,6,1.09674833,4,110.39028149,1,-175.38972577
 ,0\Sn,1,2.23487703,2,110.30340248,7,-147.43587483,0\C,17,2.20755893,1,
 115.62011935,2,-57.98655107,0\C,18,1.53918802,17,115.27811641,1,-164.2
 0714401,0\C,19,1.53875655,18,113.35632284,17,-179.61014678,0\C,20,1.53
 47994,19,113.31388704,18,-179.58411082,0\C,17,2.20797441,1,107.3577739
 9,2,179.40055824,0\C,22,1.53925993,17,115.8844107,1,-153.1437875,0\C,2
 3,1.53855027,22,113.47826319,17,179.12387443,0\C,24,1.5347625,23,113.3
 7873071,22,-179.90620919,0\C,17,2.19976135,1,103.13149589,2,62.5629434
 2,0\C,26,1.5382893,17,117.30975143,1,-161.31257504,0\C,27,1.53846643,2
 6,113.3080693,17,177.72517254,0\C,28,1.5348296,27,113.45010906,26,-179
 .93091995,0\H,7,1.10445499,2,115.16436724,1,-63.09066383,0\H,7,1.09545
 849,2,109.20736893,1,58.11415768,0\H,7,1.09591082,2,109.362962,1,175.4
 9949673,0\H,18,1.09703309,17,107.79874682,1,-41.31853476,0\H,18,1.0977
 2603,17,107.31190759,1,72.81803537,0\H,19,1.09847596,18,110.21808591,1
 7,-57.59579005,0\H,19,1.09872604,18,109.85593757,17,58.6454715,0\H,20,
 1.09843853,19,109.08548811,18,-57.30451168,0\H,20,1.09833395,19,109.08
 232223,18,58.15795542,0\H,21,1.09583219,20,111.42780875,19,-179.878679
 37,0\H,21,1.09659154,20,111.22950036,19,-59.78689294,0\H,21,1.09661932
 ,20,111.24226386,19,60.03198969,0\H,22,1.09840381,17,106.92960543,1,-3
 0.50266211,0\H,22,1.09814493,17,107.77868013,1,83.12205699,0\H,23,1.09
 858357,22,110.07895664,17,-58.80738075,0\H,23,1.09894619,22,109.890343
 01,17,57.26181398,0\H,24,1.0984945,23,109.05571809,22,-57.63003603,0\H
 ,24,1.09844329,23,109.09529704,22,57.79071346,0\H,25,1.09586999,24,111
 .43026216,23,179.82945937,0\H,25,1.09660641,24,111.24895198,23,-60.083
 14823,0\H,25,1.0966501,24,111.24783023,23,59.7385293,0\H,26,1.09764968
 ,17,105.39994048,1,-38.44695416,0\H,26,1.09839155,17,107.23277852,1,74
 .43146686,0\H,27,1.09886695,26,110.22569672,17,-60.26905509,0\H,27,1.0
 9893877,26,109.9094267,17,55.99239266,0\H,28,1.09832277,27,109.0215189
 ,26,-57.60153736,0\H,28,1.098479,27,109.04980131,26,57.76732205,0\H,29
 ,1.09592201,28,111.44710604,27,-179.99081519,0\H,29,1.09668411,28,111.
 25531939,27,-59.89206557,0\H,29,1.09671705,28,111.25130631,27,59.92891
 393,0\\Version=EM64L-G09RevA.01\State=1-A\HF=-6780.8511232\MP2=-6783.4
 774148\RMSD=3.114e-09\PG=C01 [X(C18H39N1Sn1)]\\@


 GOORD'S AXIOM:  A MEETING IS AN EVENT AT WHICH
 THE MINUTES ARE KEPT AND THE HOURS ARE LOST.
 Job cpu time:  0 days  2 hours 42 minutes 24.3 seconds.
 File lengths (MBytes):  RWF=     82 Int=      0 D2E=      0 Chk=      7 Scr=      1
 Normal termination of Gaussian 09 at Sun Oct 23 15:28:16 2016.
