 Entering Gaussian System, Link 0=g09
 Input=2_2_Ad_N_Me_piperidine_ax_ax.gjf
 Output=2_2_Ad_N_Me_piperidine_ax_ax.out
 Initial command:
 /usr/local/g09/l1.exe /home/scratch/stylianakis/Gau-25511.inp -scrdir=/home/scratch/stylianakis/
 Entering Link 1 = /usr/local/g09/l1.exe PID=     25512.
  
 Copyright (c) 1988,1990,1992,1993,1995,1998,2003,2009, Gaussian, Inc.
                  All Rights Reserved.
  
 This is part of the Gaussian(R) 09 program.  It is based on
 the Gaussian(R) 03 system (copyright 2003, Gaussian, Inc.),
 the Gaussian(R) 98 system (copyright 1998, Gaussian, Inc.),
 the Gaussian(R) 94 system (copyright 1995, Gaussian, Inc.),
 the Gaussian 92(TM) system (copyright 1992, Gaussian, Inc.),
 the Gaussian 90(TM) system (copyright 1990, Gaussian, Inc.),
 the Gaussian 88(TM) system (copyright 1988, Gaussian, Inc.),
 the Gaussian 86(TM) system (copyright 1986, Carnegie Mellon
 University), and the Gaussian 82(TM) system (copyright 1983,
 Carnegie Mellon University). Gaussian is a federally registered
 trademark of Gaussian, Inc.
  
 This software contains proprietary and confidential information,
 including trade secrets, belonging to Gaussian, Inc.
  
 This software is provided under written license and may be
 used, copied, transmitted, or stored only in accord with that
 written license.
  
 The following legend is applicable only to US Government
 contracts under FAR:
  
                    RESTRICTED RIGHTS LEGEND
  
 Use, reproduction and disclosure by the US Government is
 subject to restrictions as set forth in subparagraphs (a)
 and (c) of the Commercial Computer Software - Restricted
 Rights clause in FAR 52.227-19.
  
 Gaussian, Inc.
 340 Quinnipiac St., Bldg. 40, Wallingford CT 06492
  
  
 ---------------------------------------------------------------
 Warning -- This program may not be used in any manner that
 competes with the business of Gaussian, Inc. or will provide
 assistance to any competitor of Gaussian, Inc.  The licensee
 of this program is prohibited from giving any competitor of
 Gaussian, Inc. access to this program.  By using this program,
 the user acknowledges that Gaussian, Inc. is engaged in the
 business of creating and licensing software in the field of
 computational chemistry and represents and warrants to the
 licensee that it is not a competitor of Gaussian, Inc. and that
 it will not use this program in any manner prohibited above.
 ---------------------------------------------------------------
  

 Cite this work as:
 Gaussian 09, Revision A.01,
 M. J. Frisch, G. W. Trucks, H. B. Schlegel, G. E. Scuseria, 
 M. A. Robb, J. R. Cheeseman, G. Scalmani, V. Barone, B. Mennucci, 
 G. A. Petersson, H. Nakatsuji, M. Caricato, X. Li, H. P. Hratchian, 
 A. F. Izmaylov, J. Bloino, G. Zheng, J. L. Sonnenberg, M. Hada, 
 M. Ehara, K. Toyota, R. Fukuda, J. Hasegawa, M. Ishida, T. Nakajima, 
 Y. Honda, O. Kitao, H. Nakai, T. Vreven, J. A. Montgomery, Jr., 
 J. E. Peralta, F. Ogliaro, M. Bearpark, J. J. Heyd, E. Brothers, 
 K. N. Kudin, V. N. Staroverov, R. Kobayashi, J. Normand, 
 K. Raghavachari, A. Rendell, J. C. Burant, S. S. Iyengar, J. Tomasi, 
 M. Cossi, N. Rega, J. M. Millam, M. Klene, J. E. Knox, J. B. Cross, 
 V. Bakken, C. Adamo, J. Jaramillo, R. Gomperts, R. E. Stratmann, 
 O. Yazyev, A. J. Austin, R. Cammi, C. Pomelli, J. W. Ochterski, 
 R. L. Martin, K. Morokuma, V. G. Zakrzewski, G. A. Voth, 
 P. Salvador, J. J. Dannenberg, S. Dapprich, A. D. Daniels, 
 O. Farkas, J. B. Foresman, J. V. Ortiz, J. Cioslowski, 
 and D. J. Fox, Gaussian, Inc., Wallingford CT, 2009.
 
 ******************************************
 Gaussian 09:  EM64L-G09RevA.01  8-May-2009
                19-Mar-2016 
 ******************************************
 %mem=16000Mb
 %nproc=8
 Will use up to    8 processors via shared memory.
 -------------
 # mp2/cc-pVTZ
 -------------
 1/38=1/1;
 2/12=2,17=6,18=5,40=1/2;
 3/5=16,6=1,11=9,16=1,25=1,30=1/1,2,3;
 4//1;
 5/5=2,38=5/2;
 8/10=1/1;
 9/16=-3/6;
 6/7=2,8=2,9=2,10=2/1;
 99/5=1,9=1/99;
 -----------------------------------------
 2_2_Ad_N_Me_piperidine_ax_ax_single_point
 -----------------------------------------
 Symbolic Z-matrix:
 Charge =  0 Multiplicity = 1
 c
 c                    1    cc2
 c                    2    cc3      1    ccc3
 c                    3    cc4      2    ccc4     1    dih4     0
 c                    4    cc5      3    ccc5     2    dih5     0
 c                    5    cc6      4    ccc6     3    dih6     0
 c                    2    cc7      3    ccc7     4    dih7     0
 c                    7    cc8      2    ccc8     3    dih8     0
 c                    8    cc9      7    ccc9     2    dih9     0
 c                    6    cc10     5    ccc10    4    dih10    0
 c                    10   cc11     8    ccc11    9    dih11    0
 c                    11   cc12     10   ccc12    8    dih12    0
 c                    12   cc13     11   ccc13    10   dih13    0
 c                    13   cc14     12   ccc14    11   dih14    0
 c                    14   cc15     13   ccc15    12   dih15    0
 n                    15   nc16     14   ncc16    13   dih16    0
 c                    16   cn17     11   cnc17    12   dih17    0
 h                    11   hc18     12   hcc18    13   dih18    0
 h                    12   hc19     11   hcc19    16   dih19    0
 h                    12   hc20     11   hcc20    16   dih20    0
 h                    13   hc21     12   hcc21    11   dih21    0
 h                    13   hc22     12   hcc22    11   dih22    0
 h                    14   hc23     13   hcc23    12   dih23    0
 h                    14   hc24     13   hcc24    12   dih24    0
 h                    15   hc25     14   hcc25    13   dih25    0
 h                    15   hc26     14   hcc26    13   dih26    0
 h                    17   hc27     16   hcn27    11   dih27    0
 h                    17   hc28     16   hcn28    11   dih28    0
 h                    17   hc29     16   hcn29    11   dih29    0
 h                    3    hc30     4    hcc30    9    dih30    0
 h                    3    hc31     4    hcc31    9    dih31    0
 h                    4    hc32     3    hcc32    2    dih32    0
 h                    9    hc33     4    hcc33    3    dih33    0
 h                    9    hc34     4    hcc34    3    dih34    0
 h                    2    hc35     3    hcc35    4    dih35    0
 h                    7    hc36     2    hcc36    3    dih36    0
 h                    7    hc37     2    hcc37    3    dih37    0
 h                    5    hc38     4    hcc38    3    dih38    0
 h                    5    hc39     4    hcc39    3    dih39    0
 h                    6    hc40     5    hcc40    4    dih40    0
 h                    10   hc41     11   hcc41    12   dih41    0
 h                    1    hc42     2    hcc42    3    dih42    0
 h                    1    hc43     2    hcc43    3    dih43    0
 h                    8    hc44     9    hcc44    4    dih44    0
       Variables:
  cc2                   1.54252                  
  cc3                   1.54414                  
  ccc3                109.372                    
  cc4                   1.54388                  
  ccc4                109.666                    
  dih4                -59.621                    
  cc5                   1.5432                   
  ccc5                109.291                    
  dih5                 59.635                    
  cc6                   1.54545                  
  ccc6                109.931                    
  dih6                -60.141                    
  cc7                   1.54276                  
  ccc7                109.189                    
  dih7                 59.706                    
  cc8                   1.54622                  
  ccc8                110.059                    
  dih8                -60.113                    
  cc9                   1.54605                  
  ccc9                108.745                    
  dih9                 60.108                    
  cc10                  1.55468                  
  ccc10               111.039                    
  dih10               -59.896                    
  cc11                  1.55659                  
  ccc11               114.404                    
  dih11                68.889                    
  cc12                  1.55253                  
  ccc12               113.683                    
  dih12                60.448                    
  cc13                  1.53901                  
  ccc13               112.584                    
  dih13                72.766                    
  cc14                  1.53726                  
  ccc14               110.548                    
  dih14                53.359                    
  cc15                  1.54032                  
  ccc15               110.301                    
  dih15               -51.957                    
  nc16                  1.46884                  
  ncc16               114.415                    
  dih16                53.321                    
  cn17                  1.45881                  
  cnc17               113.821                    
  dih17               -78.672                    
  hc18                  1.09528                  
  hcc18               107.463                    
  dih18              -168.143                    
  hc19                  1.09505                  
  hcc19               110.763                    
  dih19              -177.481                    
  hc20                  1.09844                  
  hcc20               108.178                    
  dih20                66.856                    
  hc21                  1.09854                  
  hcc21               110.113                    
  dih21               -67.678                    
  hc22                  1.09694                  
  hcc22               109.91                     
  dih22               175.638                    
  hc23                  1.09767                  
  hcc23               110.868                    
  dih23              -173.576                    
  hc24                  1.09852                  
  hcc24               109.466                    
  dih24                69.08                     
  hc25                  1.09831                  
  hcc25               108.895                    
  dih25               -67.967                    
  hc26                  1.09627                  
  hcc26               110.673                    
  dih26               175.477                    
  hc27                  1.10533                  
  hcn27               115.254                    
  dih27                65.586                    
  hc28                  1.09568                  
  hcn28               109.15                     
  dih28              -173.286                    
  hc29                  1.09515                  
  hcn29               109.375                    
  dih29               -55.781                    
  hc30                  1.09871                  
  hcc30               109.97                     
  dih30               178.946                    
  hc31                  1.09875                  
  hcc31               110.099                    
  dih31                61.414                    
  hc32                  1.09819                  
  hcc32               109.573                    
  dih32               179.965                    
  hc33                  1.09874                  
  hcc33               110.025                    
  dih33               -60.231                    
  hc34                  1.09749                  
  hcc34               110.174                    
  dih34              -177.218                    
  hc35                  1.09816                  
  hcc35               109.646                    
  dih35               179.838                    
  hc36                  1.09853                  
  hcc36               110.132                    
  dih36               178.515                    
  hc37                  1.09869                  
  hcc37               110.065                    
  dih37                60.952                    
  hc38                  1.09698                  
  hcc38               110.37                     
  dih38               177.395                    
  hc39                  1.09862                  
  hcc39               109.959                    
  dih39                60.376                    
  hc40                  1.09403                  
  hcc40               109.288                    
  dih40              -179.769                    
  hc41                  1.09923                  
  hcc41               107.491                    
  dih41               -57.596                    
  hc42                  1.09876                  
  hcc42               110.06                     
  dih42               -61.095                    
  hc43                  1.09882                  
  hcc43               110.063                    
  dih43              -178.495                    
  hc44                  1.09633                  
  hcc44               109.377                    
  dih44              -178.31                     
 
                          Input orientation:                          
 ---------------------------------------------------------------------
 Center     Atomic      Atomic             Coordinates (Angstroms)
 Number     Number       Type             X           Y           Z
 ---------------------------------------------------------------------
      1          6           0        0.000000    0.000000    0.000000
      2          6           0        0.000000    0.000000    1.542516
      3          6           0        1.456714    0.000000    2.054706
      4          6           0        2.190742   -1.254210    1.533449
      5          6           0        2.180232   -1.246588   -0.009700
      6          6           0        0.723858   -1.257904   -0.526683
      7          6           0       -0.715093   -1.270308    2.047564
      8          6           0        0.009432   -2.531159    1.522095
      9          6           0        1.465934   -2.519543    2.040505
     10          6           0       -0.033545   -2.522993   -0.033811
     11          6           0        0.472180   -3.836764   -0.698065
     12          6           0       -0.349465   -5.092741   -0.300882
     13          6           0       -1.740967   -5.120746   -0.957750
     14          6           0       -1.621728   -4.956289   -2.481527
     15          6           0       -0.772160   -3.716955   -2.820431
     16          7           0        0.544878   -3.687553   -2.170779
     17          6           0        1.522109   -4.565960   -2.804450
     18          1           0        1.503701   -4.001069   -0.368510
     19          1           0       -0.436306   -5.171486    0.787878
     20          1           0        0.207489   -5.982769   -0.623703
     21          1           0       -2.366953   -4.314799   -0.551090
     22          1           0       -2.251700   -6.059651   -0.711008
     23          1           0       -2.612998   -4.861243   -2.943307
     24          1           0       -1.159674   -5.855280   -2.911712
     25          1           0       -1.323617   -2.815251   -2.521920
     26          1           0       -0.616008   -3.638944   -3.902718
     27          1           0        1.299134   -5.646413   -2.736197
     28          1           0        1.598926   -4.310751   -3.867222
     29          1           0        2.505768   -4.401385   -2.352024
     30          1           0        1.975673    0.906852    1.714899
     31          1           0        1.470985    0.016578    3.153241
     32          1           0        3.226638   -1.252353    1.898054
     33          1           0        1.462650   -2.536481    3.139107
     34          1           0        2.005476   -3.419412    1.718600
     35          1           0       -0.522634    0.890753    1.915847
     36          1           0       -1.761667   -1.273078    1.713730
     37          1           0       -0.731025   -1.282387    3.146073
     38          1           0        2.737879   -2.107035   -0.399600
     39          1           0        2.693514   -0.350173   -0.383792
     40          1           0        0.728721   -1.256546   -1.620702
     41          1           0       -1.088006   -2.394524   -0.316500
     42          1           0        0.498878    0.903529   -0.376880
     43          1           0       -1.031788    0.027108   -0.376955
     44          1           0       -0.507847   -3.416333    1.910463
 ---------------------------------------------------------------------
                    Distance matrix (angstroms):
                    1          2          3          4          5
     1  C    0.000000
     2  C    1.542516   0.000000
     3  C    2.518696   1.544135   0.000000
     4  C    2.953618   2.524376   1.543875   0.000000
     5  C    2.511471   2.952417   2.517783   1.543204   0.000000
     6  C    1.543920   2.527425   2.963607   2.529013   1.545453
     7  C    2.513476   1.542762   2.516044   2.951008   3.551874
     8  C    2.953579   2.531259   2.963961   2.527616   2.951084
     9  C    3.558191   2.957204   2.519600   1.543865   2.516740
    10  C    2.523442   2.975134   3.598369   3.002260   2.555504
    11  C    3.928231   4.468099   4.823671   3.821346   3.178097
    12  C    5.113577   5.427362   5.894666   4.954971   4.612705
    13  C    5.492749   5.958551   6.747006   6.050992   5.593183
    14  C    5.775186   6.586935   7.390467   6.660356   5.858900
    15  C    4.729357   5.783363   6.523081   5.813791   4.766502
    16  N    4.313609   5.261512   5.681920   4.727719   3.647322
    17  C    5.570436   6.485440   6.668108   5.498375   4.388848
    18  H    4.290159   4.682060   4.677899   3.410968   2.858952
    19  H    5.249322   5.244436   5.650897   4.775176   4.784060
    20  H    6.018769   6.366245   6.672927   5.562900   5.167216
    21  H    4.952137   5.348191   6.326776   5.872401   5.512161
    22  H    6.503465   6.846013   7.623705   6.918463   6.580230
    23  H    6.254797   7.112105   8.073064   7.491858   6.681828
    24  H    6.641326   7.447771   8.111417   7.221813   6.388794
    25  H    4.004707   5.118324   6.049907   5.588701   4.587909
    26  H    5.371461   6.578142   7.282101   6.566332   5.357043
    27  H    6.407535   7.202577   7.406724   6.190015   5.250579
    28  H    6.007874   7.099606   7.326120   6.233774   4.960594
    29  H    5.584182   6.388937   6.316010   5.010075   3.942740
    30  H    2.768852   2.180684   1.098712   2.179305   2.766476
    31  H    3.479512   2.181400   1.098753   2.180981   3.478910
    32  H    3.947428   3.479366   2.173835   1.098190   2.175897
    33  H    4.292677   3.334994   2.758568   2.180017   3.477605
    34  H    4.320637   3.968037   3.479438   2.180987   2.781857
    35  H    2.176478   1.098163   2.174980   3.479871   3.947333
    36  H    2.767863   2.180255   3.477782   3.956563   4.302265
    37  H    3.475153   2.179521   2.760761   3.337375   4.293671
    38  H    3.477823   3.963255   3.479166   2.182509   1.096978
    39  H    2.743162   3.329911   2.756550   2.178504   1.098619
    40  H    2.176377   3.480789   3.951899   3.476518   2.168481
    41  H    2.649090   3.220783   4.222791   3.933550   3.477537
    42  H    1.098764   2.179295   2.765217   3.341796   2.754047
    43  H    1.098825   2.179379   3.479418   3.959308   3.474802
    44  H    3.947038   3.473417   3.943556   3.478404   3.952289
                    6          7          8          9         10
     6  C    0.000000
     7  C    2.949149   0.000000
     8  C    2.515765   1.546221   0.000000
     9  C    2.955142   2.513467   1.546054   0.000000
    10  C    1.554680   2.523063   1.556520   2.559538   0.000000
    11  C    2.596773   3.941419   2.616839   3.197246   1.556594
    12  C    3.988606   4.501097   3.164452   3.924171   2.602833
    13  C    4.602469   4.991012   3.989923   5.102941   3.243035
    14  C    4.795960   5.909408   4.956906   5.993342   3.799285
    15  C    3.680527   5.448551   4.568865   5.483754   3.120313
    16  N    2.939095   5.022452   3.906567   4.466263   2.501481
    17  C    4.094956   6.277614   5.014738   5.259712   3.777595
    18  H    2.856243   4.268198   2.822740   2.828374   2.158671
    19  H    4.288376   4.108980   2.776523   3.495767   2.802125
    20  H    4.753987   5.494916   4.069064   4.547045   3.517971
    21  H    4.347219   4.330193   3.623075   4.962896   2.987130
    22  H    5.651963   5.736609   4.748654   5.824430   4.229274
    23  H    5.473456   6.434722   5.678577   6.852709   4.537197
    24  H    5.511072   6.768607   5.663500   6.522684   4.544736
    25  H    3.255527   4.861824   4.267526   5.355815   2.817869
    26  H    4.343064   6.405163   5.571980   6.396049   4.068545
    27  H    4.946908   6.789092   5.431499   5.711568   4.339894
    28  H    4.609211   7.041568   5.893910   6.174735   4.533882
    29  H    4.048277   6.287604   4.973755   4.890490   3.917982
    30  H    3.358258   3.477199   3.965249   3.479373   4.342669
    31  H    3.965393   2.767225   3.359723   2.769497   4.343999
    32  H    3.484722   3.944606   3.482400   2.173969   3.996926
    33  H    3.952036   2.745401   2.174075   1.098738   3.508018
    34  H    3.369860   3.482580   2.193582   1.097494   2.834099
    35  H    3.483736   2.173609   3.485343   3.949691   3.961569
    36  H    3.346268   1.098531   2.180891   3.475322   2.757280
    37  H    3.950496   1.098691   2.178305   2.753083   3.483855
    38  H    2.189396   4.314132   3.364107   2.782466   2.826236
    39  H    2.173463   4.286811   3.948849   3.477117   3.504352
    40  H    1.094031   3.942203   3.466870   3.942472   2.168677
    41  H    2.149170   2.644187   2.145570   3.477602   1.099230
    42  H    2.178268   3.475230   3.955092   4.300741   3.484569
    43  H    2.180818   2.768010   3.351905   4.309079   2.759937
    44  H    3.480746   2.160363   1.096330   2.171855   2.191625
                   11         12         13         14         15
    11  C    0.000000
    12  C    1.552525   0.000000
    13  C    2.571783   1.539005   0.000000
    14  C    2.969600   2.528336   1.537257   0.000000
    15  C    2.463164   2.901652   2.525628   1.540315   0.000000
    16  N    1.482038   2.504180   2.958136   2.529908   1.468844
    17  C    2.463928   3.169880   3.790218   3.184391   2.446372
    18  H    1.095280   2.151871   3.482636   3.891733   3.357407
    19  H    2.194278   1.095053   2.179893   3.484328   3.904914
    20  H    2.163545   1.098435   2.156653   2.802000   3.304428
    21  H    2.882845   2.176708   1.098536   2.166438   2.837374
    22  H    3.515810   2.172928   1.096938   2.179223   3.482375
    23  H    3.950821   3.487058   2.184082   1.097675   2.170985
    24  H    3.411391   2.838016   2.166889   1.098516   2.175071
    25  H    2.755871   3.327002   2.817111   2.162069   1.098309
    26  H    3.390146   3.893301   3.483405   2.183267   1.096273
    27  H    2.848274   2.992522   3.561096   3.012069   2.831989
    28  H    3.396731   4.138420   4.502888   3.565036   2.659025
    29  H    2.681392   3.582947   4.527277   4.166643   3.381223
    30  H    5.530350   6.742756   7.568910   8.057772   7.035580
    31  H    5.538809   6.430408   7.321815   8.126800   7.392951
    32  H    4.583236   5.689676   6.913550   7.510427   6.657984
    33  H    4.170810   4.653145   5.807394   6.852765   6.473330
    34  H    2.892308   3.524782   4.908485   5.758443   5.329784
    35  H    5.492868   6.383265   6.773478   7.398161   6.612530
    36  H    4.168850   4.543435   4.684206   5.584425   5.245024
    37  H    4.769689   5.152270   5.709146   6.779438   6.444221
    38  H    2.866083   4.296030   5.427158   5.608818   4.557701
    39  H    4.146011   5.635473   6.538533   6.651173   5.411407
    40  H    2.752198   4.197714   4.633671   4.466959   3.121795
    41  H    2.158663   2.797510   2.875734   3.396297   2.849255
    42  H    4.751236   6.056461   6.453387   6.577535   5.379158
    43  H    4.158670   5.165676   5.228830   5.441645   4.478391
    44  H    2.818090   2.779474   3.557000   4.785579   4.747799
                   16         17         18         19         20
    16  N    0.000000
    17  C    1.458807   0.000000
    18  H    2.065383   2.500649   0.000000
    19  H    3.452308   4.136046   2.543764   0.000000
    20  H    2.788421   2.913972   2.381685   1.750774   0.000000
    21  H    3.390515   4.501724   3.887638   2.500830   3.068411
    22  H    3.946977   4.566755   4.296290   2.516178   2.461939
    23  H    3.456375   4.147961   4.931195   4.330817   3.820148
    24  H    2.855437   2.977551   4.123050   3.831162   2.668403
    25  H    2.091766   3.353053   3.746607   4.158596   3.997584
    26  H    2.085577   2.576256   4.137019   4.937881   4.113831
    27  H    2.173874   1.105330   2.890492   3.956818   2.401553
    28  H    2.092203   1.095681   3.513681   5.152960   3.905401
    29  H    2.094635   1.095153   2.258034   4.371251   3.281761
    30  H    6.185000   7.112096   5.352666   6.604786   7.487483
    31  H    6.551599   7.516406   5.342779   6.012379   7.200964
    32  H    5.447701   5.999914   3.957432   5.478070   6.152345
    33  H    5.510188   6.280780   3.801327   4.009684   5.254623
    34  H    4.163234   4.691077   2.223990   3.146157   3.910235
    35  H    6.229043   7.499193   5.766649   6.166887   7.363945
    36  H    5.122426   6.483842   4.737118   4.220352   5.614477
    37  H    5.973414   7.160112   4.973684   4.557744   6.098000
    38  H    3.231774   3.647974   2.260868   4.569071   4.634048
    39  H    4.352938   5.000464   3.839913   5.866315   6.161495
    40  H    2.499236   3.603186   3.114640   4.741867   4.858279
    41  H    2.788653   4.209244   3.049695   3.058738   3.827294
    42  H    4.929323   6.070866   5.006478   6.255960   6.896878
    43  H    4.416151   5.788903   4.759726   5.360673   6.141279
    44  H    4.223544   5.260491   3.095474   2.084676   3.676995
                   21         22         23         24         25
    21  H    0.000000
    22  H    1.755951   0.000000
    23  H    2.466138   2.559273   0.000000
    24  H    3.066453   2.465236   1.761038   0.000000
    25  H    2.687259   3.829735   2.454822   3.069298   0.000000
    26  H    3.841354   4.326931   2.530307   2.487933   1.756640
    27  H    4.470803   4.108598   3.995517   2.473897   3.865257
    28  H    5.169618   5.277089   4.347064   3.302793   3.547903
    29  H    5.195601   5.298706   5.173282   3.982779   4.148358
    30  H    7.159522   8.502227   8.719271   8.772819   6.533758
    31  H    6.871148   8.106254   8.811353   8.842100   6.930837
    32  H    6.831190   7.741415   8.400250   7.972485   6.533272
    33  H    5.607659   6.405662   7.681874   7.382644   6.315713
    34  H    5.007130   5.567531   6.718821   6.114852   5.424932
    35  H    6.048559   7.628771   7.814502   8.319861   5.836935
    36  H    3.840293   5.388020   5.940343   6.538630   4.528898
    37  H    5.053791   6.325486   7.309622   7.602095   5.901439
    38  H    5.563855   6.373072   6.533604   5.962463   4.636977
    39  H    6.430753   7.560447   7.420238   7.179390   5.175475
    40  H    4.481091   5.725406   5.090207   5.136253   2.730173
    41  H    2.319093   3.865614   3.912852   4.326325   2.257521
    42  H    5.956029   7.494211   7.035830   7.406596   4.663905
    43  H    4.545894   6.216785   5.743027   6.406546   3.572820
    44  H    3.212905   4.110992   5.484387   5.443042   4.546734
                   26         27         28         29         30
    26  H    0.000000
    27  H    3.009730   0.000000
    28  H    2.314847   1.775693   0.000000
    29  H    3.568117   1.775852   1.768164   0.000000
    30  H    7.677154   7.950801   7.650189   6.708073   0.000000
    31  H    8.216139   8.172177   8.247973   7.134221   1.765255
    32  H    7.355998   6.670781   6.726192   5.338466   2.502124
    33  H    7.424524   6.649632   7.228780   5.892240   3.761397
    34  H    6.206416   5.030275   5.671083   4.217173   4.326368
    35  H    7.374454   8.227690   8.062292   7.442625   2.506427
    36  H    6.201157   6.949561   7.188051   6.672905   4.326639
    37  H    7.433172   7.600484   7.986612   7.101694   3.763940
    38  H    5.085975   4.478489   4.263565   3.021569   3.759731
    39  H    5.843954   5.960559   5.386891   4.507938   2.549492
    40  H    3.562543   4.565154   3.890023   3.685477   4.166703
    41  H    3.825222   4.704057   4.847593   4.591957   4.940830
    42  H    5.857351   7.007747   6.370346   6.005907   2.560562
    43  H    5.103314   6.571762   6.157893   6.002229   3.767575
    44  H    5.818447   5.461674   6.214509   5.312344   4.989594
                   31         32         33         34         35
    31  H    0.000000
    32  H    2.503597   0.000000
    33  H    2.553111   2.510150   0.000000
    34  H    3.761635   2.493910   1.758428   0.000000
    35  H    2.503965   4.318594   4.145317   5.000777   0.000000
    36  H    3.766357   4.991752   3.744878   4.335683   2.501643
    37  H    2.556602   4.149886   2.526858   3.754064   2.505877
    38  H    4.328675   2.499716   3.785905   2.597213   4.997896
    39  H    3.760278   2.510971   4.325020   3.783343   4.143892
    40  H    4.996232   4.315235   4.983239   4.178401   4.322494
    41  H    4.939732   4.982466   4.297351   3.842091   4.011990
    42  H    3.767417   4.154977   5.012454   5.034749   2.510029
    43  H    4.327386   4.994685   5.015667   5.049241   2.502411
    44  H    4.152728   4.316172   2.483257   2.520638   4.307114
                   36         37         38         39         40
    36  H    0.000000
    37  H    1.764629   0.000000
    38  H    5.040591   5.028433   0.000000
    39  H    5.009989   5.005642   1.757494   0.000000
    40  H    4.161819   4.985346   2.500227   2.492363   0.000000
    41  H    2.415221   3.654271   3.837571   4.299279   2.509270
    42  H    3.770720   4.324592   3.751951   2.527498   2.503167
    43  H    2.567912   3.770539   4.331912   3.744364   2.508798
    44  H    2.490845   2.475938   4.193493   4.991359   4.320058
                   41         42         43         44
    41  H    0.000000
    42  H    3.660465   0.000000
    43  H    2.423040   1.763817   0.000000
    44  H    2.517944   4.990655   4.167024   0.000000
 Stoichiometry    C16H27N
 Framework group  C1[X(C16H27N)]
 Deg. of freedom   126
 Full point group                 C1      NOp   1
 Largest Abelian subgroup         C1      NOp   1
 Largest concise Abelian subgroup C1      NOp   1
                         Standard orientation:                         
 ---------------------------------------------------------------------
 Center     Atomic      Atomic             Coordinates (Angstroms)
 Number     Number       Type             X           Y           Z
 ---------------------------------------------------------------------
      1          6           0        1.889760    0.250955    1.810019
      2          6           0        2.892220   -0.612443    1.016940
      3          6           0        3.595978    0.262928   -0.042685
      4          6           0        2.545950    0.858876   -1.004890
      5          6           0        1.545862    1.715954   -0.200702
      6          6           0        0.830972    0.840998    0.853721
      7          6           0        2.128687   -1.750567    0.308559
      8          6           0        1.068747   -1.161333   -0.650674
      9          6           0        1.784812   -0.287007   -1.705704
     10          6           0        0.052491   -0.322892    0.178179
     11          6           0       -1.191248    0.157611   -0.625074
     12          6           0       -2.041749   -1.001923   -1.210279
     13          6           0       -2.842982   -1.750573   -0.130426
     14          6           0       -3.685134   -0.765649    0.696536
     15          6           0       -2.801569    0.379804    1.225514
     16          7           0       -2.022984    1.073406    0.190997
     17          6           0       -2.815028    2.010594   -0.597967
     18          1           0       -0.832103    0.759160   -1.466971
     19          1           0       -1.412679   -1.698279   -1.774637
     20          1           0       -2.747103   -0.576602   -1.937010
     21          1           0       -2.160930   -2.296754    0.535362
     22          1           0       -3.485029   -2.506745   -0.598669
     23          1           0       -4.169560   -1.276616    1.538637
     24          1           0       -4.490844   -0.357949    0.070957
     25          1           0       -2.102252   -0.024905    1.969456
     26          1           0       -3.409310    1.127665    1.748171
     27          1           0       -3.601171    1.552126   -1.225294
     28          1           0       -3.303391    2.723996    0.075142
     29          1           0       -2.152699    2.578968   -1.259503
     30          1           0        4.156685    1.070562    0.447726
     31          1           0        4.325406   -0.336855   -0.604336
     32          1           0        3.047981    1.481573   -1.757375
     33          1           0        2.485813   -0.908351   -2.279946
     34          1           0        1.068572    0.121704   -2.429893
     35          1           0        3.639658   -1.038495    1.699420
     36          1           0        1.643282   -2.399211    1.050458
     37          1           0        2.829887   -2.380859   -0.255509
     38          1           0        0.818273    2.186010   -0.873773
     39          1           0        2.075368    2.535909    0.303541
     40          1           0        0.122195    1.457542    1.414446
     41          1           0       -0.307702   -0.977013    0.984834
     42          1           0        2.418881    1.062576    2.328271
     43          1           0        1.401493   -0.355054    2.585753
     44          1           0        0.555551   -1.989944   -1.152643
 ---------------------------------------------------------------------
 Rotational constants (GHZ):      0.9489693      0.3329616      0.3155160
 Standard basis: CC-pVTZ (5D, 7F)
 There are   888 symmetry adapted basis functions of A   symmetry.
 Integral buffers will be    131072 words long.
 Raffenetti 1 integral format.
 Two-electron integral symmetry is turned on.
   888 basis functions,  1343 primitive gaussians,  1000 cartesian basis functions
    65 alpha electrons       65 beta electrons
       nuclear repulsion energy      1381.9926232614 Hartrees.
 NAtoms=   44 NActive=   44 NUniq=   44 SFac= 7.50D-01 NAtFMM=   80 NAOKFM=F Big=F
 One-electron integrals computed using PRISM.
 NBasis=   888 RedAO= T  NBF=   888
 NBsUse=   888 1.00D-06 NBFU=   888
 Harris functional with IExCor=  205 diagonalized for initial guess.
 ExpMin= 1.03D-01 ExpMax= 1.14D+04 ExpMxC= 3.89D+02 IAcc=1 IRadAn=         1 AccDes= 0.00D+00
 HarFok:  IExCor=  205 AccDes= 0.00D+00 IRadAn=         1 IDoV= 1
 ScaDFX=  1.000000  1.000000  1.000000  1.000000
 FoFCou: FMM=F IPFlag=           0 FMFlag=      100000 FMFlg1=           0
         NFxFlg=           0 DoJE=T BraDBF=F KetDBF=T FulRan=T
         Omega=  0.000000  0.000000  1.000000  0.000000  0.000000 ICntrl=     500 IOpCl=  0
         NMat0=    1 NMatS0=    1 NMatT0=    0 NMatD0=    1 NMtDS0=    0 NMtDT0=    0
         I1Cent=           4 NGrid=           0.
 Petite list used in FoFCou.
 Initial guess orbital symmetries:
       Occupied  (A) (A) (A) (A) (A) (A) (A) (A) (A) (A) (A) (A)
                 (A) (A) (A) (A) (A) (A) (A) (A) (A) (A) (A) (A)
                 (A) (A) (A) (A) (A) (A) (A) (A) (A) (A) (A) (A)
                 (A) (A) (A) (A) (A) (A) (A) (A) (A) (A) (A) (A)
                 (A) (A) (A) (A) (A) (A) (A) (A) (A) (A) (A) (A)
                 (A) (A) (A) (A) (A)
       Virtual   (A) (A) (A) (A) (A) (A) (A) (A) (A) (A) (A) (A)
                 (A) (A) (A) (A) (A) (A) (A) (A) (A) (A) (A) (A)
                 (A) (A) (A) (A) (A) (A) (A) (A) (A) (A) (A) (A)
                 (A) (A) (A) (A) (A) (A) (A) (A) (A) (A) (A) (A)
                 (A) (A) (A) (A) (A) (A) (A) (A) (A) (A) (A) (A)
                 (A) (A) (A) (A) (A) (A) (A) (A) (A) (A) (A) (A)
                 (A) (A) (A) (A) (A) (A) (A) (A) (A) (A) (A) (A)
                 (A) (A) (A) (A) (A) (A) (A) (A) (A) (A) (A) (A)
                 (A) (A) (A) (A) (A) (A) (A) (A) (A) (A) (A) (A)
                 (A) (A) (A) (A) (A) (A) (A) (A) (A) (A) (A) (A)
                 (A) (A) (A) (A) (A) (A) (A) (A) (A) (A) (A) (A)
                 (A) (A) (A) (A) (A) (A) (A) (A) (A) (A) (A) (A)
                 (A) (A) (A) (A) (A) (A) (A) (A) (A) (A) (A) (A)
                 (A) (A) (A) (A) (A) (A) (A) (A) (A) (A) (A) (A)
                 (A) (A) (A) (A) (A) (A) (A) (A) (A) (A) (A) (A)
                 (A) (A) (A) (A) (A) (A) (A) (A) (A) (A) (A) (A)
                 (A) (A) (A) (A) (A) (A) (A) (A) (A) (A) (A) (A)
                 (A) (A) (A) (A) (A) (A) (A) (A) (A) (A) (A) (A)
                 (A) (A) (A) (A) (A) (A) (A) (A) (A) (A) (A) (A)
                 (A) (A) (A) (A) (A) (A) (A) (A) (A) (A) (A) (A)
                 (A) (A) (A) (A) (A) (A) (A) (A) (A) (A) (A) (A)
                 (A) (A) (A) (A) (A) (A) (A) (A) (A) (A) (A) (A)
                 (A) (A) (A) (A) (A) (A) (A) (A) (A) (A) (A) (A)
                 (A) (A) (A) (A) (A) (A) (A) (A) (A) (A) (A) (A)
                 (A) (A) (A) (A) (A) (A) (A) (A) (A) (A) (A) (A)
                 (A) (A) (A) (A) (A) (A) (A) (A) (A) (A) (A) (A)
                 (A) (A) (A) (A) (A) (A) (A) (A) (A) (A) (A) (A)
                 (A) (A) (A) (A) (A) (A) (A) (A) (A) (A) (A) (A)
                 (A) (A) (A) (A) (A) (A) (A) (A) (A) (A) (A) (A)
                 (A) (A) (A) (A) (A) (A) (A) (A) (A) (A) (A) (A)
                 (A) (A) (A) (A) (A) (A) (A) (A) (A) (A) (A) (A)
                 (A) (A) (A) (A) (A) (A) (A) (A) (A) (A) (A) (A)
                 (A) (A) (A) (A) (A) (A) (A) (A) (A) (A) (A) (A)
                 (A) (A) (A) (A) (A) (A) (A) (A) (A) (A) (A) (A)
                 (A) (A) (A) (A) (A) (A) (A) (A) (A) (A) (A) (A)
                 (A) (A) (A) (A) (A) (A) (A) (A) (A) (A) (A) (A)
                 (A) (A) (A) (A) (A) (A) (A) (A) (A) (A) (A) (A)
                 (A) (A) (A) (A) (A) (A) (A) (A) (A) (A) (A) (A)
                 (A) (A) (A) (A) (A) (A) (A) (A) (A) (A) (A) (A)
                 (A) (A) (A) (A) (A) (A) (A) (A) (A) (A) (A) (A)
                 (A) (A) (A) (A) (A) (A) (A) (A) (A) (A) (A) (A)
                 (A) (A) (A) (A) (A) (A) (A) (A) (A) (A) (A) (A)
                 (A) (A) (A) (A) (A) (A) (A) (A) (A) (A) (A) (A)
                 (A) (A) (A) (A) (A) (A) (A) (A) (A) (A) (A) (A)
                 (A) (A) (A) (A) (A) (A) (A) (A) (A) (A) (A) (A)
                 (A) (A) (A) (A) (A) (A) (A) (A) (A) (A) (A) (A)
                 (A) (A) (A) (A) (A) (A) (A) (A) (A) (A) (A) (A)
                 (A) (A) (A) (A) (A) (A) (A) (A) (A) (A) (A) (A)
                 (A) (A) (A) (A) (A) (A) (A) (A) (A) (A) (A) (A)
                 (A) (A) (A) (A) (A) (A) (A) (A) (A) (A) (A) (A)
                 (A) (A) (A) (A) (A) (A) (A) (A) (A) (A) (A) (A)
                 (A) (A) (A) (A) (A) (A) (A) (A) (A) (A) (A) (A)
                 (A) (A) (A) (A) (A) (A) (A) (A) (A) (A) (A) (A)
                 (A) (A) (A) (A) (A) (A) (A) (A) (A) (A) (A) (A)
                 (A) (A) (A) (A) (A) (A) (A) (A) (A) (A) (A) (A)
                 (A) (A) (A) (A) (A) (A) (A) (A) (A) (A) (A) (A)
                 (A) (A) (A) (A) (A) (A) (A) (A) (A) (A) (A) (A)
                 (A) (A) (A) (A) (A) (A) (A) (A) (A) (A) (A) (A)
                 (A) (A) (A) (A) (A) (A) (A) (A) (A) (A) (A) (A)
                 (A) (A) (A) (A) (A) (A) (A) (A) (A) (A) (A) (A)
                 (A) (A) (A) (A) (A) (A) (A) (A) (A) (A) (A) (A)
                 (A) (A) (A) (A) (A) (A) (A) (A) (A) (A) (A) (A)
                 (A) (A) (A) (A) (A) (A) (A) (A) (A) (A) (A) (A)
                 (A) (A) (A) (A) (A) (A) (A) (A) (A) (A) (A) (A)
                 (A) (A) (A) (A) (A) (A) (A) (A) (A) (A) (A) (A)
                 (A) (A) (A) (A) (A) (A) (A) (A) (A) (A) (A) (A)
                 (A) (A) (A) (A) (A) (A) (A) (A) (A) (A) (A) (A)
                 (A) (A) (A) (A) (A) (A) (A) (A) (A) (A) (A) (A)
                 (A) (A) (A) (A) (A) (A) (A)
 The electronic state of the initial guess is 1-A.
 Requested convergence on RMS density matrix=1.00D-08 within 128 cycles.
 Requested convergence on MAX density matrix=1.00D-06.
 Requested convergence on             energy=1.00D-06.
 No special actions if energy rises.
 Integral accuracy reduced to 1.0D-05 until final iterations.
 Initial convergence to 1.0D-05 achieved.  Increase integral accuracy.
 SCF Done:  E(RHF) =  -676.279389129     A.U. after   12 cycles
             Convg  =    0.5813D-08             -V/T =  2.0018
 ExpMin= 1.03D-01 ExpMax= 1.14D+04 ExpMxC= 3.89D+02 IAcc=1 IRadAn=         1 AccDes= 0.00D+00
 HarFok:  IExCor=  205 AccDes= 0.00D+00 IRadAn=         1 IDoV=-2
 ScaDFX=  1.000000  1.000000  1.000000  1.000000
 Range of M.O.s used for correlation:    18   888
 NBasis=   888 NAE=    65 NBE=    65 NFC=    17 NFV=     0
 NROrb=    871 NOA=    48 NOB=    48 NVA=   823 NVB=   823

 **** Warning!!: The largest alpha MO coefficient is  0.23713644D+02

 Fully direct method using O(OVN) memory.
 JobTyp=1 Pass  1:  I=   1 to   6 NPSUse=  8 ParTrn=T ParDer=T DoDerP=F.
 JobTyp=1 Pass  2:  I=   7 to  13 NPSUse=  8 ParTrn=T ParDer=T DoDerP=F.
 JobTyp=1 Pass  3:  I=  14 to  23 NPSUse=  8 ParTrn=T ParDer=T DoDerP=F.
 JobTyp=1 Pass  4:  I=  24 to  41 NPSUse=  8 ParTrn=T ParDer=T DoDerP=F.
 JobTyp=1 Pass  5:  I=  42 to  48 NPSUse=  8 ParTrn=T ParDer=T DoDerP=F.
 Spin components of T(2) and E(2):
     alpha-alpha T2 =       0.1188475804D+00 E2=     -0.3520280859D+00
     alpha-beta  T2 =       0.6844017266D+00 E2=     -0.2249102243D+01
     beta-beta   T2 =       0.1188475804D+00 E2=     -0.3520280859D+00
 ANorm=    0.1386397089D+01
 E2 =    -0.2953158415D+01 EUMP2 =    -0.67923254754323D+03

 **********************************************************************

            Population analysis using the SCF density.

 **********************************************************************

 Orbital symmetries:
       Occupied  (A) (A) (A) (A) (A) (A) (A) (A) (A) (A) (A) (A)
                 (A) (A) (A) (A) (A) (A) (A) (A) (A) (A) (A) (A)
                 (A) (A) (A) (A) (A) (A) (A) (A) (A) (A) (A) (A)
                 (A) (A) (A) (A) (A) (A) (A) (A) (A) (A) (A) (A)
                 (A) (A) (A) (A) (A) (A) (A) (A) (A) (A) (A) (A)
                 (A) (A) (A) (A) (A)
       Virtual   (A) (A) (A) (A) (A) (A) (A) (A) (A) (A) (A) (A)
                 (A) (A) (A) (A) (A) (A) (A) (A) (A) (A) (A) (A)
                 (A) (A) (A) (A) (A) (A) (A) (A) (A) (A) (A) (A)
                 (A) (A) (A) (A) (A) (A) (A) (A) (A) (A) (A) (A)
                 (A) (A) (A) (A) (A) (A) (A) (A) (A) (A) (A) (A)
                 (A) (A) (A) (A) (A) (A) (A) (A) (A) (A) (A) (A)
                 (A) (A) (A) (A) (A) (A) (A) (A) (A) (A) (A) (A)
                 (A) (A) (A) (A) (A) (A) (A) (A) (A) (A) (A) (A)
                 (A) (A) (A) (A) (A) (A) (A) (A) (A) (A) (A) (A)
                 (A) (A) (A) (A) (A) (A) (A) (A) (A) (A) (A) (A)
                 (A) (A) (A) (A) (A) (A) (A) (A) (A) (A) (A) (A)
                 (A) (A) (A) (A) (A) (A) (A) (A) (A) (A) (A) (A)
                 (A) (A) (A) (A) (A) (A) (A) (A) (A) (A) (A) (A)
                 (A) (A) (A) (A) (A) (A) (A) (A) (A) (A) (A) (A)
                 (A) (A) (A) (A) (A) (A) (A) (A) (A) (A) (A) (A)
                 (A) (A) (A) (A) (A) (A) (A) (A) (A) (A) (A) (A)
                 (A) (A) (A) (A) (A) (A) (A) (A) (A) (A) (A) (A)
                 (A) (A) (A) (A) (A) (A) (A) (A) (A) (A) (A) (A)
                 (A) (A) (A) (A) (A) (A) (A) (A) (A) (A) (A) (A)
                 (A) (A) (A) (A) (A) (A) (A) (A) (A) (A) (A) (A)
                 (A) (A) (A) (A) (A) (A) (A) (A) (A) (A) (A) (A)
                 (A) (A) (A) (A) (A) (A) (A) (A) (A) (A) (A) (A)
                 (A) (A) (A) (A) (A) (A) (A) (A) (A) (A) (A) (A)
                 (A) (A) (A) (A) (A) (A) (A) (A) (A) (A) (A) (A)
                 (A) (A) (A) (A) (A) (A) (A) (A) (A) (A) (A) (A)
                 (A) (A) (A) (A) (A) (A) (A) (A) (A) (A) (A) (A)
                 (A) (A) (A) (A) (A) (A) (A) (A) (A) (A) (A) (A)
                 (A) (A) (A) (A) (A) (A) (A) (A) (A) (A) (A) (A)
                 (A) (A) (A) (A) (A) (A) (A) (A) (A) (A) (A) (A)
                 (A) (A) (A) (A) (A) (A) (A) (A) (A) (A) (A) (A)
                 (A) (A) (A) (A) (A) (A) (A) (A) (A) (A) (A) (A)
                 (A) (A) (A) (A) (A) (A) (A) (A) (A) (A) (A) (A)
                 (A) (A) (A) (A) (A) (A) (A) (A) (A) (A) (A) (A)
                 (A) (A) (A) (A) (A) (A) (A) (A) (A) (A) (A) (A)
                 (A) (A) (A) (A) (A) (A) (A) (A) (A) (A) (A) (A)
                 (A) (A) (A) (A) (A) (A) (A) (A) (A) (A) (A) (A)
                 (A) (A) (A) (A) (A) (A) (A) (A) (A) (A) (A) (A)
                 (A) (A) (A) (A) (A) (A) (A) (A) (A) (A) (A) (A)
                 (A) (A) (A) (A) (A) (A) (A) (A) (A) (A) (A) (A)
                 (A) (A) (A) (A) (A) (A) (A) (A) (A) (A) (A) (A)
                 (A) (A) (A) (A) (A) (A) (A) (A) (A) (A) (A) (A)
                 (A) (A) (A) (A) (A) (A) (A) (A) (A) (A) (A) (A)
                 (A) (A) (A) (A) (A) (A) (A) (A) (A) (A) (A) (A)
                 (A) (A) (A) (A) (A) (A) (A) (A) (A) (A) (A) (A)
                 (A) (A) (A) (A) (A) (A) (A) (A) (A) (A) (A) (A)
                 (A) (A) (A) (A) (A) (A) (A) (A) (A) (A) (A) (A)
                 (A) (A) (A) (A) (A) (A) (A) (A) (A) (A) (A) (A)
                 (A) (A) (A) (A) (A) (A) (A) (A) (A) (A) (A) (A)
                 (A) (A) (A) (A) (A) (A) (A) (A) (A) (A) (A) (A)
                 (A) (A) (A) (A) (A) (A) (A) (A) (A) (A) (A) (A)
                 (A) (A) (A) (A) (A) (A) (A) (A) (A) (A) (A) (A)
                 (A) (A) (A) (A) (A) (A) (A) (A) (A) (A) (A) (A)
                 (A) (A) (A) (A) (A) (A) (A) (A) (A) (A) (A) (A)
                 (A) (A) (A) (A) (A) (A) (A) (A) (A) (A) (A) (A)
                 (A) (A) (A) (A) (A) (A) (A) (A) (A) (A) (A) (A)
                 (A) (A) (A) (A) (A) (A) (A) (A) (A) (A) (A) (A)
                 (A) (A) (A) (A) (A) (A) (A) (A) (A) (A) (A) (A)
                 (A) (A) (A) (A) (A) (A) (A) (A) (A) (A) (A) (A)
                 (A) (A) (A) (A) (A) (A) (A) (A) (A) (A) (A) (A)
                 (A) (A) (A) (A) (A) (A) (A) (A) (A) (A) (A) (A)
                 (A) (A) (A) (A) (A) (A) (A) (A) (A) (A) (A) (A)
                 (A) (A) (A) (A) (A) (A) (A) (A) (A) (A) (A) (A)
                 (A) (A) (A) (A) (A) (A) (A) (A) (A) (A) (A) (A)
                 (A) (A) (A) (A) (A) (A) (A) (A) (A) (A) (A) (A)
                 (A) (A) (A) (A) (A) (A) (A) (A) (A) (A) (A) (A)
                 (A) (A) (A) (A) (A) (A) (A) (A) (A) (A) (A) (A)
                 (A) (A) (A) (A) (A) (A) (A) (A) (A) (A) (A) (A)
                 (A) (A) (A) (A) (A) (A) (A) (A) (A) (A) (A) (A)
                 (A) (A) (A) (A) (A) (A) (A)
 The electronic state is 1-A.
 Alpha  occ. eigenvalues --  -15.53382 -11.24556 -11.24090 -11.23823 -11.21711
 Alpha  occ. eigenvalues --  -11.21670 -11.21521 -11.21489 -11.21454 -11.21345
 Alpha  occ. eigenvalues --  -11.21299 -11.20949 -11.20920 -11.20792 -11.20788
 Alpha  occ. eigenvalues --  -11.20590 -11.20527  -1.21941  -1.15153  -1.06062
 Alpha  occ. eigenvalues --   -1.04293  -1.02694  -1.02543  -0.99368  -0.93882
 Alpha  occ. eigenvalues --   -0.89756  -0.88977  -0.84015  -0.83237  -0.78893
 Alpha  occ. eigenvalues --   -0.78445  -0.78133  -0.72733  -0.68745  -0.66041
 Alpha  occ. eigenvalues --   -0.63188  -0.62358  -0.62040  -0.60889  -0.60149
 Alpha  occ. eigenvalues --   -0.59319  -0.57402  -0.56659  -0.55847  -0.54943
 Alpha  occ. eigenvalues --   -0.54795  -0.54268  -0.53613  -0.53156  -0.52353
 Alpha  occ. eigenvalues --   -0.51045  -0.50177  -0.48986  -0.48097  -0.46190
 Alpha  occ. eigenvalues --   -0.45433  -0.45240  -0.45174  -0.44170  -0.43840
 Alpha  occ. eigenvalues --   -0.43448  -0.39717  -0.39453  -0.39121  -0.33108
 Alpha virt. eigenvalues --    0.12719   0.14214   0.14774   0.15779   0.16982
 Alpha virt. eigenvalues --    0.17352   0.17425   0.18003   0.18577   0.19441
 Alpha virt. eigenvalues --    0.19608   0.20304   0.21043   0.21948   0.22417
 Alpha virt. eigenvalues --    0.23144   0.24181   0.24768   0.24957   0.25213
 Alpha virt. eigenvalues --    0.25847   0.26633   0.27548   0.28100   0.28732
 Alpha virt. eigenvalues --    0.29996   0.30375   0.31126   0.32729   0.32869
 Alpha virt. eigenvalues --    0.33853   0.34577   0.34760   0.35162   0.35834
 Alpha virt. eigenvalues --    0.36290   0.37132   0.38065   0.38685   0.39193
 Alpha virt. eigenvalues --    0.40431   0.40603   0.41372   0.41559   0.42076
 Alpha virt. eigenvalues --    0.42574   0.42952   0.43235   0.44102   0.45099
 Alpha virt. eigenvalues --    0.45898   0.46158   0.46389   0.47896   0.48920
 Alpha virt. eigenvalues --    0.49532   0.50203   0.50616   0.51245   0.52935
 Alpha virt. eigenvalues --    0.53248   0.53406   0.54117   0.56351   0.56871
 Alpha virt. eigenvalues --    0.57134   0.57728   0.58088   0.58266   0.59141
 Alpha virt. eigenvalues --    0.59431   0.59862   0.60387   0.60750   0.60963
 Alpha virt. eigenvalues --    0.61718   0.62188   0.62312   0.62522   0.63271
 Alpha virt. eigenvalues --    0.63768   0.64012   0.64433   0.64755   0.65065
 Alpha virt. eigenvalues --    0.65705   0.66007   0.66297   0.66666   0.67217
 Alpha virt. eigenvalues --    0.67621   0.68139   0.68545   0.68800   0.69042
 Alpha virt. eigenvalues --    0.70052   0.70264   0.70611   0.71267   0.71776
 Alpha virt. eigenvalues --    0.72393   0.72519   0.73078   0.73396   0.73618
 Alpha virt. eigenvalues --    0.74410   0.74774   0.75728   0.76315   0.77101
 Alpha virt. eigenvalues --    0.77534   0.77827   0.79504   0.79968   0.80778
 Alpha virt. eigenvalues --    0.81686   0.82331   0.83008   0.83676   0.84274
 Alpha virt. eigenvalues --    0.85316   0.86627   0.87326   0.88768   0.88906
 Alpha virt. eigenvalues --    0.91472   0.92871   0.94285   0.95718   0.96744
 Alpha virt. eigenvalues --    0.97637   0.98367   0.99414   1.01376   1.02690
 Alpha virt. eigenvalues --    1.03625   1.03908   1.04792   1.05110   1.05696
 Alpha virt. eigenvalues --    1.05943   1.06224   1.07024   1.07231   1.08787
 Alpha virt. eigenvalues --    1.09511   1.09908   1.10273   1.10952   1.11398
 Alpha virt. eigenvalues --    1.12074   1.12691   1.14025   1.14620   1.15509
 Alpha virt. eigenvalues --    1.16276   1.16425   1.17423   1.18445   1.19693
 Alpha virt. eigenvalues --    1.20350   1.20683   1.20927   1.21880   1.22161
 Alpha virt. eigenvalues --    1.22554   1.23244   1.24040   1.25233   1.25858
 Alpha virt. eigenvalues --    1.26678   1.26940   1.28078   1.28502   1.29076
 Alpha virt. eigenvalues --    1.30036   1.30385   1.30988   1.31640   1.32367
 Alpha virt. eigenvalues --    1.32740   1.33063   1.33519   1.34145   1.34514
 Alpha virt. eigenvalues --    1.34756   1.35475   1.36547   1.36789   1.37208
 Alpha virt. eigenvalues --    1.37577   1.38876   1.39219   1.40036   1.40446
 Alpha virt. eigenvalues --    1.40600   1.41271   1.42405   1.42584   1.43066
 Alpha virt. eigenvalues --    1.43283   1.43472   1.44113   1.44405   1.44783
 Alpha virt. eigenvalues --    1.45539   1.45874   1.46804   1.46976   1.47191
 Alpha virt. eigenvalues --    1.47846   1.48265   1.49116   1.49736   1.50348
 Alpha virt. eigenvalues --    1.51110   1.51535   1.52338   1.52459   1.53197
 Alpha virt. eigenvalues --    1.53695   1.54588   1.55087   1.55633   1.56559
 Alpha virt. eigenvalues --    1.56721   1.57253   1.57832   1.58428   1.59249
 Alpha virt. eigenvalues --    1.60044   1.60981   1.61966   1.62304   1.62688
 Alpha virt. eigenvalues --    1.63251   1.63990   1.64412   1.65069   1.65978
 Alpha virt. eigenvalues --    1.66415   1.66755   1.67777   1.68483   1.68967
 Alpha virt. eigenvalues --    1.70457   1.70667   1.71758   1.72315   1.72739
 Alpha virt. eigenvalues --    1.72783   1.74235   1.74961   1.75478   1.75876
 Alpha virt. eigenvalues --    1.76629   1.77767   1.78533   1.79118   1.79659
 Alpha virt. eigenvalues --    1.79958   1.80279   1.80437   1.82078   1.82856
 Alpha virt. eigenvalues --    1.83602   1.84482   1.85157   1.85953   1.87305
 Alpha virt. eigenvalues --    1.88858   1.89409   1.89487   1.91091   1.91097
 Alpha virt. eigenvalues --    1.91829   1.92114   1.93752   1.95012   1.95659
 Alpha virt. eigenvalues --    1.96003   1.96714   1.97318   1.98250   1.99085
 Alpha virt. eigenvalues --    1.99529   2.00179   2.02318   2.02424   2.04456
 Alpha virt. eigenvalues --    2.06370   2.08361   2.08760   2.11193   2.12143
 Alpha virt. eigenvalues --    2.16172   2.17161   2.19752   2.22257   2.23484
 Alpha virt. eigenvalues --    2.24448   2.25631   2.30616   2.31898   2.33392
 Alpha virt. eigenvalues --    2.36088   2.39327   2.41073   2.58162   2.62058
 Alpha virt. eigenvalues --    2.65763   2.66891   2.67889   2.69464   2.70945
 Alpha virt. eigenvalues --    2.71723   2.72967   2.74283   2.75085   2.76135
 Alpha virt. eigenvalues --    2.76929   2.77125   2.78402   2.78462   2.80343
 Alpha virt. eigenvalues --    2.80994   2.81247   2.82220   2.82833   2.83794
 Alpha virt. eigenvalues --    2.85456   2.85615   2.86269   2.86765   2.87486
 Alpha virt. eigenvalues --    2.87833   2.88377   2.88509   2.89627   2.90052
 Alpha virt. eigenvalues --    2.90824   2.91640   2.91884   2.92344   2.93104
 Alpha virt. eigenvalues --    2.93264   2.94055   2.94481   2.95632   2.96465
 Alpha virt. eigenvalues --    2.96820   2.97311   2.97645   2.98300   2.98910
 Alpha virt. eigenvalues --    2.99064   2.99916   3.00198   3.00653   3.01351
 Alpha virt. eigenvalues --    3.02629   3.03163   3.03547   3.04472   3.04691
 Alpha virt. eigenvalues --    3.06021   3.06129   3.07257   3.08331   3.09077
 Alpha virt. eigenvalues --    3.09182   3.09891   3.10440   3.11148   3.11911
 Alpha virt. eigenvalues --    3.12404   3.12574   3.13366   3.14178   3.14882
 Alpha virt. eigenvalues --    3.15406   3.16828   3.17686   3.18250   3.19421
 Alpha virt. eigenvalues --    3.20107   3.20346   3.21020   3.22321   3.22711
 Alpha virt. eigenvalues --    3.23652   3.25795   3.26232   3.26792   3.28234
 Alpha virt. eigenvalues --    3.29257   3.29312   3.30537   3.31264   3.31800
 Alpha virt. eigenvalues --    3.32538   3.33063   3.33179   3.34489   3.34975
 Alpha virt. eigenvalues --    3.35731   3.35985   3.36208   3.37348   3.37876
 Alpha virt. eigenvalues --    3.38620   3.39781   3.40158   3.40822   3.41353
 Alpha virt. eigenvalues --    3.41768   3.42235   3.42732   3.43631   3.43935
 Alpha virt. eigenvalues --    3.44603   3.44917   3.45076   3.45693   3.45994
 Alpha virt. eigenvalues --    3.46040   3.46917   3.47258   3.47959   3.48270
 Alpha virt. eigenvalues --    3.48816   3.49321   3.49574   3.49968   3.50440
 Alpha virt. eigenvalues --    3.51097   3.51696   3.52131   3.52424   3.52665
 Alpha virt. eigenvalues --    3.53431   3.54347   3.54705   3.55227   3.55561
 Alpha virt. eigenvalues --    3.56224   3.57342   3.58048   3.58561   3.58980
 Alpha virt. eigenvalues --    3.59628   3.60141   3.62068   3.62714   3.63465
 Alpha virt. eigenvalues --    3.64057   3.64369   3.65263   3.67323   3.67558
 Alpha virt. eigenvalues --    3.67760   3.68578   3.69217   3.69685   3.70273
 Alpha virt. eigenvalues --    3.70751   3.71041   3.72513   3.72654   3.73078
 Alpha virt. eigenvalues --    3.73345   3.73861   3.74194   3.75385   3.76075
 Alpha virt. eigenvalues --    3.76222   3.76805   3.77709   3.78937   3.79563
 Alpha virt. eigenvalues --    3.79795   3.80889   3.81911   3.82357   3.82867
 Alpha virt. eigenvalues --    3.83453   3.83702   3.84595   3.85031   3.85673
 Alpha virt. eigenvalues --    3.85883   3.87291   3.87624   3.88320   3.88664
 Alpha virt. eigenvalues --    3.89170   3.89700   3.90501   3.90756   3.91836
 Alpha virt. eigenvalues --    3.92025   3.92267   3.92391   3.93103   3.93703
 Alpha virt. eigenvalues --    3.94627   3.95196   3.95869   3.96082   3.96896
 Alpha virt. eigenvalues --    3.97524   3.98093   3.99133   3.99378   3.99577
 Alpha virt. eigenvalues --    4.00128   4.00935   4.01001   4.02030   4.02312
 Alpha virt. eigenvalues --    4.03159   4.03214   4.03934   4.04665   4.05294
 Alpha virt. eigenvalues --    4.05388   4.06298   4.07892   4.08398   4.09334
 Alpha virt. eigenvalues --    4.10028   4.10267   4.10442   4.11296   4.11777
 Alpha virt. eigenvalues --    4.12486   4.12744   4.13237   4.13652   4.14008
 Alpha virt. eigenvalues --    4.14555   4.15307   4.15566   4.15803   4.16548
 Alpha virt. eigenvalues --    4.17572   4.17987   4.18992   4.20459   4.21707
 Alpha virt. eigenvalues --    4.22059   4.22638   4.23417   4.23951   4.24251
 Alpha virt. eigenvalues --    4.24961   4.25703   4.26157   4.27619   4.29528
 Alpha virt. eigenvalues --    4.29574   4.30119   4.31365   4.31804   4.32268
 Alpha virt. eigenvalues --    4.32841   4.32944   4.33750   4.34309   4.34927
 Alpha virt. eigenvalues --    4.35527   4.36306   4.36711   4.37495   4.37788
 Alpha virt. eigenvalues --    4.38545   4.38978   4.39574   4.39778   4.40645
 Alpha virt. eigenvalues --    4.41249   4.41910   4.42189   4.42898   4.43502
 Alpha virt. eigenvalues --    4.44568   4.45192   4.45554   4.46335   4.46559
 Alpha virt. eigenvalues --    4.47978   4.48753   4.48949   4.49961   4.50453
 Alpha virt. eigenvalues --    4.50997   4.51830   4.52512   4.53268   4.53480
 Alpha virt. eigenvalues --    4.54073   4.54277   4.55318   4.55513   4.55836
 Alpha virt. eigenvalues --    4.56007   4.56615   4.57517   4.58329   4.58872
 Alpha virt. eigenvalues --    4.59062   4.59632   4.60093   4.60643   4.61034
 Alpha virt. eigenvalues --    4.61830   4.62498   4.62832   4.63856   4.64064
 Alpha virt. eigenvalues --    4.64602   4.65061   4.66570   4.66629   4.67053
 Alpha virt. eigenvalues --    4.67530   4.68575   4.69330   4.70242   4.71058
 Alpha virt. eigenvalues --    4.71396   4.72644   4.73148   4.73501   4.75009
 Alpha virt. eigenvalues --    4.75573   4.76143   4.76565   4.77668   4.78004
 Alpha virt. eigenvalues --    4.78791   4.79593   4.80545   4.81497   4.82465
 Alpha virt. eigenvalues --    4.83016   4.83810   4.85415   4.86266   4.87154
 Alpha virt. eigenvalues --    4.88600   4.89363   4.89629   4.90121   4.90691
 Alpha virt. eigenvalues --    4.90998   4.92328   4.94260   4.94690   4.94974
 Alpha virt. eigenvalues --    4.97094   4.98336   4.98917   4.99263   4.99583
 Alpha virt. eigenvalues --    5.01570   5.01719   5.02290   5.04440   5.04929
 Alpha virt. eigenvalues --    5.05664   5.06173   5.07192   5.08586   5.08851
 Alpha virt. eigenvalues --    5.10908   5.11217   5.12435   5.13328   5.13765
 Alpha virt. eigenvalues --    5.16305   5.16748   5.17478   5.18196   5.19122
 Alpha virt. eigenvalues --    5.20744   5.22007   5.22888   5.23590   5.24466
 Alpha virt. eigenvalues --    5.24857   5.25881   5.26439   5.26682   5.28115
 Alpha virt. eigenvalues --    5.28725   5.29300   5.30298   5.30759   5.31620
 Alpha virt. eigenvalues --    5.32061   5.32503   5.32943   5.34650   5.35975
 Alpha virt. eigenvalues --    5.36330   5.38003   5.39261   5.40219   5.40398
 Alpha virt. eigenvalues --    5.41334   5.42165   5.44176   5.44458   5.44578
 Alpha virt. eigenvalues --    5.45085   5.45874   5.46484   5.46924   5.47511
 Alpha virt. eigenvalues --    5.48281   5.50115   5.50430   5.51464   5.52097
 Alpha virt. eigenvalues --    5.52658   5.53326   5.54737   5.54822   5.56238
 Alpha virt. eigenvalues --    5.57232   5.58163   5.58578   5.59278   5.60076
 Alpha virt. eigenvalues --    5.61358   5.63196   5.63652   5.64972   5.65579
 Alpha virt. eigenvalues --    5.66666   5.66729   5.68182   5.69064   5.70171
 Alpha virt. eigenvalues --    5.70702   5.71358   5.72491   5.73961   5.75385
 Alpha virt. eigenvalues --    5.75662   5.77486   5.77973   5.79136   5.80472
 Alpha virt. eigenvalues --    5.81164   5.81529   5.81854   5.82147   5.83743
 Alpha virt. eigenvalues --    5.84414   5.84818   5.85439   5.86573   5.88546
 Alpha virt. eigenvalues --    5.88856   5.89473   5.90479   5.91539   5.93129
 Alpha virt. eigenvalues --    5.94315   5.94968   5.95871   5.98476   6.01714
 Alpha virt. eigenvalues --    6.04589   6.06869   6.09512   6.11275   6.13485
 Alpha virt. eigenvalues --    6.15333   6.15672   6.18453   6.19958   6.26001
 Alpha virt. eigenvalues --    6.28009   6.32623   6.33281   6.34741   6.36205
 Alpha virt. eigenvalues --    6.37103   6.38435   6.42760   6.43403   6.47097
 Alpha virt. eigenvalues --    6.47829   6.49772   6.51147   6.52635   6.53419
 Alpha virt. eigenvalues --    6.54303   6.55070   6.57360   6.58117   6.60297
 Alpha virt. eigenvalues --    6.63237  11.32784  12.41034  12.55672  12.76996
 Alpha virt. eigenvalues --   12.87298  13.00045  13.14032  13.34842  13.40239
 Alpha virt. eigenvalues --   13.59718  13.65209  13.75811  13.76643  13.87308
 Alpha virt. eigenvalues --   14.02664  14.20303  14.31847
          Condensed to atoms (all electrons):
              1          2          3          4          5          6
     1  C    4.921418   0.332355  -0.044861  -0.002646  -0.040190   0.339533
     2  C    0.332355   4.941009   0.340207  -0.029800  -0.001790  -0.034058
     3  C   -0.044861   0.340207   4.910878   0.341601  -0.044705  -0.000099
     4  C   -0.002646  -0.029800   0.341601   4.924623   0.341794  -0.032991
     5  C   -0.040190  -0.001790  -0.044705   0.341794   4.917410   0.331229
     6  C    0.339533  -0.034058  -0.000099  -0.032991   0.331229   4.972557
     7  C   -0.041884   0.344072  -0.045164  -0.003068   0.003059  -0.001697
     8  C   -0.002162  -0.034433  -0.001185  -0.030457  -0.007897  -0.021232
     9  C    0.003579  -0.001988  -0.045039   0.338063  -0.038679  -0.005788
    10  C   -0.043563  -0.000370   0.001618   0.002580  -0.039282   0.324633
    11  C    0.002545  -0.000181   0.000257  -0.001885   0.002765  -0.051797
    12  C   -0.000078  -0.000092   0.000005   0.000032  -0.000134   0.006546
    13  C   -0.000007   0.000002  -0.000001   0.000004  -0.000043  -0.000089
    14  C    0.000019  -0.000003   0.000000  -0.000001  -0.000003   0.000674
    15  C    0.000133  -0.000006   0.000000   0.000000  -0.000026  -0.002293
    16  N    0.001979  -0.000165  -0.000007   0.000080  -0.000328  -0.006724
    17  C   -0.000021   0.000001   0.000000  -0.000017  -0.000075  -0.000593
    18  H   -0.000202  -0.000074  -0.000052  -0.000177  -0.002286  -0.002801
    19  H   -0.000046  -0.000010   0.000002  -0.000008   0.000090  -0.000592
    20  H    0.000010   0.000001   0.000000  -0.000005   0.000032  -0.000340
    21  H    0.000048  -0.000008   0.000000   0.000002  -0.000009   0.000140
    22  H    0.000000   0.000000   0.000000   0.000000   0.000000   0.000036
    23  H   -0.000002   0.000000   0.000000   0.000000   0.000000  -0.000011
    24  H    0.000001   0.000000   0.000000   0.000000  -0.000001  -0.000035
    25  H   -0.000125   0.000044   0.000001   0.000005  -0.000029  -0.002139
    26  H   -0.000015   0.000001   0.000000   0.000000   0.000019   0.000091
    27  H    0.000013  -0.000001   0.000000  -0.000001  -0.000064   0.000373
    28  H   -0.000012   0.000000   0.000000   0.000002   0.000049  -0.000062
    29  H   -0.000039   0.000003   0.000001  -0.000003   0.000245  -0.000685
    30  H   -0.002907  -0.040146   0.438927  -0.039659  -0.003448  -0.000640
    31  H    0.006515  -0.039802   0.439449  -0.039887   0.006794  -0.001445
    32  H   -0.001086   0.006445  -0.036779   0.445374  -0.037477   0.006974
    33  H   -0.000033   0.000111  -0.003810  -0.038232   0.006482  -0.001078
    34  H   -0.000088  -0.000963   0.006701  -0.039346  -0.003908   0.000725
    35  H   -0.036262   0.444474  -0.036615   0.006616  -0.001312   0.007133
    36  H   -0.003794  -0.040549   0.006698  -0.001142  -0.000003   0.000321
    37  H    0.006555  -0.039062  -0.004097   0.000125   0.000040  -0.001141
    38  H    0.006609  -0.001167   0.006707  -0.042133   0.439202  -0.036842
    39  H   -0.003514  -0.000032  -0.003960  -0.038860   0.438341  -0.038374
    40  H   -0.037769   0.005752  -0.001000   0.006161  -0.031029   0.431400
    41  H   -0.005068  -0.000818   0.000011  -0.001275   0.005854  -0.037756
    42  H    0.442493  -0.039687  -0.004142   0.000099  -0.003314  -0.043383
    43  H    0.442007  -0.041630   0.006718  -0.001085   0.006456  -0.041185
    44  H   -0.000856   0.006530  -0.001160   0.006558  -0.000988   0.006269
              7          8          9         10         11         12
     1  C   -0.041884  -0.002162   0.003579  -0.043563   0.002545  -0.000078
     2  C    0.344072  -0.034433  -0.001988  -0.000370  -0.000181  -0.000092
     3  C   -0.045164  -0.001185  -0.045039   0.001618   0.000257   0.000005
     4  C   -0.003068  -0.030457   0.338063   0.002580  -0.001885   0.000032
     5  C    0.003059  -0.007897  -0.038679  -0.039282   0.002765  -0.000134
     6  C   -0.001697  -0.021232  -0.005788   0.324633  -0.051797   0.006546
     7  C    4.893340   0.346680  -0.039941  -0.037085   0.003480   0.000624
     8  C    0.346680   4.962776   0.333881   0.353386  -0.048291  -0.005745
     9  C   -0.039941   0.333881   4.927486  -0.047058  -0.001092  -0.000229
    10  C   -0.037085   0.353386  -0.047058   4.997889   0.372602  -0.056794
    11  C    0.003480  -0.048291  -0.001092   0.372602   4.830110   0.381057
    12  C    0.000624  -0.005745  -0.000229  -0.056794   0.381057   4.911137
    13  C    0.000015   0.000021   0.000049   0.002358  -0.046323   0.337194
    14  C   -0.000015   0.000033   0.000005  -0.004479   0.001811  -0.040567
    15  C    0.000011   0.000103  -0.000046   0.001326  -0.038546  -0.008210
    16  N   -0.000129   0.002758   0.000207  -0.064465   0.320122  -0.038774
    17  C    0.000008  -0.000327   0.000069   0.004587  -0.042853  -0.001864
    18  H   -0.000072  -0.004278  -0.000311  -0.023247   0.431518  -0.045520
    19  H    0.000473  -0.004347  -0.000102  -0.002230  -0.029494   0.432584
    20  H    0.000005   0.000160  -0.000051   0.007612  -0.037264   0.432511
    21  H    0.000089   0.000165  -0.000044  -0.000223  -0.001784  -0.036072
    22  H   -0.000003  -0.000069   0.000008  -0.000379   0.006396  -0.037571
    23  H    0.000000  -0.000003   0.000000   0.000101  -0.001229   0.006744
    24  H    0.000000   0.000008  -0.000001   0.000220  -0.000810  -0.000361
    25  H    0.000063   0.000310  -0.000032   0.006420  -0.004882  -0.001132
    26  H   -0.000001   0.000018   0.000000   0.000100   0.004964  -0.000895
    27  H   -0.000001   0.000038   0.000016  -0.002037  -0.001808   0.003294
    28  H    0.000000   0.000013  -0.000004   0.000142   0.006238  -0.000406
    29  H    0.000001  -0.000067  -0.000019   0.001609  -0.005397  -0.000827
    30  H    0.006867  -0.001327   0.006827   0.000111  -0.000012   0.000000
    31  H   -0.003295  -0.000581  -0.003309   0.000159  -0.000008  -0.000001
    32  H   -0.001075   0.006798  -0.037607  -0.001233   0.000051   0.000004
    33  H   -0.004368  -0.038856   0.440190   0.006250  -0.000061  -0.000065
    34  H    0.006094  -0.036745   0.438762  -0.001856  -0.001600   0.000321
    35  H   -0.037437   0.007472  -0.001321  -0.001446   0.000047   0.000000
    36  H    0.441001  -0.039725   0.006501  -0.004805   0.000215  -0.000022
    37  H    0.442112  -0.042468  -0.003395   0.007311  -0.000269   0.000002
    38  H   -0.000072   0.000921  -0.003794  -0.004364  -0.001460   0.000492
    39  H   -0.000049  -0.000844   0.006532   0.005976  -0.000136   0.000017
    40  H   -0.000894   0.005831  -0.000749  -0.026972  -0.008698   0.000685
    41  H   -0.006656  -0.038326   0.006465   0.426914  -0.019486  -0.003643
    42  H    0.006723  -0.000993   0.000002   0.006892  -0.000264   0.000012
    43  H   -0.004091   0.000268  -0.000022  -0.004534   0.000248   0.000008
    44  H   -0.038542   0.441195  -0.038810  -0.028441  -0.005998  -0.004296
             13         14         15         16         17         18
     1  C   -0.000007   0.000019   0.000133   0.001979  -0.000021  -0.000202
     2  C    0.000002  -0.000003  -0.000006  -0.000165   0.000001  -0.000074
     3  C   -0.000001   0.000000   0.000000  -0.000007   0.000000  -0.000052
     4  C    0.000004  -0.000001   0.000000   0.000080  -0.000017  -0.000177
     5  C   -0.000043  -0.000003  -0.000026  -0.000328  -0.000075  -0.002286
     6  C   -0.000089   0.000674  -0.002293  -0.006724  -0.000593  -0.002801
     7  C    0.000015  -0.000015   0.000011  -0.000129   0.000008  -0.000072
     8  C    0.000021   0.000033   0.000103   0.002758  -0.000327  -0.004278
     9  C    0.000049   0.000005  -0.000046   0.000207   0.000069  -0.000311
    10  C    0.002358  -0.004479   0.001326  -0.064465   0.004587  -0.023247
    11  C   -0.046323   0.001811  -0.038546   0.320122  -0.042853   0.431518
    12  C    0.337194  -0.040567  -0.008210  -0.038774  -0.001864  -0.045520
    13  C    4.895517   0.336792  -0.038544  -0.002018  -0.001136   0.006692
    14  C    0.336792   4.929685   0.355690  -0.051163  -0.002591  -0.001291
    15  C   -0.038544   0.355690   4.753572   0.337107  -0.050008   0.006617
    16  N   -0.002018  -0.051163   0.337107   6.609506   0.347975  -0.028410
    17  C   -0.001136  -0.002591  -0.050008   0.347975   4.713224  -0.013446
    18  H    0.006692  -0.001291   0.006617  -0.028410  -0.013446   0.568612
    19  H   -0.038193   0.005882  -0.000678   0.004981   0.000040  -0.001940
    20  H   -0.038350  -0.001831   0.000417  -0.000342  -0.002716  -0.008293
    21  H    0.422039  -0.038931  -0.001111   0.000538  -0.000025  -0.000356
    22  H    0.438770  -0.035324   0.005473  -0.001048  -0.000102  -0.000222
    23  H   -0.036418   0.428784  -0.032223   0.005075   0.000052   0.000105
    24  H   -0.041612   0.421042  -0.034027   0.000274  -0.000561  -0.000153
    25  H   -0.002168  -0.061413   0.432048  -0.044672   0.007099  -0.000203
    26  H    0.006672  -0.048540   0.437922  -0.030069  -0.009822  -0.000290
    27  H    0.000510   0.008375  -0.005830  -0.055742   0.412908  -0.000956
    28  H    0.000067  -0.002308  -0.006443  -0.037720   0.422616   0.000457
    29  H    0.000012  -0.000872   0.006350  -0.039464   0.421449   0.001532
    30  H    0.000000   0.000000   0.000000   0.000001   0.000000   0.000003
    31  H    0.000000   0.000000   0.000000   0.000000   0.000000   0.000007
    32  H    0.000000   0.000000   0.000000  -0.000001   0.000000   0.000091
    33  H    0.000003   0.000000   0.000001   0.000013  -0.000001   0.000102
    34  H   -0.000041  -0.000001  -0.000001   0.000031   0.000083  -0.002694
    35  H    0.000000   0.000000   0.000000   0.000000   0.000000  -0.000001
    36  H   -0.000009  -0.000001   0.000001  -0.000007   0.000000  -0.000012
    37  H    0.000005   0.000000   0.000000   0.000006   0.000000   0.000008
    38  H   -0.000026   0.000030  -0.000108   0.002769  -0.000487  -0.003978
    39  H    0.000000  -0.000001   0.000012  -0.000188   0.000016   0.000060
    40  H   -0.000065   0.000915  -0.002333   0.019976  -0.000638  -0.000028
    41  H   -0.001550   0.000245  -0.001818  -0.000480  -0.000303   0.005514
    42  H    0.000000   0.000000   0.000009  -0.000005  -0.000001   0.000009
    43  H   -0.000002   0.000015  -0.000065   0.000076   0.000001  -0.000015
    44  H    0.000341  -0.000039   0.000050  -0.000104  -0.000015   0.000642
             19         20         21         22         23         24
     1  C   -0.000046   0.000010   0.000048   0.000000  -0.000002   0.000001
     2  C   -0.000010   0.000001  -0.000008   0.000000   0.000000   0.000000
     3  C    0.000002   0.000000   0.000000   0.000000   0.000000   0.000000
     4  C   -0.000008  -0.000005   0.000002   0.000000   0.000000   0.000000
     5  C    0.000090   0.000032  -0.000009   0.000000   0.000000  -0.000001
     6  C   -0.000592  -0.000340   0.000140   0.000036  -0.000011  -0.000035
     7  C    0.000473   0.000005   0.000089  -0.000003   0.000000   0.000000
     8  C   -0.004347   0.000160   0.000165  -0.000069  -0.000003   0.000008
     9  C   -0.000102  -0.000051  -0.000044   0.000008   0.000000  -0.000001
    10  C   -0.002230   0.007612  -0.000223  -0.000379   0.000101   0.000220
    11  C   -0.029494  -0.037264  -0.001784   0.006396  -0.001229  -0.000810
    12  C    0.432584   0.432511  -0.036072  -0.037571   0.006744  -0.000361
    13  C   -0.038193  -0.038350   0.422039   0.438770  -0.036418  -0.041612
    14  C    0.005882  -0.001831  -0.038931  -0.035324   0.428784   0.421042
    15  C   -0.000678   0.000417  -0.001111   0.005473  -0.032223  -0.034027
    16  N    0.004981  -0.000342   0.000538  -0.001048   0.005075   0.000274
    17  C    0.000040  -0.002716  -0.000025  -0.000102   0.000052  -0.000561
    18  H   -0.001940  -0.008293  -0.000356  -0.000222   0.000105  -0.000153
    19  H    0.558275  -0.030796  -0.004917  -0.004714  -0.000148  -0.000116
    20  H   -0.030796   0.573447   0.006481  -0.005882  -0.000045   0.001471
    21  H   -0.004917   0.006481   0.594279  -0.032700  -0.005273   0.006893
    22  H   -0.004714  -0.005882  -0.032700   0.563120  -0.004472  -0.005303
    23  H   -0.000148  -0.000045  -0.005273  -0.004472   0.567151  -0.031460
    24  H   -0.000116   0.001471   0.006893  -0.005303  -0.031460   0.594487
    25  H    0.000087   0.000091   0.001532  -0.000284  -0.002479   0.007153
    26  H    0.000113  -0.000104  -0.000159  -0.000296  -0.002563  -0.005148
    27  H   -0.000650  -0.004292  -0.000102   0.000319  -0.000531  -0.004310
    28  H    0.000051   0.000159   0.000012  -0.000014  -0.000001   0.000696
    29  H    0.000045   0.000872   0.000013  -0.000012   0.000046   0.000171
    30  H    0.000000   0.000000   0.000000   0.000000   0.000000   0.000000
    31  H    0.000001   0.000000   0.000000   0.000000   0.000000   0.000000
    32  H    0.000001  -0.000001   0.000000   0.000000   0.000000   0.000000
    33  H    0.000003  -0.000005  -0.000001   0.000000   0.000000   0.000000
    34  H    0.000666   0.000103   0.000002   0.000000   0.000000   0.000000
    35  H    0.000001   0.000000   0.000000   0.000000   0.000000   0.000000
    36  H    0.000017  -0.000001   0.000114  -0.000002   0.000000   0.000000
    37  H    0.000013  -0.000002  -0.000008   0.000000   0.000000   0.000000
    38  H   -0.000036   0.000013   0.000000   0.000001  -0.000001  -0.000001
    39  H    0.000000  -0.000001   0.000000   0.000000   0.000000   0.000000
    40  H   -0.000094  -0.000031  -0.000021   0.000008  -0.000041  -0.000022
    41  H    0.000819  -0.000275  -0.003399   0.000154   0.000092  -0.000143
    42  H    0.000000   0.000000  -0.000001   0.000000   0.000000   0.000000
    43  H   -0.000002   0.000000   0.000005   0.000000  -0.000001   0.000000
    44  H   -0.004163   0.000256   0.000597   0.000003   0.000000   0.000003
             25         26         27         28         29         30
     1  C   -0.000125  -0.000015   0.000013  -0.000012  -0.000039  -0.002907
     2  C    0.000044   0.000001  -0.000001   0.000000   0.000003  -0.040146
     3  C    0.000001   0.000000   0.000000   0.000000   0.000001   0.438927
     4  C    0.000005   0.000000  -0.000001   0.000002  -0.000003  -0.039659
     5  C   -0.000029   0.000019  -0.000064   0.000049   0.000245  -0.003448
     6  C   -0.002139   0.000091   0.000373  -0.000062  -0.000685  -0.000640
     7  C    0.000063  -0.000001  -0.000001   0.000000   0.000001   0.006867
     8  C    0.000310   0.000018   0.000038   0.000013  -0.000067  -0.001327
     9  C   -0.000032   0.000000   0.000016  -0.000004  -0.000019   0.006827
    10  C    0.006420   0.000100  -0.002037   0.000142   0.001609   0.000111
    11  C   -0.004882   0.004964  -0.001808   0.006238  -0.005397  -0.000012
    12  C   -0.001132  -0.000895   0.003294  -0.000406  -0.000827   0.000000
    13  C   -0.002168   0.006672   0.000510   0.000067   0.000012   0.000000
    14  C   -0.061413  -0.048540   0.008375  -0.002308  -0.000872   0.000000
    15  C    0.432048   0.437922  -0.005830  -0.006443   0.006350   0.000000
    16  N   -0.044672  -0.030069  -0.055742  -0.037720  -0.039464   0.000001
    17  C    0.007099  -0.009822   0.412908   0.422616   0.421449   0.000000
    18  H   -0.000203  -0.000290  -0.000956   0.000457   0.001532   0.000003
    19  H    0.000087   0.000113  -0.000650   0.000051   0.000045   0.000000
    20  H    0.000091  -0.000104  -0.004292   0.000159   0.000872   0.000000
    21  H    0.001532  -0.000159  -0.000102   0.000012   0.000013   0.000000
    22  H   -0.000284  -0.000296   0.000319  -0.000014  -0.000012   0.000000
    23  H   -0.002479  -0.002563  -0.000531  -0.000001   0.000046   0.000000
    24  H    0.007153  -0.005148  -0.004310   0.000696   0.000171   0.000000
    25  H    0.607728  -0.030573  -0.001587   0.000858   0.000061   0.000000
    26  H   -0.030573   0.568838  -0.001264   0.002816   0.000294   0.000000
    27  H   -0.001587  -0.001264   0.692512  -0.050786  -0.054739   0.000000
    28  H    0.000858   0.002816  -0.050786   0.591294  -0.022880   0.000000
    29  H    0.000061   0.000294  -0.054739  -0.022880   0.600663   0.000000
    30  H    0.000000   0.000000   0.000000   0.000000   0.000000   0.567228
    31  H    0.000000   0.000000   0.000000   0.000000   0.000000  -0.028690
    32  H    0.000000   0.000000   0.000000   0.000000   0.000000  -0.004997
    33  H    0.000000   0.000000   0.000000   0.000000  -0.000002  -0.000096
    34  H    0.000003   0.000000  -0.000007  -0.000003   0.000051  -0.000297
    35  H    0.000000   0.000000   0.000000   0.000000   0.000000  -0.004950
    36  H    0.000011   0.000000   0.000000   0.000000   0.000000  -0.000305
    37  H   -0.000001   0.000000   0.000000   0.000000   0.000000  -0.000128
    38  H   -0.000079   0.000002   0.000213  -0.000090  -0.000552  -0.000097
    39  H    0.000007  -0.000001  -0.000002  -0.000001   0.000006   0.002535
    40  H   -0.002938  -0.000418   0.000410  -0.000353  -0.000642  -0.000137
    41  H   -0.004393   0.000181   0.000020   0.000028  -0.000032   0.000002
    42  H   -0.000010  -0.000001   0.000000   0.000000   0.000000   0.002477
    43  H    0.000096  -0.000003   0.000001   0.000000  -0.000002  -0.000103
    44  H   -0.000011  -0.000001   0.000004   0.000000  -0.000002   0.000115
             31         32         33         34         35         36
     1  C    0.006515  -0.001086  -0.000033  -0.000088  -0.036262  -0.003794
     2  C   -0.039802   0.006445   0.000111  -0.000963   0.444474  -0.040549
     3  C    0.439449  -0.036779  -0.003810   0.006701  -0.036615   0.006698
     4  C   -0.039887   0.445374  -0.038232  -0.039346   0.006616  -0.001142
     5  C    0.006794  -0.037477   0.006482  -0.003908  -0.001312  -0.000003
     6  C   -0.001445   0.006974  -0.001078   0.000725   0.007133   0.000321
     7  C   -0.003295  -0.001075  -0.004368   0.006094  -0.037437   0.441001
     8  C   -0.000581   0.006798  -0.038856  -0.036745   0.007472  -0.039725
     9  C   -0.003309  -0.037607   0.440190   0.438762  -0.001321   0.006501
    10  C    0.000159  -0.001233   0.006250  -0.001856  -0.001446  -0.004805
    11  C   -0.000008   0.000051  -0.000061  -0.001600   0.000047   0.000215
    12  C   -0.000001   0.000004  -0.000065   0.000321   0.000000  -0.000022
    13  C    0.000000   0.000000   0.000003  -0.000041   0.000000  -0.000009
    14  C    0.000000   0.000000   0.000000  -0.000001   0.000000  -0.000001
    15  C    0.000000   0.000000   0.000001  -0.000001   0.000000   0.000001
    16  N    0.000000  -0.000001   0.000013   0.000031   0.000000  -0.000007
    17  C    0.000000   0.000000  -0.000001   0.000083   0.000000   0.000000
    18  H    0.000007   0.000091   0.000102  -0.002694  -0.000001  -0.000012
    19  H    0.000001   0.000001   0.000003   0.000666   0.000001   0.000017
    20  H    0.000000  -0.000001  -0.000005   0.000103   0.000000  -0.000001
    21  H    0.000000   0.000000  -0.000001   0.000002   0.000000   0.000114
    22  H    0.000000   0.000000   0.000000   0.000000   0.000000  -0.000002
    23  H    0.000000   0.000000   0.000000   0.000000   0.000000   0.000000
    24  H    0.000000   0.000000   0.000000   0.000000   0.000000   0.000000
    25  H    0.000000   0.000000   0.000000   0.000003   0.000000   0.000011
    26  H    0.000000   0.000000   0.000000   0.000000   0.000000   0.000000
    27  H    0.000000   0.000000   0.000000  -0.000007   0.000000   0.000000
    28  H    0.000000   0.000000   0.000000  -0.000003   0.000000   0.000000
    29  H    0.000000   0.000000  -0.000002   0.000051   0.000000   0.000000
    30  H   -0.028690  -0.004997  -0.000096  -0.000297  -0.004950  -0.000305
    31  H    0.568034  -0.005011   0.002406  -0.000107  -0.005049  -0.000101
    32  H   -0.005011   0.572911  -0.004769  -0.005088  -0.000300   0.000107
    33  H    0.002406  -0.004769   0.560810  -0.030003  -0.000175  -0.000053
    34  H   -0.000107  -0.005088  -0.030003   0.564604   0.000099  -0.000291
    35  H   -0.005049  -0.000300  -0.000175   0.000099   0.572776  -0.005139
    36  H   -0.000101   0.000107  -0.000053  -0.000291  -0.005139   0.567656
    37  H    0.002440  -0.000156   0.002242  -0.000073  -0.004892  -0.028861
    38  H   -0.000306  -0.005054  -0.000069   0.001853   0.000103  -0.000005
    39  H   -0.000095  -0.004736  -0.000314  -0.000149  -0.000187   0.000000
    40  H    0.000095  -0.000256   0.000103  -0.000133  -0.000252  -0.000124
    41  H    0.000001   0.000123  -0.000274  -0.000329  -0.000304   0.002217
    42  H   -0.000126  -0.000154  -0.000003   0.000001  -0.004822  -0.000135
    43  H   -0.000310   0.000108   0.000000  -0.000004  -0.005159   0.002367
    44  H   -0.000172  -0.000273  -0.004893  -0.005278  -0.000291  -0.005152
             37         38         39         40         41         42
     1  C    0.006555   0.006609  -0.003514  -0.037769  -0.005068   0.442493
     2  C   -0.039062  -0.001167  -0.000032   0.005752  -0.000818  -0.039687
     3  C   -0.004097   0.006707  -0.003960  -0.001000   0.000011  -0.004142
     4  C    0.000125  -0.042133  -0.038860   0.006161  -0.001275   0.000099
     5  C    0.000040   0.439202   0.438341  -0.031029   0.005854  -0.003314
     6  C   -0.001141  -0.036842  -0.038374   0.431400  -0.037756  -0.043383
     7  C    0.442112  -0.000072  -0.000049  -0.000894  -0.006656   0.006723
     8  C   -0.042468   0.000921  -0.000844   0.005831  -0.038326  -0.000993
     9  C   -0.003395  -0.003794   0.006532  -0.000749   0.006465   0.000002
    10  C    0.007311  -0.004364   0.005976  -0.026972   0.426914   0.006892
    11  C   -0.000269  -0.001460  -0.000136  -0.008698  -0.019486  -0.000264
    12  C    0.000002   0.000492   0.000017   0.000685  -0.003643   0.000012
    13  C    0.000005  -0.000026   0.000000  -0.000065  -0.001550   0.000000
    14  C    0.000000   0.000030  -0.000001   0.000915   0.000245   0.000000
    15  C    0.000000  -0.000108   0.000012  -0.002333  -0.001818   0.000009
    16  N    0.000006   0.002769  -0.000188   0.019976  -0.000480  -0.000005
    17  C    0.000000  -0.000487   0.000016  -0.000638  -0.000303  -0.000001
    18  H    0.000008  -0.003978   0.000060  -0.000028   0.005514   0.000009
    19  H    0.000013  -0.000036   0.000000  -0.000094   0.000819   0.000000
    20  H   -0.000002   0.000013  -0.000001  -0.000031  -0.000275   0.000000
    21  H   -0.000008   0.000000   0.000000  -0.000021  -0.003399  -0.000001
    22  H    0.000000   0.000001   0.000000   0.000008   0.000154   0.000000
    23  H    0.000000  -0.000001   0.000000  -0.000041   0.000092   0.000000
    24  H    0.000000  -0.000001   0.000000  -0.000022  -0.000143   0.000000
    25  H   -0.000001  -0.000079   0.000007  -0.002938  -0.004393  -0.000010
    26  H    0.000000   0.000002  -0.000001  -0.000418   0.000181  -0.000001
    27  H    0.000000   0.000213  -0.000002   0.000410   0.000020   0.000000
    28  H    0.000000  -0.000090  -0.000001  -0.000353   0.000028   0.000000
    29  H    0.000000  -0.000552   0.000006  -0.000642  -0.000032   0.000000
    30  H   -0.000128  -0.000097   0.002535  -0.000137   0.000002   0.002477
    31  H    0.002440  -0.000306  -0.000095   0.000095   0.000001  -0.000126
    32  H   -0.000156  -0.005054  -0.004736  -0.000256   0.000123  -0.000154
    33  H    0.002242  -0.000069  -0.000314   0.000103  -0.000274  -0.000003
    34  H   -0.000073   0.001853  -0.000149  -0.000133  -0.000329   0.000001
    35  H   -0.004892   0.000103  -0.000187  -0.000252  -0.000304  -0.004822
    36  H   -0.028861  -0.000005   0.000000  -0.000124   0.002217  -0.000135
    37  H    0.566721   0.000002  -0.000002   0.000102   0.000172  -0.000329
    38  H    0.000002   0.565880  -0.029566  -0.003865  -0.000288  -0.000068
    39  H   -0.000002  -0.029566   0.563272  -0.004668  -0.000305   0.002131
    40  H    0.000102  -0.003865  -0.004668   0.538317  -0.002640  -0.004560
    41  H    0.000172  -0.000288  -0.000305  -0.002640   0.564529   0.000114
    42  H   -0.000329  -0.000068   0.002131  -0.004560   0.000114   0.568164
    43  H   -0.000127  -0.000292  -0.000042  -0.004645   0.002070  -0.028895
    44  H   -0.005280  -0.000157   0.000114  -0.000283  -0.003199   0.000113
             43         44
     1  C    0.442007  -0.000856
     2  C   -0.041630   0.006530
     3  C    0.006718  -0.001160
     4  C   -0.001085   0.006558
     5  C    0.006456  -0.000988
     6  C   -0.041185   0.006269
     7  C   -0.004091  -0.038542
     8  C    0.000268   0.441195
     9  C   -0.000022  -0.038810
    10  C   -0.004534  -0.028441
    11  C    0.000248  -0.005998
    12  C    0.000008  -0.004296
    13  C   -0.000002   0.000341
    14  C    0.000015  -0.000039
    15  C   -0.000065   0.000050
    16  N    0.000076  -0.000104
    17  C    0.000001  -0.000015
    18  H   -0.000015   0.000642
    19  H   -0.000002  -0.004163
    20  H    0.000000   0.000256
    21  H    0.000005   0.000597
    22  H    0.000000   0.000003
    23  H   -0.000001   0.000000
    24  H    0.000000   0.000003
    25  H    0.000096  -0.000011
    26  H   -0.000003  -0.000001
    27  H    0.000001   0.000004
    28  H    0.000000   0.000000
    29  H   -0.000002  -0.000002
    30  H   -0.000103   0.000115
    31  H   -0.000310  -0.000172
    32  H    0.000108  -0.000273
    33  H    0.000000  -0.004893
    34  H   -0.000004  -0.005278
    35  H   -0.005159  -0.000291
    36  H    0.002367  -0.005152
    37  H   -0.000127  -0.005280
    38  H   -0.000292  -0.000157
    39  H   -0.000042   0.000114
    40  H   -0.004645  -0.000283
    41  H    0.002070  -0.003199
    42  H   -0.028895   0.000113
    43  H    0.570664  -0.000116
    44  H   -0.000116   0.566112
 Mulliken atomic charges:
              1
     1  C   -0.238584
     2  C   -0.074172
     3  C   -0.227104
     4  C   -0.071043
     5  C   -0.242842
     6  C   -0.062764
     7  C   -0.229176
     8  C   -0.102477
     9  C   -0.239213
    10  C   -0.135929
    11  C   -0.012799
    12  C   -0.229972
    13  C   -0.200471
    14  C   -0.200626
    15  C   -0.114526
    16  N   -0.251449
    17  C   -0.202524
    18  H    0.119340
    19  H    0.119134
    20  H    0.106986
    21  H    0.092196
    22  H    0.114109
    23  H    0.108753
    24  H    0.091643
    25  H    0.095533
    26  H    0.108134
    27  H    0.065704
    28  H    0.095587
    29  H    0.092811
    30  H    0.102846
    31  H    0.102394
    32  H    0.107066
    33  H    0.108447
    34  H    0.108905
    35  H    0.107192
    36  H    0.103012
    37  H    0.102437
    38  H    0.110159
    39  H    0.107010
    40  H    0.126541
    41  H    0.117233
    42  H    0.101655
    43  H    0.101223
    44  H    0.119619
 Sum of Mulliken atomic charges =   0.00000
 Mulliken charges with hydrogens summed into heavy atoms:
              1
     1  C   -0.035706
     2  C    0.033021
     3  C   -0.021864
     4  C    0.036023
     5  C   -0.025673
     6  C    0.063778
     7  C   -0.023727
     8  C    0.017142
     9  C   -0.021861
    10  C   -0.018696
    11  C    0.106541
    12  C   -0.003852
    13  C    0.005835
    14  C   -0.000231
    15  C    0.089141
    16  N   -0.251449
    17  C    0.051578
 Sum of Mulliken charges with hydrogens summed into heavy atoms =   0.00000
 Electronic spatial extent (au):  <R**2>=           4083.9411
 Charge=              0.0000 electrons
 Dipole moment (field-independent basis, Debye):
    X=             -0.6569    Y=             -0.3670    Z=             -0.3195  Tot=              0.8175
 Quadrupole moment (field-independent basis, Debye-Ang):
   XX=           -107.3865   YY=           -109.4234   ZZ=           -108.4504
   XY=             -0.3399   XZ=             -0.1983   YZ=             -0.9198
 Traceless Quadrupole moment (field-independent basis, Debye-Ang):
   XX=              1.0336   YY=             -1.0033   ZZ=             -0.0303
   XY=             -0.3399   XZ=             -0.1983   YZ=             -0.9198
 Octapole moment (field-independent basis, Debye-Ang**2):
  XXX=            -15.8281  YYY=              4.0669  ZZZ=              1.4626  XYY=             -3.0441
  XXY=              4.5312  XXZ=              1.1626  XZZ=             -4.8791  YZZ=              0.8520
  YYZ=             -0.9940  XYZ=              1.7905
 Hexadecapole moment (field-independent basis, Debye-Ang**3):
 XXXX=          -3862.3830 YYYY=          -1066.4980 ZZZZ=           -830.5838 XXXY=            -22.9118
 XXXZ=             -6.4056 YYYX=             -7.9732 YYYZ=              3.1155 ZZZX=             -7.3325
 ZZZY=             -5.2836 XXYY=           -808.8816 XXZZ=           -772.0291 YYZZ=           -306.5537
 XXYZ=             10.1890 YYXZ=             -1.3576 ZZXY=             -2.1425
 N-N= 1.381992623261D+03 E-N=-4.338407237533D+03  KE= 6.750630438121D+02
 1\1\GINC-ROCK\SP\RMP2-FC\CC-pVTZ\C16H27N1\STYLIANAKIS\19-Mar-2016\0\\#
  mp2/cc-pVTZ\\2_2_Ad_N_Me_piperidine_ax_ax_single_point\\0,1\C\C,1,1.5
 42516\C,2,1.544135,1,109.372\C,3,1.543875,2,109.666,1,-59.621,0\C,4,1.
 543204,3,109.291,2,59.635,0\C,5,1.545453,4,109.931,3,-60.141,0\C,2,1.5
 42762,3,109.189,4,59.706,0\C,7,1.546221,2,110.059,3,-60.113,0\C,8,1.54
 6054,7,108.745,2,60.108,0\C,6,1.55468,5,111.039,4,-59.896,0\C,10,1.556
 594,8,114.404,9,68.889,0\C,11,1.552525,10,113.683,8,60.448,0\C,12,1.53
 9005,11,112.584,10,72.766,0\C,13,1.537257,12,110.548,11,53.359,0\C,14,
 1.540315,13,110.301,12,-51.957,0\N,15,1.468844,14,114.415,13,53.321,0\
 C,16,1.458807,11,113.821,12,-78.672,0\H,11,1.09528,12,107.463,13,-168.
 143,0\H,12,1.095053,11,110.763,16,-177.481,0\H,12,1.098435,11,108.178,
 16,66.856,0\H,13,1.098536,12,110.113,11,-67.678,0\H,13,1.096938,12,109
 .91,11,175.638,0\H,14,1.097675,13,110.868,12,-173.576,0\H,14,1.098516,
 13,109.466,12,69.08,0\H,15,1.098309,14,108.895,13,-67.967,0\H,15,1.096
 273,14,110.673,13,175.477,0\H,17,1.10533,16,115.254,11,65.586,0\H,17,1
 .095681,16,109.15,11,-173.286,0\H,17,1.095153,16,109.375,11,-55.781,0\
 H,3,1.098712,4,109.97,9,178.946,0\H,3,1.098753,4,110.099,9,61.414,0\H,
 4,1.09819,3,109.573,2,179.965,0\H,9,1.098738,4,110.025,3,-60.231,0\H,9
 ,1.097494,4,110.174,3,-177.218,0\H,2,1.098163,3,109.646,4,179.838,0\H,
 7,1.098531,2,110.132,3,178.515,0\H,7,1.098691,2,110.065,3,60.952,0\H,5
 ,1.096978,4,110.37,3,177.395,0\H,5,1.098619,4,109.959,3,60.376,0\H,6,1
 .094031,5,109.288,4,-179.769,0\H,10,1.09923,11,107.491,12,-57.596,0\H,
 1,1.098764,2,110.06,3,-61.095,0\H,1,1.098825,2,110.063,3,-178.495,0\H,
 8,1.09633,9,109.377,4,-178.31,0\\Version=EM64L-G09RevA.01\State=1-A\HF
 =-676.2793891\MP2=-679.2325475\RMSD=5.813e-09\PG=C01 [X(C16H27N1)]\\@


 UNLESS WE CHANGE DIRECTIONS, WE WILL WIND UP WHERE WE ARE HEADED.
     -- CONFUCIUS
 Job cpu time:  2 days  1 hours 20 minutes 45.8 seconds.
 File lengths (MBytes):  RWF=    422 Int=      0 D2E=      0 Chk=     34 Scr=      1
 Normal termination of Gaussian 09 at Sat Mar 19 13:54:01 2016.
