 Entering Gaussian System, Link 0=g09
 Input=3_methylpiperidine_ax.gjf
 Output=3_methylpiperidine_ax.out
 Initial command:
 /usr/local/g09/l1.exe /home/scratch/stylianakis/Gau-32613.inp -scrdir=/home/scratch/stylianakis/
 Entering Link 1 = /usr/local/g09/l1.exe PID=     32614.
  
 Copyright (c) 1988,1990,1992,1993,1995,1998,2003,2009, Gaussian, Inc.
                  All Rights Reserved.
  
 This is part of the Gaussian(R) 09 program.  It is based on
 the Gaussian(R) 03 system (copyright 2003, Gaussian, Inc.),
 the Gaussian(R) 98 system (copyright 1998, Gaussian, Inc.),
 the Gaussian(R) 94 system (copyright 1995, Gaussian, Inc.),
 the Gaussian 92(TM) system (copyright 1992, Gaussian, Inc.),
 the Gaussian 90(TM) system (copyright 1990, Gaussian, Inc.),
 the Gaussian 88(TM) system (copyright 1988, Gaussian, Inc.),
 the Gaussian 86(TM) system (copyright 1986, Carnegie Mellon
 University), and the Gaussian 82(TM) system (copyright 1983,
 Carnegie Mellon University). Gaussian is a federally registered
 trademark of Gaussian, Inc.
  
 This software contains proprietary and confidential information,
 including trade secrets, belonging to Gaussian, Inc.
  
 This software is provided under written license and may be
 used, copied, transmitted, or stored only in accord with that
 written license.
  
 The following legend is applicable only to US Government
 contracts under FAR:
  
                    RESTRICTED RIGHTS LEGEND
  
 Use, reproduction and disclosure by the US Government is
 subject to restrictions as set forth in subparagraphs (a)
 and (c) of the Commercial Computer Software - Restricted
 Rights clause in FAR 52.227-19.
  
 Gaussian, Inc.
 340 Quinnipiac St., Bldg. 40, Wallingford CT 06492
  
  
 ---------------------------------------------------------------
 Warning -- This program may not be used in any manner that
 competes with the business of Gaussian, Inc. or will provide
 assistance to any competitor of Gaussian, Inc.  The licensee
 of this program is prohibited from giving any competitor of
 Gaussian, Inc. access to this program.  By using this program,
 the user acknowledges that Gaussian, Inc. is engaged in the
 business of creating and licensing software in the field of
 computational chemistry and represents and warrants to the
 licensee that it is not a competitor of Gaussian, Inc. and that
 it will not use this program in any manner prohibited above.
 ---------------------------------------------------------------
  

 Cite this work as:
 Gaussian 09, Revision A.01,
 M. J. Frisch, G. W. Trucks, H. B. Schlegel, G. E. Scuseria, 
 M. A. Robb, J. R. Cheeseman, G. Scalmani, V. Barone, B. Mennucci, 
 G. A. Petersson, H. Nakatsuji, M. Caricato, X. Li, H. P. Hratchian, 
 A. F. Izmaylov, J. Bloino, G. Zheng, J. L. Sonnenberg, M. Hada, 
 M. Ehara, K. Toyota, R. Fukuda, J. Hasegawa, M. Ishida, T. Nakajima, 
 Y. Honda, O. Kitao, H. Nakai, T. Vreven, J. A. Montgomery, Jr., 
 J. E. Peralta, F. Ogliaro, M. Bearpark, J. J. Heyd, E. Brothers, 
 K. N. Kudin, V. N. Staroverov, R. Kobayashi, J. Normand, 
 K. Raghavachari, A. Rendell, J. C. Burant, S. S. Iyengar, J. Tomasi, 
 M. Cossi, N. Rega, J. M. Millam, M. Klene, J. E. Knox, J. B. Cross, 
 V. Bakken, C. Adamo, J. Jaramillo, R. Gomperts, R. E. Stratmann, 
 O. Yazyev, A. J. Austin, R. Cammi, C. Pomelli, J. W. Ochterski, 
 R. L. Martin, K. Morokuma, V. G. Zakrzewski, G. A. Voth, 
 P. Salvador, J. J. Dannenberg, S. Dapprich, A. D. Daniels, 
 O. Farkas, J. B. Foresman, J. V. Ortiz, J. Cioslowski, 
 and D. J. Fox, Gaussian, Inc., Wallingford CT, 2009.
 
 ******************************************
 Gaussian 09:  EM64L-G09RevA.01  8-May-2009
                19-Mar-2016 
 ******************************************
 %mem=16000Mb
 %nproc=8
 Will use up to    8 processors via shared memory.
 -------------
 # mp2/cc-pVTZ
 -------------
 1/38=1/1;
 2/12=2,17=6,18=5,40=1/2;
 3/5=16,6=1,11=9,16=1,25=1,30=1/1,2,3;
 4//1;
 5/5=2,38=5/2;
 8/10=1/1;
 9/16=-3/6;
 6/7=2,8=2,9=2,10=2/1;
 99/5=1,9=1/99;
 ----------------------------------
 3_methylpiperidine_ax_single_point
 ----------------------------------
 Symbolic Z-matrix:
 Charge =  0 Multiplicity = 1
 c
 c                    1    cc2
 c                    2    cc3      1    ccc3
 n                    3    nc4      2    ncc4     1    dih4     0
 c                    4    cn5      3    cnc5     2    dih5     0
 c                    5    cc6      4    ccn6     3    dih6     0
 c                    2    cc7      3    ccc7     4    dih7     0
 h                    4    hn8      3    hnc8     2    dih8     0
 h                    3    hc9      4    hcn9     5    dih9     0
 h                    5    hc10     4    hcn10    3    dih10    0
 h                    5    hc11     4    hcn11    3    dih11    0
 h                    2    hc12     3    hcc12    4    dih12    0
 h                    6    hc13     5    hcc13    4    dih13    0
 h                    6    hc14     5    hcc14    4    dih14    0
 h                    1    hc15     2    hcc15    3    dih15    0
 h                    1    hc16     2    hcc16    3    dih16    0
 h                    3    hc17     4    hcn17    5    dih17    0
 h                    7    hc18     2    hcc18    3    dih18    0
 h                    7    hc19     2    hcc19    3    dih19    0
 h                    7    hc20     2    hcc20    3    dih20    0
       Variables:
  cc2                   1.54595                  
  cc3                   1.54137                  
  ccc3                108.952                    
  nc4                   1.46591                  
  ncc4                110.455                    
  dih4                 55.764                    
  cn5                   1.46545                  
  cnc5                112.269                    
  dih5                -63.045                    
  cc6                   1.53308                  
  ccn6                109.418                    
  dih6                 62.123                    
  cc7                   1.53676                  
  ccc7                112.027                    
  dih7                -69.856                    
  hn8                   1.01532                  
  hnc8                110.452                    
  dih8                172.944                    
  hc9                   1.09616                  
  hcn9                108.442                    
  dih9                176.081                    
  hc10                  1.10953                  
  hcn10               111.969                    
  dih10               -58.66                     
  hc11                  1.09559                  
  hcn11               108.614                    
  dih11              -177.083                    
  hc12                  1.09918                  
  hcc12               107.138                    
  dih12               172.095                    
  hc13                  1.097                    
  hcc13               109.765                    
  dih13              -177.203                    
  hc14                  1.09648                  
  hcc14               108.797                    
  dih14                65.863                    
  hc15                  1.09966                  
  hcc15               108.59                     
  dih15                68.632                    
  hc16                  1.09735                  
  hcc16               110.112                    
  dih16              -175.099                    
  hc17                  1.10872                  
  hcn17               111.823                    
  dih17                57.885                    
  hc18                  1.09633                  
  hcc18               110.903                    
  dih18               178.986                    
  hc19                  1.09645                  
  hcc19               110.709                    
  dih19               -61.562                    
  hc20                  1.09338                  
  hcc20               111.527                    
  dih20                58.071                    
 
                          Input orientation:                          
 ---------------------------------------------------------------------
 Center     Atomic      Atomic             Coordinates (Angstroms)
 Number     Number       Type             X           Y           Z
 ---------------------------------------------------------------------
      1          6           0        0.000000    0.000000    0.000000
      2          6           0        0.000000    0.000000    1.545948
      3          6           0        1.457811    0.000000    2.046547
      4          7           0        2.193296    1.135492    1.482093
      5          6           0        2.291002    1.063179    0.021691
      6          6           0        0.884561    1.113576   -0.586346
      7          6           0       -0.814573    1.158045    2.143476
      8          1           0        3.116267    1.203276    1.899715
      9          1           0        1.482976    0.079359    3.139540
     10          1           0        2.794250    0.133476   -0.315119
     11          1           0        2.893353    1.907738   -0.330740
     12          1           0       -0.457655   -0.941395    1.881397
     13          1           0        0.947801    1.009624   -1.676578
     14          1           0        0.445727    2.097119   -0.380571
     15          1           0        0.379763   -0.970637   -0.350565
     16          1           0       -1.026670    0.088035   -0.377331
     17          1           0        1.923103   -0.968821    1.774261
     18          1           0       -1.842287    1.151168    1.761785
     19          1           0       -0.864627    1.073879    3.235550
     20          1           0       -0.365873    2.127120    1.908877
 ---------------------------------------------------------------------
                    Distance matrix (angstroms):
                    1          2          3          4          5
     1  C    0.000000
     2  C    1.545948   0.000000
     3  C    2.512681   1.541367   0.000000
     4  N    2.880362   2.470621   1.465909   0.000000
     5  C    2.525769   2.949983   2.434050   1.465452   0.000000
     6  C    1.538278   2.563040   2.915612   2.447796   1.533077
     7  C    2.568869   1.536762   2.552291   3.079806   3.762388
     8  H    3.842904   3.359188   2.054241   1.015322   2.056129
     9  H    3.473072   2.178314   1.096159   2.089761   3.367757
    10  H    2.815129   3.359943   2.716864   2.143631   1.109526
    11  H    3.481429   3.941182   3.369234   2.091126   1.095589
    12  H    2.152981   1.099181   2.140680   3.391231   3.877104
    13  H    2.174530   3.507469   3.891158   3.397690   2.165912
    14  H    2.177479   2.882370   3.363499   2.729146   2.153111
    15  H    1.099660   2.164051   2.801869   3.329161   2.815637
    16  H    1.097351   2.181926   3.472114   3.863004   3.480958
    17  H    2.790151   2.165426   1.108716   2.141612   2.708482
    18  H    2.796980   2.183070   3.506697   4.045294   4.485504
    19  H    3.517041   2.180722   2.821464   3.525521   4.504109
    20  H    2.881373   2.188657   2.805248   2.777556   3.428181
                    6          7          8          9         10
     6  C    0.000000
     7  C    3.215736   0.000000
     8  H    3.342014   3.938650   0.000000
     9  H    3.912791   2.726616   2.338374   0.000000
    10  H    2.163579   4.485313   2.480657   3.695543   0.000000
    11  H    2.175149   4.520232   2.349657   4.168330   1.777097
    12  H    3.480547   2.145629   4.168077   2.528025   4.068774
    13  H    1.097001   4.209608   4.186838   4.934247   2.455724
    14  H    1.096483   2.973387   3.623596   4.187890   3.061983
    15  H    2.157396   3.489695   4.156694   3.807939   2.655196
    16  H    2.179042   2.746703   4.857224   4.320507   3.821696
    17  H    3.314727   3.486366   2.481408   1.776620   2.517829
    18  H    3.598726   1.096327   4.960746   3.755577   5.181381
    19  H    4.203346   1.096455   4.201037   2.551378   5.184495
    20  H    2.969342   1.093377   3.602620   3.020944   4.348236
                   11         12         13         14         15
    11  H    0.000000
    12  H    4.923451   0.000000
    13  H    2.530427   4.294295   0.000000
    14  H    2.455447   3.894248   1.764754   0.000000
    15  H    3.821462   2.384068   2.449981   3.068612   0.000000
    16  H    4.322044   2.546636   2.536908   2.490860   1.760555
    17  H    3.694186   2.383326   4.095577   4.028143   2.626174
    18  H    5.232337   2.512037   4.430233   3.274068   3.728483
    19  H    5.247491   2.461846   5.236222   3.979997   4.311470
    20  H    3.960627   3.070010   3.978696   2.429232   3.906040
                   16         17         18         19         20
    16  H    0.000000
    17  H    3.800981   0.000000
    18  H    2.524144   4.321189   0.000000
    19  H    3.748474   3.752256   1.770247   0.000000
    20  H    3.133890   3.852582   1.775927   1.765823   0.000000
 Stoichiometry    C6H13N
 Framework group  C1[X(C6H13N)]
 Deg. of freedom    54
 Full point group                 C1      NOp   1
 Largest Abelian subgroup         C1      NOp   1
 Largest concise Abelian subgroup C1      NOp   1
                         Standard orientation:                         
 ---------------------------------------------------------------------
 Center     Atomic      Atomic             Coordinates (Angstroms)
 Number     Number       Type             X           Y           Z
 ---------------------------------------------------------------------
      1          6           0        0.224739    1.269133    0.625569
      2          6           0        1.114454    0.011901    0.492407
      3          6           0        0.227591   -1.243484    0.607705
      4          7           0       -0.847306   -1.204596   -0.388274
      5          6           0       -1.756522   -0.074286   -0.180248
      6          6           0       -0.979874    1.238928   -0.330620
      7          6           0        1.954485    0.007924   -0.794438
      8          1           0       -1.360242   -2.080819   -0.391076
      9          1           0        0.825350   -2.146449    0.437701
     10          1           0       -2.227210   -0.099609    0.824173
     11          1           0       -2.561802   -0.132358   -0.920834
     12          1           0        1.806749   -0.001078    1.346080
     13          1           0       -1.643891    2.088037   -0.126891
     14          1           0       -0.643973    1.333704   -1.370073
     15          1           0       -0.148669    1.326567    1.658293
     16          1           0        0.822861    2.174003    0.459319
     17          1           0       -0.169953   -1.299464    1.641183
     18          1           0        2.564085    0.916295   -0.866430
     19          1           0        2.634988   -0.851650   -0.810591
     20          1           0        1.323615   -0.055710   -1.685184
 ---------------------------------------------------------------------
 Rotational constants (GHZ):      3.5918646      2.5746343      1.9509786
 Standard basis: CC-pVTZ (5D, 7F)
 There are   392 symmetry adapted basis functions of A   symmetry.
 Integral buffers will be    131072 words long.
 Raffenetti 1 integral format.
 Two-electron integral symmetry is turned on.
   392 basis functions,   585 primitive gaussians,   440 cartesian basis functions
    28 alpha electrons       28 beta electrons
       nuclear repulsion energy       335.0804921723 Hartrees.
 NAtoms=   20 NActive=   20 NUniq=   20 SFac= 7.50D-01 NAtFMM=   80 NAOKFM=F Big=F
 One-electron integrals computed using PRISM.
 NBasis=   392 RedAO= T  NBF=   392
 NBsUse=   392 1.00D-06 NBFU=   392
 Harris functional with IExCor=  205 diagonalized for initial guess.
 ExpMin= 1.03D-01 ExpMax= 1.14D+04 ExpMxC= 3.89D+02 IAcc=1 IRadAn=         1 AccDes= 0.00D+00
 HarFok:  IExCor=  205 AccDes= 0.00D+00 IRadAn=         1 IDoV= 1
 ScaDFX=  1.000000  1.000000  1.000000  1.000000
 FoFCou: FMM=F IPFlag=           0 FMFlag=      100000 FMFlg1=           0
         NFxFlg=           0 DoJE=T BraDBF=F KetDBF=T FulRan=T
         Omega=  0.000000  0.000000  1.000000  0.000000  0.000000 ICntrl=     500 IOpCl=  0
         NMat0=    1 NMatS0=    1 NMatT0=    0 NMatD0=    1 NMtDS0=    0 NMtDT0=    0
         I1Cent=           4 NGrid=           0.
 Petite list used in FoFCou.
 Initial guess orbital symmetries:
       Occupied  (A) (A) (A) (A) (A) (A) (A) (A) (A) (A) (A) (A)
                 (A) (A) (A) (A) (A) (A) (A) (A) (A) (A) (A) (A)
                 (A) (A) (A) (A)
       Virtual   (A) (A) (A) (A) (A) (A) (A) (A) (A) (A) (A) (A)
                 (A) (A) (A) (A) (A) (A) (A) (A) (A) (A) (A) (A)
                 (A) (A) (A) (A) (A) (A) (A) (A) (A) (A) (A) (A)
                 (A) (A) (A) (A) (A) (A) (A) (A) (A) (A) (A) (A)
                 (A) (A) (A) (A) (A) (A) (A) (A) (A) (A) (A) (A)
                 (A) (A) (A) (A) (A) (A) (A) (A) (A) (A) (A) (A)
                 (A) (A) (A) (A) (A) (A) (A) (A) (A) (A) (A) (A)
                 (A) (A) (A) (A) (A) (A) (A) (A) (A) (A) (A) (A)
                 (A) (A) (A) (A) (A) (A) (A) (A) (A) (A) (A) (A)
                 (A) (A) (A) (A) (A) (A) (A) (A) (A) (A) (A) (A)
                 (A) (A) (A) (A) (A) (A) (A) (A) (A) (A) (A) (A)
                 (A) (A) (A) (A) (A) (A) (A) (A) (A) (A) (A) (A)
                 (A) (A) (A) (A) (A) (A) (A) (A) (A) (A) (A) (A)
                 (A) (A) (A) (A) (A) (A) (A) (A) (A) (A) (A) (A)
                 (A) (A) (A) (A) (A) (A) (A) (A) (A) (A) (A) (A)
                 (A) (A) (A) (A) (A) (A) (A) (A) (A) (A) (A) (A)
                 (A) (A) (A) (A) (A) (A) (A) (A) (A) (A) (A) (A)
                 (A) (A) (A) (A) (A) (A) (A) (A) (A) (A) (A) (A)
                 (A) (A) (A) (A) (A) (A) (A) (A) (A) (A) (A) (A)
                 (A) (A) (A) (A) (A) (A) (A) (A) (A) (A) (A) (A)
                 (A) (A) (A) (A) (A) (A) (A) (A) (A) (A) (A) (A)
                 (A) (A) (A) (A) (A) (A) (A) (A) (A) (A) (A) (A)
                 (A) (A) (A) (A) (A) (A) (A) (A) (A) (A) (A) (A)
                 (A) (A) (A) (A) (A) (A) (A) (A) (A) (A) (A) (A)
                 (A) (A) (A) (A) (A) (A) (A) (A) (A) (A) (A) (A)
                 (A) (A) (A) (A) (A) (A) (A) (A) (A) (A) (A) (A)
                 (A) (A) (A) (A) (A) (A) (A) (A) (A) (A) (A) (A)
                 (A) (A) (A) (A) (A) (A) (A) (A) (A) (A) (A) (A)
                 (A) (A) (A) (A) (A) (A) (A) (A) (A) (A) (A) (A)
                 (A) (A) (A) (A) (A) (A) (A) (A) (A) (A) (A) (A)
                 (A) (A) (A) (A)
 The electronic state of the initial guess is 1-A.
 Requested convergence on RMS density matrix=1.00D-08 within 128 cycles.
 Requested convergence on MAX density matrix=1.00D-06.
 Requested convergence on             energy=1.00D-06.
 No special actions if energy rises.
 Integral accuracy reduced to 1.0D-05 until final iterations.
 Initial convergence to 1.0D-05 achieved.  Increase integral accuracy.
 SCF Done:  E(RHF) =  -289.321190760     A.U. after   11 cycles
             Convg  =    0.8238D-08             -V/T =  2.0018
 ExpMin= 1.03D-01 ExpMax= 1.14D+04 ExpMxC= 3.89D+02 IAcc=1 IRadAn=         1 AccDes= 0.00D+00
 HarFok:  IExCor=  205 AccDes= 0.00D+00 IRadAn=         1 IDoV=-2
 ScaDFX=  1.000000  1.000000  1.000000  1.000000
 Range of M.O.s used for correlation:     8   392
 NBasis=   392 NAE=    28 NBE=    28 NFC=     7 NFV=     0
 NROrb=    385 NOA=    21 NOB=    21 NVA=   364 NVB=   364

 **** Warning!!: The largest alpha MO coefficient is  0.11941037D+02

 Fully direct method using O(OVN) memory.
 JobTyp=1 Pass  1:  I=   1 to  21 NPSUse=  8 ParTrn=T ParDer=T DoDerP=F.
 Spin components of T(2) and E(2):
     alpha-alpha T2 =       0.4760815519D-01 E2=     -0.1444493527D+00
     alpha-beta  T2 =       0.2886081340D+00 E2=     -0.9653060723D+00
     beta-beta   T2 =       0.4760815519D-01 E2=     -0.1444493527D+00
 ANorm=    0.1176360678D+01
 E2 =    -0.1254204778D+01 EUMP2 =    -0.29057539553822D+03

 **********************************************************************

            Population analysis using the SCF density.

 **********************************************************************

 Orbital symmetries:
       Occupied  (A) (A) (A) (A) (A) (A) (A) (A) (A) (A) (A) (A)
                 (A) (A) (A) (A) (A) (A) (A) (A) (A) (A) (A) (A)
                 (A) (A) (A) (A)
       Virtual   (A) (A) (A) (A) (A) (A) (A) (A) (A) (A) (A) (A)
                 (A) (A) (A) (A) (A) (A) (A) (A) (A) (A) (A) (A)
                 (A) (A) (A) (A) (A) (A) (A) (A) (A) (A) (A) (A)
                 (A) (A) (A) (A) (A) (A) (A) (A) (A) (A) (A) (A)
                 (A) (A) (A) (A) (A) (A) (A) (A) (A) (A) (A) (A)
                 (A) (A) (A) (A) (A) (A) (A) (A) (A) (A) (A) (A)
                 (A) (A) (A) (A) (A) (A) (A) (A) (A) (A) (A) (A)
                 (A) (A) (A) (A) (A) (A) (A) (A) (A) (A) (A) (A)
                 (A) (A) (A) (A) (A) (A) (A) (A) (A) (A) (A) (A)
                 (A) (A) (A) (A) (A) (A) (A) (A) (A) (A) (A) (A)
                 (A) (A) (A) (A) (A) (A) (A) (A) (A) (A) (A) (A)
                 (A) (A) (A) (A) (A) (A) (A) (A) (A) (A) (A) (A)
                 (A) (A) (A) (A) (A) (A) (A) (A) (A) (A) (A) (A)
                 (A) (A) (A) (A) (A) (A) (A) (A) (A) (A) (A) (A)
                 (A) (A) (A) (A) (A) (A) (A) (A) (A) (A) (A) (A)
                 (A) (A) (A) (A) (A) (A) (A) (A) (A) (A) (A) (A)
                 (A) (A) (A) (A) (A) (A) (A) (A) (A) (A) (A) (A)
                 (A) (A) (A) (A) (A) (A) (A) (A) (A) (A) (A) (A)
                 (A) (A) (A) (A) (A) (A) (A) (A) (A) (A) (A) (A)
                 (A) (A) (A) (A) (A) (A) (A) (A) (A) (A) (A) (A)
                 (A) (A) (A) (A) (A) (A) (A) (A) (A) (A) (A) (A)
                 (A) (A) (A) (A) (A) (A) (A) (A) (A) (A) (A) (A)
                 (A) (A) (A) (A) (A) (A) (A) (A) (A) (A) (A) (A)
                 (A) (A) (A) (A) (A) (A) (A) (A) (A) (A) (A) (A)
                 (A) (A) (A) (A) (A) (A) (A) (A) (A) (A) (A) (A)
                 (A) (A) (A) (A) (A) (A) (A) (A) (A) (A) (A) (A)
                 (A) (A) (A) (A) (A) (A) (A) (A) (A) (A) (A) (A)
                 (A) (A) (A) (A) (A) (A) (A) (A) (A) (A) (A) (A)
                 (A) (A) (A) (A) (A) (A) (A) (A) (A) (A) (A) (A)
                 (A) (A) (A) (A) (A) (A) (A) (A) (A) (A) (A) (A)
                 (A) (A) (A) (A)
 The electronic state is 1-A.
 Alpha  occ. eigenvalues --  -15.53356 -11.24273 -11.24149 -11.22082 -11.21457
 Alpha  occ. eigenvalues --  -11.21332 -11.20263  -1.20354  -1.06372  -1.01852
 Alpha  occ. eigenvalues --   -0.91976  -0.85832  -0.82021  -0.72397  -0.68216
 Alpha  occ. eigenvalues --   -0.61944  -0.60338  -0.58940  -0.57124  -0.55313
 Alpha  occ. eigenvalues --   -0.53890  -0.51069  -0.49789  -0.47431  -0.45571
 Alpha  occ. eigenvalues --   -0.43395  -0.43201  -0.36084
 Alpha virt. eigenvalues --    0.13526   0.16144   0.16576   0.16960   0.19564
 Alpha virt. eigenvalues --    0.20264   0.20475   0.21868   0.22975   0.23456
 Alpha virt. eigenvalues --    0.25259   0.26463   0.27942   0.30576   0.31355
 Alpha virt. eigenvalues --    0.33867   0.36583   0.37382   0.37453   0.39131
 Alpha virt. eigenvalues --    0.40841   0.42288   0.43110   0.46107   0.47197
 Alpha virt. eigenvalues --    0.48752   0.50173   0.51776   0.52582   0.56471
 Alpha virt. eigenvalues --    0.57242   0.58479   0.58864   0.59843   0.60829
 Alpha virt. eigenvalues --    0.62295   0.63171   0.64020   0.64403   0.64746
 Alpha virt. eigenvalues --    0.65319   0.66154   0.67456   0.68109   0.68854
 Alpha virt. eigenvalues --    0.69668   0.70219   0.71132   0.71967   0.73384
 Alpha virt. eigenvalues --    0.75620   0.77571   0.79750   0.81481   0.82636
 Alpha virt. eigenvalues --    0.85571   0.89773   0.92274   0.94890   0.96703
 Alpha virt. eigenvalues --    0.98036   0.99978   1.00895   1.02223   1.05892
 Alpha virt. eigenvalues --    1.07383   1.07662   1.08358   1.13081   1.13394
 Alpha virt. eigenvalues --    1.14715   1.15809   1.17844   1.18504   1.19738
 Alpha virt. eigenvalues --    1.21502   1.22426   1.23463   1.24096   1.26690
 Alpha virt. eigenvalues --    1.28789   1.31419   1.31701   1.32550   1.33452
 Alpha virt. eigenvalues --    1.34417   1.35490   1.37311   1.37820   1.39331
 Alpha virt. eigenvalues --    1.39458   1.41735   1.43890   1.44372   1.45978
 Alpha virt. eigenvalues --    1.46594   1.47618   1.48803   1.50766   1.51615
 Alpha virt. eigenvalues --    1.51665   1.53561   1.55134   1.55633   1.57404
 Alpha virt. eigenvalues --    1.59729   1.60898   1.62068   1.62757   1.65460
 Alpha virt. eigenvalues --    1.66160   1.67653   1.69417   1.70451   1.71244
 Alpha virt. eigenvalues --    1.73323   1.74501   1.76787   1.77538   1.78010
 Alpha virt. eigenvalues --    1.79551   1.81885   1.84206   1.87907   1.89280
 Alpha virt. eigenvalues --    1.92920   1.94458   1.97174   2.01232   2.05904
 Alpha virt. eigenvalues --    2.07315   2.11161   2.15477   2.23688   2.28599
 Alpha virt. eigenvalues --    2.55196   2.61449   2.63898   2.66372   2.68238
 Alpha virt. eigenvalues --    2.69016   2.70748   2.74877   2.77517   2.79545
 Alpha virt. eigenvalues --    2.81216   2.82313   2.84098   2.86675   2.87505
 Alpha virt. eigenvalues --    2.90170   2.90820   2.92762   2.94425   2.96717
 Alpha virt. eigenvalues --    2.97415   2.98969   2.99692   3.01093   3.02453
 Alpha virt. eigenvalues --    3.02585   3.05014   3.05720   3.07069   3.09964
 Alpha virt. eigenvalues --    3.11341   3.12955   3.15791   3.15885   3.17324
 Alpha virt. eigenvalues --    3.19122   3.21986   3.23186   3.24756   3.26219
 Alpha virt. eigenvalues --    3.26600   3.28515   3.31081   3.31738   3.32641
 Alpha virt. eigenvalues --    3.36827   3.37262   3.38966   3.40652   3.41414
 Alpha virt. eigenvalues --    3.42347   3.42985   3.43481   3.44867   3.46182
 Alpha virt. eigenvalues --    3.47300   3.47939   3.48303   3.49036   3.50465
 Alpha virt. eigenvalues --    3.51241   3.53419   3.54467   3.57405   3.57853
 Alpha virt. eigenvalues --    3.60275   3.61756   3.62614   3.63359   3.63880
 Alpha virt. eigenvalues --    3.66524   3.69353   3.70855   3.71384   3.72191
 Alpha virt. eigenvalues --    3.74543   3.75422   3.78618   3.79621   3.81307
 Alpha virt. eigenvalues --    3.82218   3.82897   3.83476   3.84155   3.86202
 Alpha virt. eigenvalues --    3.88294   3.89471   3.90397   3.91871   3.93059
 Alpha virt. eigenvalues --    3.96296   3.97230   3.99045   4.00811   4.01558
 Alpha virt. eigenvalues --    4.02271   4.04556   4.05710   4.06552   4.07376
 Alpha virt. eigenvalues --    4.08517   4.09114   4.11722   4.13890   4.14055
 Alpha virt. eigenvalues --    4.16438   4.16653   4.17906   4.18788   4.20676
 Alpha virt. eigenvalues --    4.22612   4.24316   4.26431   4.28800   4.30596
 Alpha virt. eigenvalues --    4.31136   4.32399   4.32740   4.34292   4.34707
 Alpha virt. eigenvalues --    4.38129   4.38422   4.40778   4.41066   4.42863
 Alpha virt. eigenvalues --    4.43570   4.44952   4.45861   4.46763   4.48191
 Alpha virt. eigenvalues --    4.49801   4.51126   4.51899   4.52945   4.54806
 Alpha virt. eigenvalues --    4.55935   4.58025   4.58649   4.59400   4.61464
 Alpha virt. eigenvalues --    4.64103   4.64698   4.65852   4.67667   4.69441
 Alpha virt. eigenvalues --    4.70708   4.72958   4.75953   4.76591   4.78346
 Alpha virt. eigenvalues --    4.79795   4.82092   4.82916   4.84896   4.85757
 Alpha virt. eigenvalues --    4.88846   4.92593   4.94683   5.00031   5.01380
 Alpha virt. eigenvalues --    5.07728   5.08598   5.10572   5.12794   5.14717
 Alpha virt. eigenvalues --    5.16026   5.18969   5.21010   5.23121   5.23351
 Alpha virt. eigenvalues --    5.25008   5.27933   5.29653   5.32930   5.34133
 Alpha virt. eigenvalues --    5.36811   5.37604   5.39220   5.43971   5.45260
 Alpha virt. eigenvalues --    5.46061   5.49658   5.50883   5.51703   5.54745
 Alpha virt. eigenvalues --    5.58250   5.60366   5.60620   5.61900   5.63962
 Alpha virt. eigenvalues --    5.65734   5.67228   5.70552   5.72150   5.75015
 Alpha virt. eigenvalues --    5.75688   5.77783   5.78807   5.80326   5.82482
 Alpha virt. eigenvalues --    5.84882   5.87978   5.89528   5.90084   5.94776
 Alpha virt. eigenvalues --    5.96149   6.01537   6.08635   6.10698   6.19288
 Alpha virt. eigenvalues --    6.22947   6.25203   6.29846   6.32178   6.33858
 Alpha virt. eigenvalues --    6.39447   6.44208   6.44994   6.46554   6.49526
 Alpha virt. eigenvalues --    6.59397   7.04831  12.02691  12.54800  13.02532
 Alpha virt. eigenvalues --   13.44810  13.46780  13.60725  14.23861
          Condensed to atoms (all electrons):
              1          2          3          4          5          6
     1  C    4.892455   0.355019  -0.042595  -0.000698  -0.044880   0.346749
     2  C    0.355019   4.956824   0.343486  -0.045314  -0.004239  -0.030976
     3  C   -0.042595   0.343486   4.745899   0.319022  -0.041657  -0.009362
     4  N   -0.000698  -0.045314   0.319022   6.508574   0.337368  -0.042484
     5  C   -0.044880  -0.004239  -0.041657   0.337368   4.713613   0.345207
     6  C    0.346749  -0.030976  -0.009362  -0.042484   0.345207   4.892531
     7  C   -0.050343   0.330897  -0.047065  -0.004062   0.000347  -0.000619
     8  H   -0.000627   0.008823  -0.029348   0.371957  -0.031056   0.008532
     9  H    0.006892  -0.027482   0.427865  -0.029098   0.006237  -0.000940
    10  H   -0.010143  -0.001301  -0.002965  -0.059464   0.439552  -0.063069
    11  H    0.006588  -0.000998   0.006341  -0.028563   0.429680  -0.028218
    12  H   -0.040605   0.443204  -0.036410   0.004461  -0.000965   0.006915
    13  H   -0.035910   0.005739  -0.000440   0.004491  -0.034583   0.433391
    14  H   -0.035103  -0.001930   0.001121  -0.000531  -0.032679   0.418870
    15  H    0.432046  -0.042813  -0.001474  -0.000478  -0.001165  -0.039826
    16  H    0.433406  -0.034919   0.005917  -0.000756   0.005936  -0.037489
    17  H   -0.011414  -0.063225   0.455402  -0.053917  -0.003789  -0.001654
    18  H   -0.004839  -0.040721   0.006743   0.000222   0.000043  -0.000455
    19  H    0.006599  -0.035883  -0.004544  -0.000395  -0.000012  -0.000238
    20  H   -0.003319  -0.032652  -0.004007   0.014295  -0.001138  -0.000028
              7          8          9         10         11         12
     1  C   -0.050343  -0.000627   0.006892  -0.010143   0.006588  -0.040605
     2  C    0.330897   0.008823  -0.027482  -0.001301  -0.000998   0.443204
     3  C   -0.047065  -0.029348   0.427865  -0.002965   0.006341  -0.036410
     4  N   -0.004062   0.371957  -0.029098  -0.059464  -0.028563   0.004461
     5  C    0.000347  -0.031056   0.006237   0.439552   0.429680  -0.000965
     6  C   -0.000619   0.008532  -0.000940  -0.063069  -0.028218   0.006915
     7  C    4.855654  -0.000429  -0.007880   0.000069   0.000025  -0.035541
     8  H   -0.000429   0.580800  -0.007572  -0.007291  -0.006798  -0.000445
     9  H   -0.007880  -0.007572   0.575692   0.000063  -0.000307  -0.003254
    10  H    0.000069  -0.007291   0.000063   0.666855  -0.042379   0.000032
    11  H    0.000025  -0.006798  -0.000307  -0.042379   0.577687   0.000084
    12  H   -0.035541  -0.000445  -0.003254   0.000032   0.000084   0.575783
    13  H   -0.000185  -0.000471   0.000096  -0.001513  -0.003901  -0.000225
    14  H   -0.001918  -0.000150  -0.000072   0.007801  -0.006644  -0.000241
    15  H    0.007091  -0.000067  -0.000188   0.003318  -0.000149  -0.007962
    16  H   -0.005544   0.000131  -0.000288  -0.000521  -0.000256  -0.003747
    17  H    0.009164  -0.005963  -0.037521   0.011025   0.000011  -0.004388
    18  H    0.422125   0.000034  -0.000175   0.000020  -0.000004  -0.004170
    19  H    0.421932  -0.000011   0.002724  -0.000005  -0.000002  -0.006086
    20  H    0.412387  -0.000752  -0.000265   0.000427  -0.000111   0.006307
             13         14         15         16         17         18
     1  C   -0.035910  -0.035103   0.432046   0.433406  -0.011414  -0.004839
     2  C    0.005739  -0.001930  -0.042813  -0.034919  -0.063225  -0.040721
     3  C   -0.000440   0.001121  -0.001474   0.005917   0.455402   0.006743
     4  N    0.004491  -0.000531  -0.000478  -0.000756  -0.053917   0.000222
     5  C   -0.034583  -0.032679  -0.001165   0.005936  -0.003789   0.000043
     6  C    0.433391   0.418870  -0.039826  -0.037489  -0.001654  -0.000455
     7  C   -0.000185  -0.001918   0.007091  -0.005544   0.009164   0.422125
     8  H   -0.000471  -0.000150  -0.000067   0.000131  -0.005963   0.000034
     9  H    0.000096  -0.000072  -0.000188  -0.000288  -0.037521  -0.000175
    10  H   -0.001513   0.007801   0.003318  -0.000521   0.011025   0.000020
    11  H   -0.003901  -0.006644  -0.000149  -0.000256   0.000011  -0.000004
    12  H   -0.000225  -0.000241  -0.007962  -0.003747  -0.004388  -0.004170
    13  H    0.568924  -0.032098  -0.006281  -0.004860   0.000082  -0.000079
    14  H   -0.032098   0.586191   0.006550  -0.004398   0.000144   0.000593
    15  H   -0.006281   0.006550   0.583585  -0.030388   0.002729   0.000125
    16  H   -0.004860  -0.004398  -0.030388   0.574225  -0.000464   0.001617
    17  H    0.000082   0.000144   0.002729  -0.000464   0.624961  -0.000202
    18  H   -0.000079   0.000593   0.000125   0.001617  -0.000202   0.588058
    19  H    0.000028   0.000063  -0.000275  -0.000040  -0.000188  -0.030475
    20  H    0.000246  -0.002109  -0.000261  -0.000178   0.000758  -0.030530
             19         20
     1  C    0.006599  -0.003319
     2  C   -0.035883  -0.032652
     3  C   -0.004544  -0.004007
     4  N   -0.000395   0.014295
     5  C   -0.000012  -0.001138
     6  C   -0.000238  -0.000028
     7  C    0.421932   0.412387
     8  H   -0.000011  -0.000752
     9  H    0.002724  -0.000265
    10  H   -0.000005   0.000427
    11  H   -0.000002  -0.000111
    12  H   -0.006086   0.006307
    13  H    0.000028   0.000246
    14  H    0.000063  -0.002109
    15  H   -0.000275  -0.000261
    16  H   -0.000040  -0.000178
    17  H   -0.000188   0.000758
    18  H   -0.030475  -0.030530
    19  H    0.582150  -0.030018
    20  H   -0.030018   0.567417
 Mulliken atomic charges:
              1
     1  C   -0.199278
     2  C   -0.081541
     3  C   -0.091930
     4  N   -0.294629
     5  C   -0.081820
     6  C   -0.196836
     7  C   -0.306105
     8  H    0.120701
     9  H    0.095474
    10  H    0.059489
    11  H    0.097912
    12  H    0.107253
    13  H    0.107547
    14  H    0.096540
    15  H    0.095885
    16  H    0.102616
    17  H    0.078448
    18  H    0.092070
    19  H    0.094675
    20  H    0.103531
 Sum of Mulliken atomic charges =   0.00000
 Mulliken charges with hydrogens summed into heavy atoms:
              1
     1  C   -0.000778
     2  C    0.025712
     3  C    0.081992
     4  N   -0.173928
     5  C    0.075580
     6  C    0.007251
     7  C   -0.015829
 Sum of Mulliken charges with hydrogens summed into heavy atoms =   0.00000
 Electronic spatial extent (au):  <R**2>=            770.0867
 Charge=              0.0000 electrons
 Dipole moment (field-independent basis, Debye):
    X=             -0.4966    Y=             -0.2287    Z=              0.7728  Tot=              0.9467
 Quadrupole moment (field-independent basis, Debye-Ang):
   XX=            -44.9713   YY=            -44.3940   ZZ=            -47.7590
   XY=              0.8404   XZ=              0.5130   YZ=             -0.9278
 Traceless Quadrupole moment (field-independent basis, Debye-Ang):
   XX=              0.7368   YY=              1.3141   ZZ=             -2.0509
   XY=              0.8404   XZ=              0.5130   YZ=             -0.9278
 Octapole moment (field-independent basis, Debye-Ang**2):
  XXX=             -6.4257  YYY=            -10.0319  ZZZ=              0.6794  XYY=             -3.2226
  XXY=             -3.7653  XXZ=             -0.8127  XZZ=             -1.4339  YZZ=              0.8093
  YYZ=             -0.1906  XYZ=             -0.6131
 Hexadecapole moment (field-independent basis, Debye-Ang**3):
 XXXX=           -529.8100 YYYY=           -334.9032 ZZZZ=           -184.0363 XXXY=              6.3986
 XXXZ=              9.8206 YYYX=             12.0939 YYYZ=              2.7389 ZZZX=              2.8771
 ZZZY=             -1.2711 XXYY=           -135.9785 XXZZ=           -119.7422 YYZZ=            -94.9200
 XXYZ=              2.2995 YYXZ=              0.5906 ZZXY=              0.4355
 N-N= 3.350804921723D+02 E-N=-1.344000445658D+03  KE= 2.887974613167D+02
 1\1\GINC-ROCK\SP\RMP2-FC\CC-pVTZ\C6H13N1\STYLIANAKIS\19-Mar-2016\0\\# 
 mp2/cc-pVTZ\\3_methylpiperidine_ax_single_point\\0,1\C\C,1,1.545948\C,
 2,1.541367,1,108.952\N,3,1.465909,2,110.455,1,55.764,0\C,4,1.465452,3,
 112.269,2,-63.045,0\C,5,1.533077,4,109.418,3,62.123,0\C,2,1.536762,3,1
 12.027,4,-69.856,0\H,4,1.015322,3,110.452,2,172.944,0\H,3,1.096159,4,1
 08.442,5,176.081,0\H,5,1.109526,4,111.969,3,-58.66,0\H,5,1.095589,4,10
 8.614,3,-177.083,0\H,2,1.099181,3,107.138,4,172.095,0\H,6,1.097001,5,1
 09.765,4,-177.203,0\H,6,1.096483,5,108.797,4,65.863,0\H,1,1.09966,2,10
 8.59,3,68.632,0\H,1,1.097351,2,110.112,3,-175.099,0\H,3,1.108716,4,111
 .823,5,57.885,0\H,7,1.096327,2,110.903,3,178.986,0\H,7,1.096455,2,110.
 709,3,-61.562,0\H,7,1.093377,2,111.527,3,58.071,0\\Version=EM64L-G09Re
 vA.01\State=1-A\HF=-289.3211908\MP2=-290.5753955\RMSD=8.238e-09\PG=C01
  [X(C6H13N1)]\\@


 ... FOR AFTERWARDS A MAN FINDS PLEASURE IN HIS PAINS,
 WHEN HE HAS SUFFERED LONG AND WANDERED FAR.

                                    -- HOMER
 Job cpu time:  0 days  2 hours 10 minutes 17.6 seconds.
 File lengths (MBytes):  RWF=     86 Int=      0 D2E=      0 Chk=      8 Scr=      1
 Normal termination of Gaussian 09 at Sat Mar 19 22:37:16 2016.
