 Entering Gaussian System, Link 0=g09
 Input=3_OH_hexahydropyrimidine_HB.gjf
 Output=3_OH_hexahydropyrimidine_HB.out
 Initial command:
 /usr/local/g09/l1.exe /home/scratch/stylianakis/Gau-908.inp -scrdir=/home/scratch/stylianakis/
 Entering Link 1 = /usr/local/g09/l1.exe PID=       909.
  
 Copyright (c) 1988,1990,1992,1993,1995,1998,2003,2009, Gaussian, Inc.
                  All Rights Reserved.
  
 This is part of the Gaussian(R) 09 program.  It is based on
 the Gaussian(R) 03 system (copyright 2003, Gaussian, Inc.),
 the Gaussian(R) 98 system (copyright 1998, Gaussian, Inc.),
 the Gaussian(R) 94 system (copyright 1995, Gaussian, Inc.),
 the Gaussian 92(TM) system (copyright 1992, Gaussian, Inc.),
 the Gaussian 90(TM) system (copyright 1990, Gaussian, Inc.),
 the Gaussian 88(TM) system (copyright 1988, Gaussian, Inc.),
 the Gaussian 86(TM) system (copyright 1986, Carnegie Mellon
 University), and the Gaussian 82(TM) system (copyright 1983,
 Carnegie Mellon University). Gaussian is a federally registered
 trademark of Gaussian, Inc.
  
 This software contains proprietary and confidential information,
 including trade secrets, belonging to Gaussian, Inc.
  
 This software is provided under written license and may be
 used, copied, transmitted, or stored only in accord with that
 written license.
  
 The following legend is applicable only to US Government
 contracts under FAR:
  
                    RESTRICTED RIGHTS LEGEND
  
 Use, reproduction and disclosure by the US Government is
 subject to restrictions as set forth in subparagraphs (a)
 and (c) of the Commercial Computer Software - Restricted
 Rights clause in FAR 52.227-19.
  
 Gaussian, Inc.
 340 Quinnipiac St., Bldg. 40, Wallingford CT 06492
  
  
 ---------------------------------------------------------------
 Warning -- This program may not be used in any manner that
 competes with the business of Gaussian, Inc. or will provide
 assistance to any competitor of Gaussian, Inc.  The licensee
 of this program is prohibited from giving any competitor of
 Gaussian, Inc. access to this program.  By using this program,
 the user acknowledges that Gaussian, Inc. is engaged in the
 business of creating and licensing software in the field of
 computational chemistry and represents and warrants to the
 licensee that it is not a competitor of Gaussian, Inc. and that
 it will not use this program in any manner prohibited above.
 ---------------------------------------------------------------
  

 Cite this work as:
 Gaussian 09, Revision A.01,
 M. J. Frisch, G. W. Trucks, H. B. Schlegel, G. E. Scuseria, 
 M. A. Robb, J. R. Cheeseman, G. Scalmani, V. Barone, B. Mennucci, 
 G. A. Petersson, H. Nakatsuji, M. Caricato, X. Li, H. P. Hratchian, 
 A. F. Izmaylov, J. Bloino, G. Zheng, J. L. Sonnenberg, M. Hada, 
 M. Ehara, K. Toyota, R. Fukuda, J. Hasegawa, M. Ishida, T. Nakajima, 
 Y. Honda, O. Kitao, H. Nakai, T. Vreven, J. A. Montgomery, Jr., 
 J. E. Peralta, F. Ogliaro, M. Bearpark, J. J. Heyd, E. Brothers, 
 K. N. Kudin, V. N. Staroverov, R. Kobayashi, J. Normand, 
 K. Raghavachari, A. Rendell, J. C. Burant, S. S. Iyengar, J. Tomasi, 
 M. Cossi, N. Rega, J. M. Millam, M. Klene, J. E. Knox, J. B. Cross, 
 V. Bakken, C. Adamo, J. Jaramillo, R. Gomperts, R. E. Stratmann, 
 O. Yazyev, A. J. Austin, R. Cammi, C. Pomelli, J. W. Ochterski, 
 R. L. Martin, K. Morokuma, V. G. Zakrzewski, G. A. Voth, 
 P. Salvador, J. J. Dannenberg, S. Dapprich, A. D. Daniels, 
 O. Farkas, J. B. Foresman, J. V. Ortiz, J. Cioslowski, 
 and D. J. Fox, Gaussian, Inc., Wallingford CT, 2009.
 
 ******************************************
 Gaussian 09:  EM64L-G09RevA.01  8-May-2009
                19-Mar-2016 
 ******************************************
 %mem=16000Mb
 %nproc=8
 Will use up to    8 processors via shared memory.
 -------------
 # mp2/cc-pVTZ
 -------------
 1/38=1/1;
 2/12=2,17=6,18=5,40=1/2;
 3/5=16,6=1,11=9,16=1,25=1,30=1/1,2,3;
 4//1;
 5/5=2,38=5/2;
 8/10=1/1;
 9/16=-3/6;
 6/7=2,8=2,9=2,10=2/1;
 99/5=1,9=1/99;
 ----------------------------------------
 3_OH_hexahydropyrimidine_HB_single_point
 ----------------------------------------
 Symbolic Z-matrix:
 Charge =  0 Multiplicity = 1
 c
 n                    1    nc2
 c                    2    cn3      1    cnc3
 c                    3    cc4      2    ccn4     1    dih4     0
 c                    4    cc5      3    ccc5     2    dih5     0
 n                    5    nc6      4    ncc6     3    dih6     0
 o                    4    oc7      3    occ7     2    dih7     0
 h                    7    ho8      4    hoc8     3    dih8     0
 h                    6    hn9      5    hnc9     4    dih9     0
 h                    2    hn10     3    hnc10    4    dih10    0
 h                    4    hc11     3    hcc11    2    dih11    0
 h                    3    hc12     4    hcc12    5    dih12    0
 h                    3    hc13     4    hcc13    5    dih13    0
 h                    5    hc14     4    hcc14    3    dih14    0
 h                    5    hc15     4    hcc15    3    dih15    0
 h                    1    hc16     2    hcn16    3    dih16    0
 h                    1    hc17     2    hcn17    3    dih17    0
       Variables:
  nc2                   1.47641                  
  cn3                   1.4691                   
  cnc3                110.721                    
  cc4                   1.53617                  
  ccn4                106.764                    
  dih4                -63.797                    
  cc5                   1.54139                  
  ccc5                109.122                    
  dih5                 58.427                    
  nc6                   1.46942                  
  ncc6                113.093                    
  dih6                -52.604                    
  oc7                   1.42874                  
  occ7                109.799                    
  dih7                -63.503                    
  ho8                   0.97121                  
  hoc8                106.046                    
  dih8                 36.035                    
  hn9                   1.01707                  
  hnc9                109.65                     
  dih9                -72.884                    
  hn10                  1.01645                  
  hnc10               111.531                    
  dih10               171.844                    
  hc11                  1.09615                  
  hcc11               110.43                     
  dih11               179.319                    
  hc12                  1.10591                  
  hcc12               109.544                    
  dih12               -63.89                     
  hc13                  1.0945                   
  hcc13               110.112                    
  dih13               177.145                    
  hc14                  1.0938                   
  hcc14               109.773                    
  dih14              -174.231                    
  hc15                  1.09957                  
  hcc15               109.174                    
  dih15                67.964                    
  hc16                  1.09383                  
  hcn16               108.729                    
  dih16              -176.94                     
  hc17                  1.10557                  
  hcn17               111.084                    
  dih17               -57.945                    
 
                          Input orientation:                          
 ---------------------------------------------------------------------
 Center     Atomic      Atomic             Coordinates (Angstroms)
 Number     Number       Type             X           Y           Z
 ---------------------------------------------------------------------
      1          6           0        0.000000    0.000000    0.000000
      2          7           0        0.000000    0.000000    1.476413
      3          6           0        1.374070    0.000000    1.996207
      4          6           0        2.018284   -1.319732    1.545513
      5          6           0        1.975399   -1.402987    0.006976
      6          7           0        0.630478   -1.188094   -0.544575
      7          8           0        1.329217   -2.421919    2.138519
      8          1           0        0.392110   -2.168461    2.167480
      9          1           0        0.050513   -2.002710   -0.358933
     10          1           0       -0.537718    0.780543    1.843535
     11          1           0        3.056191   -1.377245    1.893331
     12          1           0        1.972390    0.850920    1.620742
     13          1           0        1.350116    0.053135    3.089152
     14          1           0        2.337362   -2.381708   -0.320862
     15          1           0        2.646237   -0.640656   -0.414784
     16          1           0       -1.034428    0.055298   -0.351219
     17          1           0        0.547480    0.874283   -0.397713
 ---------------------------------------------------------------------
                    Distance matrix (angstroms):
                    1          2          3          4          5
     1  C    0.000000
     2  N    1.476413   0.000000
     3  C    2.423409   1.469100   0.000000
     4  C    2.864223   2.412454   1.536173   0.000000
     5  C    2.422937   2.833694   2.507391   1.541385   0.000000
     6  N    1.451080   2.427646   2.901736   2.512330   1.469422
     7  O    3.493676   2.840932   2.426511   1.428736   2.449337
     8  H    3.090946   2.309448   2.386589   1.936912   2.785774
     9  H    2.035247   2.716964   3.362935   2.822321   2.049083
    10  H    2.072923   1.016448   2.070626   3.321613   3.802172
    11  H    3.849910   3.378006   2.176446   1.096146   2.174192
    12  H    2.690946   2.152956   1.105905   2.172440   2.772066
    13  H    3.371720   2.103940   1.094498   2.171182   3.465700
    14  H    3.352424   3.790249   3.459663   2.170935   1.093796
    15  H    2.754098   3.315063   2.800308   2.167541   1.099570
    16  H    1.093825   2.100794   3.363678   3.848032   3.363623
    17  H    1.105568   2.139265   2.679267   3.279190   2.718213
                    6          7          8          9         10
     6  N    0.000000
     7  O    3.034725   0.000000
     8  H    2.893646   0.971210   0.000000
     9  H    1.017065   2.836915   2.554785   0.000000
    10  H    3.308064   3.718632   3.109043   3.597691   0.000000
    11  H    3.444307   2.033200   2.792581   3.807623   4.192220
    12  H    3.262960   3.375388   3.451503   3.969374   2.520959
    13  H    3.906725   2.651420   2.588966   4.219568   2.375837
    14  H    2.094807   2.658294   3.165648   2.318354   4.790671
    15  H    2.092802   3.380355   3.752782   2.931910   4.154201
    16  H    2.086941   4.233464   3.650200   2.326490   2.364243
    17  H    2.069265   4.231847   3.982794   2.919858   2.491914
                   11         12         13         14         15
    11  H    0.000000
    12  H    2.492719   0.000000
    13  H    2.527185   1.783231   0.000000
    14  H    2.535412   3.788524   4.304800   0.000000
    15  H    2.457239   2.611941   3.799848   1.770731   0.000000
    16  H    4.880916   3.682743   4.185953   4.160395   3.746423
    17  H    4.075768   2.470845   3.671067   3.716324   2.588458
                   16         17
    16  H    0.000000
    17  H    1.781945   0.000000
 Stoichiometry    C4H10N2O
 Framework group  C1[X(C4H10N2O)]
 Deg. of freedom    45
 Full point group                 C1      NOp   1
 Largest Abelian subgroup         C1      NOp   1
 Largest concise Abelian subgroup C1      NOp   1
                         Standard orientation:                         
 ---------------------------------------------------------------------
 Center     Atomic      Atomic             Coordinates (Angstroms)
 Number     Number       Type             X           Y           Z
 ---------------------------------------------------------------------
      1          6           0        1.666201    0.021450   -0.115406
      2          7           0        0.785681    1.183974   -0.345662
      3          6           0       -0.299981    1.217733    0.643505
      4          6           0       -1.147973   -0.042425    0.413853
      5          6           0       -0.253705   -1.288148    0.569820
      6          7           0        0.957074   -1.236139   -0.261149
      7          8           0       -1.741638    0.003808   -0.884882
      8          1           0       -1.085274    0.422767   -1.465321
      9          1           0        0.708876   -1.381582   -1.236682
     10          1           0        1.315702    2.051292   -0.347573
     11          1           0       -1.974127   -0.083987    1.133073
     12          1           0        0.071782    1.228754    1.684993
     13          1           0       -0.907959    2.114221    0.486674
     14          1           0       -0.821035   -2.186005    0.308324
     15          1           0        0.054176   -1.382348    1.621195
     16          1           0        2.491156    0.058160   -0.832731
     17          1           0        2.093264    0.041757    0.904146
 ---------------------------------------------------------------------
 Rotational constants (GHZ):      3.7043564      2.8199682      2.1195741
 Standard basis: CC-pVTZ (5D, 7F)
 There are   350 symmetry adapted basis functions of A   symmetry.
 Integral buffers will be    131072 words long.
 Raffenetti 1 integral format.
 Two-electron integral symmetry is turned on.
   350 basis functions,   534 primitive gaussians,   395 cartesian basis functions
    28 alpha electrons       28 beta electrons
       nuclear repulsion energy       342.8330033455 Hartrees.
 NAtoms=   17 NActive=   17 NUniq=   17 SFac= 7.50D-01 NAtFMM=   80 NAOKFM=F Big=F
 One-electron integrals computed using PRISM.
 NBasis=   350 RedAO= T  NBF=   350
 NBsUse=   350 1.00D-06 NBFU=   350
 Harris functional with IExCor=  205 diagonalized for initial guess.
 ExpMin= 1.03D-01 ExpMax= 1.53D+04 ExpMxC= 5.22D+02 IAcc=1 IRadAn=         1 AccDes= 0.00D+00
 HarFok:  IExCor=  205 AccDes= 0.00D+00 IRadAn=         1 IDoV= 1
 ScaDFX=  1.000000  1.000000  1.000000  1.000000
 FoFCou: FMM=F IPFlag=           0 FMFlag=      100000 FMFlg1=           0
         NFxFlg=           0 DoJE=T BraDBF=F KetDBF=T FulRan=T
         Omega=  0.000000  0.000000  1.000000  0.000000  0.000000 ICntrl=     500 IOpCl=  0
         NMat0=    1 NMatS0=    1 NMatT0=    0 NMatD0=    1 NMtDS0=    0 NMtDT0=    0
         I1Cent=           4 NGrid=           0.
 Petite list used in FoFCou.
 Initial guess orbital symmetries:
       Occupied  (A) (A) (A) (A) (A) (A) (A) (A) (A) (A) (A) (A)
                 (A) (A) (A) (A) (A) (A) (A) (A) (A) (A) (A) (A)
                 (A) (A) (A) (A)
       Virtual   (A) (A) (A) (A) (A) (A) (A) (A) (A) (A) (A) (A)
                 (A) (A) (A) (A) (A) (A) (A) (A) (A) (A) (A) (A)
                 (A) (A) (A) (A) (A) (A) (A) (A) (A) (A) (A) (A)
                 (A) (A) (A) (A) (A) (A) (A) (A) (A) (A) (A) (A)
                 (A) (A) (A) (A) (A) (A) (A) (A) (A) (A) (A) (A)
                 (A) (A) (A) (A) (A) (A) (A) (A) (A) (A) (A) (A)
                 (A) (A) (A) (A) (A) (A) (A) (A) (A) (A) (A) (A)
                 (A) (A) (A) (A) (A) (A) (A) (A) (A) (A) (A) (A)
                 (A) (A) (A) (A) (A) (A) (A) (A) (A) (A) (A) (A)
                 (A) (A) (A) (A) (A) (A) (A) (A) (A) (A) (A) (A)
                 (A) (A) (A) (A) (A) (A) (A) (A) (A) (A) (A) (A)
                 (A) (A) (A) (A) (A) (A) (A) (A) (A) (A) (A) (A)
                 (A) (A) (A) (A) (A) (A) (A) (A) (A) (A) (A) (A)
                 (A) (A) (A) (A) (A) (A) (A) (A) (A) (A) (A) (A)
                 (A) (A) (A) (A) (A) (A) (A) (A) (A) (A) (A) (A)
                 (A) (A) (A) (A) (A) (A) (A) (A) (A) (A) (A) (A)
                 (A) (A) (A) (A) (A) (A) (A) (A) (A) (A) (A) (A)
                 (A) (A) (A) (A) (A) (A) (A) (A) (A) (A) (A) (A)
                 (A) (A) (A) (A) (A) (A) (A) (A) (A) (A) (A) (A)
                 (A) (A) (A) (A) (A) (A) (A) (A) (A) (A) (A) (A)
                 (A) (A) (A) (A) (A) (A) (A) (A) (A) (A) (A) (A)
                 (A) (A) (A) (A) (A) (A) (A) (A) (A) (A) (A) (A)
                 (A) (A) (A) (A) (A) (A) (A) (A) (A) (A) (A) (A)
                 (A) (A) (A) (A) (A) (A) (A) (A) (A) (A) (A) (A)
                 (A) (A) (A) (A) (A) (A) (A) (A) (A) (A) (A) (A)
                 (A) (A) (A) (A) (A) (A) (A) (A) (A) (A) (A) (A)
                 (A) (A) (A) (A) (A) (A) (A) (A) (A) (A)
 The electronic state of the initial guess is 1-A.
 Requested convergence on RMS density matrix=1.00D-08 within 128 cycles.
 Requested convergence on MAX density matrix=1.00D-06.
 Requested convergence on             energy=1.00D-06.
 No special actions if energy rises.
 Integral accuracy reduced to 1.0D-05 until final iterations.
 Initial convergence to 1.0D-05 achieved.  Increase integral accuracy.
 SCF Done:  E(RHF) =  -341.156071175     A.U. after   12 cycles
             Convg  =    0.6457D-08             -V/T =  2.0018
 ExpMin= 1.03D-01 ExpMax= 1.53D+04 ExpMxC= 5.22D+02 IAcc=1 IRadAn=         1 AccDes= 0.00D+00
 HarFok:  IExCor=  205 AccDes= 0.00D+00 IRadAn=         1 IDoV=-2
 ScaDFX=  1.000000  1.000000  1.000000  1.000000
 Range of M.O.s used for correlation:     8   350
 NBasis=   350 NAE=    28 NBE=    28 NFC=     7 NFV=     0
 NROrb=    343 NOA=    21 NOB=    21 NVA=   322 NVB=   322

 **** Warning!!: The largest alpha MO coefficient is  0.10091034D+02

 Fully direct method using O(OVN) memory.
 JobTyp=1 Pass  1:  I=   1 to  21 NPSUse=  8 ParTrn=T ParDer=T DoDerP=F.
 Spin components of T(2) and E(2):
     alpha-alpha T2 =       0.4916172351D-01 E2=     -0.1633183061D+00
     alpha-beta  T2 =       0.2832185101D+00 E2=     -0.1018808433D+01
     beta-beta   T2 =       0.4916172351D-01 E2=     -0.1633183061D+00
 ANorm=    0.1175390130D+01
 E2 =    -0.1345445045D+01 EUMP2 =    -0.34250151622059D+03

 **********************************************************************

            Population analysis using the SCF density.

 **********************************************************************

 Orbital symmetries:
       Occupied  (A) (A) (A) (A) (A) (A) (A) (A) (A) (A) (A) (A)
                 (A) (A) (A) (A) (A) (A) (A) (A) (A) (A) (A) (A)
                 (A) (A) (A) (A)
       Virtual   (A) (A) (A) (A) (A) (A) (A) (A) (A) (A) (A) (A)
                 (A) (A) (A) (A) (A) (A) (A) (A) (A) (A) (A) (A)
                 (A) (A) (A) (A) (A) (A) (A) (A) (A) (A) (A) (A)
                 (A) (A) (A) (A) (A) (A) (A) (A) (A) (A) (A) (A)
                 (A) (A) (A) (A) (A) (A) (A) (A) (A) (A) (A) (A)
                 (A) (A) (A) (A) (A) (A) (A) (A) (A) (A) (A) (A)
                 (A) (A) (A) (A) (A) (A) (A) (A) (A) (A) (A) (A)
                 (A) (A) (A) (A) (A) (A) (A) (A) (A) (A) (A) (A)
                 (A) (A) (A) (A) (A) (A) (A) (A) (A) (A) (A) (A)
                 (A) (A) (A) (A) (A) (A) (A) (A) (A) (A) (A) (A)
                 (A) (A) (A) (A) (A) (A) (A) (A) (A) (A) (A) (A)
                 (A) (A) (A) (A) (A) (A) (A) (A) (A) (A) (A) (A)
                 (A) (A) (A) (A) (A) (A) (A) (A) (A) (A) (A) (A)
                 (A) (A) (A) (A) (A) (A) (A) (A) (A) (A) (A) (A)
                 (A) (A) (A) (A) (A) (A) (A) (A) (A) (A) (A) (A)
                 (A) (A) (A) (A) (A) (A) (A) (A) (A) (A) (A) (A)
                 (A) (A) (A) (A) (A) (A) (A) (A) (A) (A) (A) (A)
                 (A) (A) (A) (A) (A) (A) (A) (A) (A) (A) (A) (A)
                 (A) (A) (A) (A) (A) (A) (A) (A) (A) (A) (A) (A)
                 (A) (A) (A) (A) (A) (A) (A) (A) (A) (A) (A) (A)
                 (A) (A) (A) (A) (A) (A) (A) (A) (A) (A) (A) (A)
                 (A) (A) (A) (A) (A) (A) (A) (A) (A) (A) (A) (A)
                 (A) (A) (A) (A) (A) (A) (A) (A) (A) (A) (A) (A)
                 (A) (A) (A) (A) (A) (A) (A) (A) (A) (A) (A) (A)
                 (A) (A) (A) (A) (A) (A) (A) (A) (A) (A) (A) (A)
                 (A) (A) (A) (A) (A) (A) (A) (A) (A) (A) (A) (A)
                 (A) (A) (A) (A) (A) (A) (A) (A) (A) (A)
 The electronic state is 1-A.
 Alpha  occ. eigenvalues --  -20.54140 -15.55256 -15.54274 -11.28167 -11.27456
 Alpha  occ. eigenvalues --  -11.25586 -11.24688  -1.34978  -1.24444  -1.15863
 Alpha  occ. eigenvalues --   -1.02145  -0.89233  -0.87600  -0.78097  -0.70931
 Alpha  occ. eigenvalues --   -0.66713  -0.63935  -0.62827  -0.60153  -0.59429
 Alpha  occ. eigenvalues --   -0.56852  -0.54031  -0.51303  -0.49579  -0.46772
 Alpha  occ. eigenvalues --   -0.45351  -0.38718  -0.36861
 Alpha virt. eigenvalues --    0.13416   0.15286   0.16788   0.17656   0.19636
 Alpha virt. eigenvalues --    0.20143   0.22192   0.22651   0.23483   0.24823
 Alpha virt. eigenvalues --    0.30206   0.31734   0.32224   0.34177   0.35421
 Alpha virt. eigenvalues --    0.38955   0.39189   0.45380   0.46857   0.48485
 Alpha virt. eigenvalues --    0.50315   0.50690   0.52437   0.54972   0.55994
 Alpha virt. eigenvalues --    0.56604   0.58038   0.58939   0.59766   0.60286
 Alpha virt. eigenvalues --    0.61601   0.62629   0.63549   0.63720   0.64851
 Alpha virt. eigenvalues --    0.66987   0.67696   0.68615   0.69709   0.72634
 Alpha virt. eigenvalues --    0.73323   0.74530   0.77114   0.77864   0.80269
 Alpha virt. eigenvalues --    0.82508   0.85933   0.86565   0.89374   0.91016
 Alpha virt. eigenvalues --    0.93901   0.94901   0.95204   0.97275   1.00358
 Alpha virt. eigenvalues --    1.03801   1.05465   1.08095   1.10342   1.11198
 Alpha virt. eigenvalues --    1.13069   1.14378   1.16478   1.18349   1.20241
 Alpha virt. eigenvalues --    1.21668   1.23396   1.24309   1.25006   1.27505
 Alpha virt. eigenvalues --    1.28886   1.31153   1.31770   1.34347   1.34928
 Alpha virt. eigenvalues --    1.36406   1.38080   1.41136   1.41760   1.43702
 Alpha virt. eigenvalues --    1.45023   1.46241   1.48219   1.51628   1.52720
 Alpha virt. eigenvalues --    1.53263   1.54814   1.55515   1.58488   1.62439
 Alpha virt. eigenvalues --    1.63460   1.63559   1.66421   1.67521   1.67979
 Alpha virt. eigenvalues --    1.69524   1.70838   1.74759   1.75495   1.76566
 Alpha virt. eigenvalues --    1.79801   1.81148   1.83341   1.87378   1.92660
 Alpha virt. eigenvalues --    1.96440   1.99052   2.01344   2.04143   2.06927
 Alpha virt. eigenvalues --    2.11182   2.12627   2.15917   2.21818   2.26372
 Alpha virt. eigenvalues --    2.29113   2.33393   2.36924   2.39468   2.52669
 Alpha virt. eigenvalues --    2.63286   2.68429   2.70679   2.71710   2.75857
 Alpha virt. eigenvalues --    2.78960   2.80965   2.81125   2.85189   2.87037
 Alpha virt. eigenvalues --    2.88922   2.91637   2.96816   2.98280   2.99726
 Alpha virt. eigenvalues --    3.03333   3.05313   3.06987   3.08648   3.09791
 Alpha virt. eigenvalues --    3.11770   3.14609   3.15193   3.17439   3.19406
 Alpha virt. eigenvalues --    3.20020   3.21731   3.22621   3.23187   3.23986
 Alpha virt. eigenvalues --    3.27114   3.28875   3.29565   3.31692   3.33686
 Alpha virt. eigenvalues --    3.37682   3.39206   3.40607   3.41970   3.43567
 Alpha virt. eigenvalues --    3.43645   3.46199   3.47188   3.48657   3.50998
 Alpha virt. eigenvalues --    3.52314   3.54497   3.56514   3.58040   3.59990
 Alpha virt. eigenvalues --    3.61122   3.63174   3.64855   3.65707   3.68164
 Alpha virt. eigenvalues --    3.70036   3.71380   3.73357   3.74253   3.76192
 Alpha virt. eigenvalues --    3.77379   3.79877   3.80602   3.81700   3.82473
 Alpha virt. eigenvalues --    3.84788   3.85683   3.88575   3.90600   3.91931
 Alpha virt. eigenvalues --    3.93599   3.94338   3.97440   4.00041   4.01069
 Alpha virt. eigenvalues --    4.04159   4.04593   4.06027   4.06885   4.07972
 Alpha virt. eigenvalues --    4.10618   4.12521   4.13934   4.16134   4.16857
 Alpha virt. eigenvalues --    4.18477   4.21591   4.22769   4.23283   4.24774
 Alpha virt. eigenvalues --    4.25219   4.26482   4.28748   4.31223   4.32978
 Alpha virt. eigenvalues --    4.33428   4.34625   4.35759   4.37172   4.38055
 Alpha virt. eigenvalues --    4.40897   4.43230   4.45702   4.46382   4.48277
 Alpha virt. eigenvalues --    4.49881   4.51581   4.54749   4.56140   4.56971
 Alpha virt. eigenvalues --    4.59972   4.62703   4.64606   4.64949   4.65932
 Alpha virt. eigenvalues --    4.67145   4.72214   4.73615   4.74894   4.76457
 Alpha virt. eigenvalues --    4.77018   4.77828   4.83172   4.85415   4.87297
 Alpha virt. eigenvalues --    4.88342   4.97535   5.02146   5.05542   5.09019
 Alpha virt. eigenvalues --    5.10804   5.11417   5.12330   5.18115   5.21870
 Alpha virt. eigenvalues --    5.24181   5.26042   5.27029   5.30914   5.32882
 Alpha virt. eigenvalues --    5.34340   5.35981   5.38673   5.39369   5.43495
 Alpha virt. eigenvalues --    5.46412   5.49622   5.52067   5.53224   5.55425
 Alpha virt. eigenvalues --    5.58177   5.58671   5.61438   5.62488   5.65493
 Alpha virt. eigenvalues --    5.69275   5.72148   5.74359   5.74762   5.79534
 Alpha virt. eigenvalues --    5.81058   5.81851   5.85217   5.87908   5.91501
 Alpha virt. eigenvalues --    6.01127   6.03546   6.06283   6.07163   6.11923
 Alpha virt. eigenvalues --    6.15915   6.17317   6.21226   6.23493   6.27165
 Alpha virt. eigenvalues --    6.27352   6.32972   6.35320   6.38460   6.42986
 Alpha virt. eigenvalues --    6.43533   6.46772   6.50978   6.59509   6.72355
 Alpha virt. eigenvalues --    6.98441   6.99446   7.05446   7.17066   7.18314
 Alpha virt. eigenvalues --    7.33535   7.44490   7.56475   7.75387   7.92482
 Alpha virt. eigenvalues --   11.90336  12.03809  12.44687  13.21061  13.39719
 Alpha virt. eigenvalues --   13.47831  13.60893
          Condensed to atoms (all electrons):
              1          2          3          4          5          6
     1  C    4.571658   0.314109  -0.043921  -0.015610  -0.042179   0.365573
     2  N    0.314109   6.637031   0.294164  -0.037797  -0.005260  -0.075586
     3  C   -0.043921   0.294164   4.798237   0.347128  -0.040175   0.001956
     4  C   -0.015610  -0.037797   0.347128   4.833925   0.338925  -0.063507
     5  C   -0.042179  -0.005260  -0.040175   0.338925   4.756511   0.339208
     6  N    0.365573  -0.075586   0.001956  -0.063507   0.339208   6.466821
     7  O    0.002525  -0.008673  -0.047031   0.286058  -0.045543   0.000888
     8  H    0.001368   0.026349  -0.013002  -0.049596  -0.002349   0.001615
     9  H   -0.027312  -0.002183  -0.001387  -0.007481  -0.038719   0.380931
    10  H   -0.019775   0.362759  -0.027675   0.007528  -0.000735   0.007134
    11  H    0.000005   0.003732  -0.033934   0.436575  -0.042499   0.005037
    12  H   -0.000779  -0.051543   0.436895  -0.053854  -0.003387  -0.001922
    13  H    0.004727  -0.025320   0.427220  -0.028561   0.007062  -0.001157
    14  H    0.004556  -0.000646   0.007393  -0.037229   0.430176  -0.024878
    15  H   -0.004360  -0.001813   0.002369  -0.066732   0.431949  -0.035202
    16  H    0.431694  -0.031360   0.005461  -0.000423   0.006219  -0.022401
    17  H    0.455235  -0.072065  -0.002364  -0.006645  -0.009041  -0.055603
              7          8          9         10         11         12
     1  C    0.002525   0.001368  -0.027312  -0.019775   0.000005  -0.000779
     2  N   -0.008673   0.026349  -0.002183   0.362759   0.003732  -0.051543
     3  C   -0.047031  -0.013002  -0.001387  -0.027675  -0.033934   0.436895
     4  C    0.286058  -0.049596  -0.007481   0.007528   0.436575  -0.053854
     5  C   -0.045543  -0.002349  -0.038719  -0.000735  -0.042499  -0.003387
     6  N    0.000888   0.001615   0.380931   0.007134   0.005037  -0.001922
     7  O    7.927232   0.350453   0.006364  -0.000269  -0.022540   0.004916
     8  H    0.350453   0.444990   0.001735  -0.001240   0.006007   0.001693
     9  H    0.006364   0.001735   0.574946   0.000016   0.000111  -0.000149
    10  H   -0.000269  -0.001240   0.000016   0.564718  -0.000222  -0.005277
    11  H   -0.022540   0.006007   0.000111  -0.000222   0.545009  -0.003184
    12  H    0.004916   0.001693  -0.000149  -0.005277  -0.003184   0.622257
    13  H    0.001705  -0.000982  -0.000061  -0.007123  -0.005973  -0.031175
    14  H    0.001261  -0.001002  -0.007165   0.000115  -0.003798  -0.000433
    15  H    0.004671  -0.000216   0.008383   0.000159   0.000282  -0.001505
    16  H    0.000062  -0.000074  -0.009532  -0.005418   0.000067   0.000179
    17  H    0.000019   0.000784   0.008139  -0.002993   0.000045   0.008370
             13         14         15         16         17
     1  C    0.004727   0.004556  -0.004360   0.431694   0.455235
     2  N   -0.025320  -0.000646  -0.001813  -0.031360  -0.072065
     3  C    0.427220   0.007393   0.002369   0.005461  -0.002364
     4  C   -0.028561  -0.037229  -0.066732  -0.000423  -0.006645
     5  C    0.007062   0.430176   0.431949   0.006219  -0.009041
     6  N   -0.001157  -0.024878  -0.035202  -0.022401  -0.055603
     7  O    0.001705   0.001261   0.004671   0.000062   0.000019
     8  H   -0.000982  -0.001002  -0.000216  -0.000074   0.000784
     9  H   -0.000061  -0.007165   0.008383  -0.009532   0.008139
    10  H   -0.007123   0.000115   0.000159  -0.005418  -0.002993
    11  H   -0.005973  -0.003798   0.000282   0.000067   0.000045
    12  H   -0.031175  -0.000433  -0.001505   0.000179   0.008370
    13  H    0.548397  -0.000288  -0.000446  -0.000253   0.000170
    14  H   -0.000288   0.556105  -0.030158  -0.000292  -0.000122
    15  H   -0.000446  -0.030158   0.603046  -0.000139   0.002874
    16  H   -0.000253  -0.000292  -0.000139   0.564878  -0.040210
    17  H    0.000170  -0.000122   0.002874  -0.040210   0.640952
 Mulliken atomic charges:
              1
     1  C    0.002488
     2  N   -0.325897
     3  C   -0.111334
     4  C    0.117298
     5  C   -0.080160
     6  N   -0.288906
     7  O   -0.462097
     8  H    0.233465
     9  H    0.113364
    10  H    0.128298
    11  H    0.115281
    12  H    0.078899
    13  H    0.112057
    14  H    0.106407
    15  H    0.086839
    16  H    0.101543
    17  H    0.072455
 Sum of Mulliken atomic charges =   0.00000
 Mulliken charges with hydrogens summed into heavy atoms:
              1
     1  C    0.176486
     2  N   -0.197599
     3  C    0.079621
     4  C    0.232579
     5  C    0.113086
     6  N   -0.175542
     7  O   -0.228632
 Sum of Mulliken charges with hydrogens summed into heavy atoms =   0.00000
 Electronic spatial extent (au):  <R**2>=            682.9178
 Charge=              0.0000 electrons
 Dipole moment (field-independent basis, Debye):
    X=              1.5520    Y=              1.6198    Z=              0.9453  Tot=              2.4344
 Quadrupole moment (field-independent basis, Debye-Ang):
   XX=            -47.3952   YY=            -42.9771   ZZ=            -41.6272
   XY=              3.2793   XZ=             -3.4873   YZ=              0.6901
 Traceless Quadrupole moment (field-independent basis, Debye-Ang):
   XX=             -3.3954   YY=              1.0227   ZZ=              2.3726
   XY=              3.2793   XZ=             -3.4873   YZ=              0.6901
 Octapole moment (field-independent basis, Debye-Ang**2):
  XXX=             10.7534  YYY=             11.9498  ZZZ=             -8.7814  XYY=             -4.6429
  XXY=              7.5412  XXZ=              3.8814  XZZ=              0.6234  YZZ=             -2.1266
  YYZ=             -2.8391  XYZ=              1.4760
 Hexadecapole moment (field-independent basis, Debye-Ang**3):
 XXXX=           -422.8317 YYYY=           -303.4071 ZZZZ=           -145.3233 XXXY=             12.5955
 XXXZ=            -18.7308 YYYX=             22.3074 YYYZ=              1.0256 ZZZX=              5.3113
 ZZZY=              1.6785 XXYY=           -121.3690 XXZZ=            -94.3541 YYZZ=            -78.3619
 XXYZ=             -2.5278 YYXZ=             -0.2354 ZZXY=             -4.1231
 N-N= 3.428330033455D+02 E-N=-1.485211203655D+03  KE= 3.405406523344D+02
 1\1\GINC-ROCK\SP\RMP2-FC\CC-pVTZ\C4H10N2O1\STYLIANAKIS\19-Mar-2016\0\\
 # mp2/cc-pVTZ\\3_OH_hexahydropyrimidine_HB_single_point\\0,1\C\N,1,1.4
 76413\C,2,1.4691,1,110.721\C,3,1.536173,2,106.764,1,-63.797,0\C,4,1.54
 1385,3,109.122,2,58.427,0\N,5,1.469422,4,113.093,3,-52.604,0\O,4,1.428
 736,3,109.799,2,-63.503,0\H,7,0.97121,4,106.046,3,36.035,0\H,6,1.01706
 5,5,109.65,4,-72.884,0\H,2,1.016448,3,111.531,4,171.844,0\H,4,1.096146
 ,3,110.43,2,179.319,0\H,3,1.105905,4,109.544,5,-63.89,0\H,3,1.094498,4
 ,110.112,5,177.145,0\H,5,1.093796,4,109.773,3,-174.231,0\H,5,1.09957,4
 ,109.174,3,67.964,0\H,1,1.093825,2,108.729,3,-176.94,0\H,1,1.105568,2,
 111.084,3,-57.945,0\\Version=EM64L-G09RevA.01\State=1-A\HF=-341.156071
 2\MP2=-342.5015162\RMSD=6.457e-09\PG=C01 [X(C4H10N2O1)]\\@


 ON INDUCTION, OR "WHY DO YOU BELIEVE THE SUN WILL RISE TOMORROW?":

 ... THE FARMER WHO HAS FED THE CHICKEN EVERY DAY THROUGHOUT ITS
 LIFE AT LAST WRINGS ITS NECK INSTEAD, SHOWING THAT MORE REFINED VIEWS
 AS TO THE UNIFORMITY OF NATURE WOULD HAVE BEEN USEFUL TO THE CHICKEN.

                               -- BERTRAND RUSSELL
 Job cpu time:  0 days  1 hours 33 minutes 25.5 seconds.
 File lengths (MBytes):  RWF=     70 Int=      0 D2E=      0 Chk=      6 Scr=      1
 Normal termination of Gaussian 09 at Sat Mar 19 23:15:35 2016.
