 Entering Gaussian System, Link 0=g09
 Input=butanediamine_gGGG.gjf
 Output=butanediamine_gGGG.out
 Initial command:
 /usr/local/g09/l1.exe /home/scratch/stylianakis/Gau-1543.inp -scrdir=/home/scratch/stylianakis/
 Entering Link 1 = /usr/local/g09/l1.exe PID=      1544.
  
 Copyright (c) 1988,1990,1992,1993,1995,1998,2003,2009, Gaussian, Inc.
                  All Rights Reserved.
  
 This is part of the Gaussian(R) 09 program.  It is based on
 the Gaussian(R) 03 system (copyright 2003, Gaussian, Inc.),
 the Gaussian(R) 98 system (copyright 1998, Gaussian, Inc.),
 the Gaussian(R) 94 system (copyright 1995, Gaussian, Inc.),
 the Gaussian 92(TM) system (copyright 1992, Gaussian, Inc.),
 the Gaussian 90(TM) system (copyright 1990, Gaussian, Inc.),
 the Gaussian 88(TM) system (copyright 1988, Gaussian, Inc.),
 the Gaussian 86(TM) system (copyright 1986, Carnegie Mellon
 University), and the Gaussian 82(TM) system (copyright 1983,
 Carnegie Mellon University). Gaussian is a federally registered
 trademark of Gaussian, Inc.
  
 This software contains proprietary and confidential information,
 including trade secrets, belonging to Gaussian, Inc.
  
 This software is provided under written license and may be
 used, copied, transmitted, or stored only in accord with that
 written license.
  
 The following legend is applicable only to US Government
 contracts under FAR:
  
                    RESTRICTED RIGHTS LEGEND
  
 Use, reproduction and disclosure by the US Government is
 subject to restrictions as set forth in subparagraphs (a)
 and (c) of the Commercial Computer Software - Restricted
 Rights clause in FAR 52.227-19.
  
 Gaussian, Inc.
 340 Quinnipiac St., Bldg. 40, Wallingford CT 06492
  
  
 ---------------------------------------------------------------
 Warning -- This program may not be used in any manner that
 competes with the business of Gaussian, Inc. or will provide
 assistance to any competitor of Gaussian, Inc.  The licensee
 of this program is prohibited from giving any competitor of
 Gaussian, Inc. access to this program.  By using this program,
 the user acknowledges that Gaussian, Inc. is engaged in the
 business of creating and licensing software in the field of
 computational chemistry and represents and warrants to the
 licensee that it is not a competitor of Gaussian, Inc. and that
 it will not use this program in any manner prohibited above.
 ---------------------------------------------------------------
  

 Cite this work as:
 Gaussian 09, Revision A.01,
 M. J. Frisch, G. W. Trucks, H. B. Schlegel, G. E. Scuseria, 
 M. A. Robb, J. R. Cheeseman, G. Scalmani, V. Barone, B. Mennucci, 
 G. A. Petersson, H. Nakatsuji, M. Caricato, X. Li, H. P. Hratchian, 
 A. F. Izmaylov, J. Bloino, G. Zheng, J. L. Sonnenberg, M. Hada, 
 M. Ehara, K. Toyota, R. Fukuda, J. Hasegawa, M. Ishida, T. Nakajima, 
 Y. Honda, O. Kitao, H. Nakai, T. Vreven, J. A. Montgomery, Jr., 
 J. E. Peralta, F. Ogliaro, M. Bearpark, J. J. Heyd, E. Brothers, 
 K. N. Kudin, V. N. Staroverov, R. Kobayashi, J. Normand, 
 K. Raghavachari, A. Rendell, J. C. Burant, S. S. Iyengar, J. Tomasi, 
 M. Cossi, N. Rega, J. M. Millam, M. Klene, J. E. Knox, J. B. Cross, 
 V. Bakken, C. Adamo, J. Jaramillo, R. Gomperts, R. E. Stratmann, 
 O. Yazyev, A. J. Austin, R. Cammi, C. Pomelli, J. W. Ochterski, 
 R. L. Martin, K. Morokuma, V. G. Zakrzewski, G. A. Voth, 
 P. Salvador, J. J. Dannenberg, S. Dapprich, A. D. Daniels, 
 O. Farkas, J. B. Foresman, J. V. Ortiz, J. Cioslowski, 
 and D. J. Fox, Gaussian, Inc., Wallingford CT, 2009.
 
 ******************************************
 Gaussian 09:  EM64L-G09RevA.01  8-May-2009
                19-Mar-2016 
 ******************************************
 %mem=16000Mb
 %nproc=8
 Will use up to    8 processors via shared memory.
 -------------
 # mp2/cc-pVTZ
 -------------
 1/38=1/1;
 2/12=2,17=6,18=5,40=1/2;
 3/5=16,6=1,11=9,16=1,25=1,30=1/1,2,3;
 4//1;
 5/5=2,38=5/2;
 8/10=1/1;
 9/16=-3/6;
 6/7=2,8=2,9=2,10=2/1;
 99/5=1,9=1/99;
 -------------------------------
 butanediamine_gGGG_single_point
 -------------------------------
 Symbolic Z-matrix:
 Charge =  0 Multiplicity = 1
 c
 c                    1    cc2
 c                    2    cc3      1    ccc3
 c                    3    cc4      2    ccc4     1    dih4     0
 n                    4    nc5      3    ncc5     2    dih5     0
 n                    1    nc6      2    ncc6     3    dih6     0
 h                    1    hc7      2    hcc7     3    dih7     0
 h                    1    hc8      2    hcc8     3    dih8     0
 h                    6    hn9      1    hnc9     2    dih9     0
 h                    6    hn10     1    hnc10    2    dih10    0
 h                    4    hc11     3    hcc11    2    dih11    0
 h                    4    hc12     3    hcc12    2    dih12    0
 h                    5    hn13     4    hnc13    3    dih13    0
 h                    5    hn14     4    hnc14    3    dih14    0
 h                    2    hc15     1    hcc15    6    dih15    0
 h                    2    hc16     1    hcc16    6    dih16    0
 h                    3    hc17     2    hcc17    1    dih17    0
 h                    3    hc18     2    hcc18    1    dih18    0
       Variables:
  cc2                   1.53771                  
  cc3                   1.54285                  
  ccc3                118.086                    
  cc4                   1.53503                  
  ccc4                118.001                    
  dih4                 72.246                    
  nc5                   1.46559                  
  ncc5                112.516                    
  dih5                -76.349                    
  nc6                   1.47501                  
  ncc6                112.56                     
  dih6                -79.503                    
  hc7                   1.10225                  
  hcc7                108.291                    
  dih7                156.256                    
  hc8                   1.0963                   
  hcc8                109.502                    
  dih8                 40.                       
  hn9                   1.01701                  
  hnc9                110.684                    
  dih9                176.731                    
  hn10                  1.01777                  
  hnc10               110.402                    
  dih10               -65.187                    
  hc11                  1.09699                  
  hcc11               107.784                    
  dih11               165.182                    
  hc12                  1.10702                  
  hcc12               108.593                    
  dih12                50.277                    
  hn13                  1.01631                  
  hnc13               110.589                    
  dih13              -171.887                    
  hn14                  1.02192                  
  hnc14               109.276                    
  dih14                68.901                    
  hc15                  1.10118                  
  hcc15               108.833                    
  dih15                46.186                    
  hc16                  1.09807                  
  hcc16               106.797                    
  dih16               159.696                    
  hc17                  1.09871                  
  hcc17               106.751                    
  dih17              -166.979                    
  hc18                  1.09831                  
  hcc18               109.428                    
  dih18               -51.957                    
 
                          Input orientation:                          
 ---------------------------------------------------------------------
 Center     Atomic      Atomic             Coordinates (Angstroms)
 Number     Number       Type             X           Y           Z
 ---------------------------------------------------------------------
      1          6           0        0.000000    0.000000    0.000000
      2          6           0        0.000000    0.000000    1.537714
      3          6           0        1.361169    0.000000    2.264083
      4          6           0        2.191553    1.290791    2.238758
      5          7           0        2.857687    1.504420    0.950900
      6          7           0        0.248161    1.339346   -0.565890
      7          1           0       -0.957970   -0.421397   -0.345933
      8          1           0        0.791636   -0.664261   -0.365989
      9          1           0        0.295551    1.297309   -1.580928
     10          1           0       -0.515533    1.970269   -0.332321
     11          1           0        2.971582    1.202472    3.005011
     12          1           0        1.543506    2.133503    2.547584
     13          1           0        3.501270    2.288966    1.007208
     14          1           0        2.155576    1.714280    0.238638
     15          1           0       -0.608022    0.846495    1.893188
     16          1           0       -0.538284   -0.902944    1.855035
     17          1           0        1.157959   -0.237044    3.317494
     18          1           0        1.983979   -0.815721    1.872942
 ---------------------------------------------------------------------
                    Distance matrix (angstroms):
                    1          2          3          4          5
     1  C    0.000000
     2  C    1.537714   0.000000
     3  C    2.641752   1.542852   0.000000
     4  C    3.388375   2.638278   1.535031   0.000000
     5  N    3.366581   3.282378   2.495455   1.465589   0.000000
     6  N    1.475013   2.506109   3.322857   3.412504   3.022835
     7  H    1.102249   2.154857   3.516841   4.419470   4.466519
     8  H    1.096302   2.166106   2.771803   3.544955   3.271994
     9  H    2.066324   3.390618   4.195553   4.264372   3.607990
    10  H    2.063534   2.764917   3.761022   3.794793   3.638995
    11  H    4.393897   3.525507   2.142042   1.096991   2.079307
    12  H    3.663937   2.820299   2.159966   1.107024   2.161532
    13  H    4.302642   4.216597   3.376260   2.056314   1.016308
    14  H    2.764455   3.045138   2.769886   2.044778   1.021919
    15  H    2.161112   1.101184   2.175277   2.855598   3.651289
    16  H    2.132185   1.098067   2.142557   3.523028   4.259752
    17  H    3.521765   2.136510   1.098708   2.136882   3.394487
    18  H    2.847716   2.171164   1.098310   2.148092   2.645105
                    6          7          8          9         10
     6  N    0.000000
     7  H    2.145542   0.000000
     8  H    2.085610   1.766495   0.000000
     9  H    1.017013   2.459772   2.360071   0.000000
    10  H    1.017765   2.432284   2.941186   1.633937   0.000000
    11  H    4.493005   5.413609   4.427245   5.310459   4.887460
    12  H    3.464437   4.599711   4.108735   4.393316   3.544029
    13  H    3.736193   5.390908   4.236666   4.237743   4.246247
    14  H    2.103824   3.820604   2.807734   2.635219   2.743419
    15  H    2.650097   2.596860   3.057010   3.617895   2.494857
    16  H    3.392232   2.291787   2.599732   4.164402   3.611149
    17  H    4.288754   4.234601   3.726226   5.205048   4.581916
    18  H    3.688534   3.705937   2.541149   4.386902   4.344248
                   11         12         13         14         15
    11  H    0.000000
    12  H    1.765066   0.000000
    13  H    2.335006   2.495950   0.000000
    14  H    2.929272   2.425203   1.652833   0.000000
    15  H    3.765161   2.591080   4.444318   3.335875   0.000000
    16  H    4.251398   3.746130   5.217768   4.088947   1.751244
    17  H    2.336467   2.522082   4.148404   3.779188   2.514238
    18  H    2.515957   3.057299   3.562407   3.016837   3.079260
                   16         17         18
    16  H    0.000000
    17  H    2.336547   0.000000
    18  H    2.523835   1.761791   0.000000
 Stoichiometry    C4H12N2
 Framework group  C1[X(C4H12N2)]
 Deg. of freedom    48
 Full point group                 C1      NOp   1
 Largest Abelian subgroup         C1      NOp   1
 Largest concise Abelian subgroup C1      NOp   1
                         Standard orientation:                         
 ---------------------------------------------------------------------
 Center     Atomic      Atomic             Coordinates (Angstroms)
 Number     Number       Type             X           Y           Z
 ---------------------------------------------------------------------
      1          6           0        1.622896    0.167386   -0.380800
      2          6           0        0.670125    1.213046    0.222017
      3          6           0       -0.812085    1.176706   -0.204745
      4          6           0       -1.687747    0.034223    0.328423
      5          7           0       -1.438215   -1.233737   -0.362927
      6          7           0        1.513815   -1.146027    0.281554
      7          1           0        2.649081    0.567097   -0.334667
      8          1           0        1.384048    0.022709   -1.440941
      9          1           0        2.115321   -1.828614   -0.172958
     10          1           0        1.820281   -1.081574    1.249939
     11          1           0       -2.736096    0.306260    0.154212
     12          1           0       -1.558540   -0.026754    1.426189
     13          1           0       -2.120176   -1.933486   -0.083350
     14          1           0       -0.507044   -1.574910   -0.116270
     15          1           0        0.739312    1.165848    1.320011
     16          1           0        1.064742    2.199387   -0.055761
     17          1           0       -1.262633    2.119439    0.134990
     18          1           0       -0.876625    1.174774   -1.301155
 ---------------------------------------------------------------------
 Rotational constants (GHZ):      4.4269468      2.6278956      1.8472640
 Standard basis: CC-pVTZ (5D, 7F)
 There are   348 symmetry adapted basis functions of A   symmetry.
 Integral buffers will be    131072 words long.
 Raffenetti 1 integral format.
 Two-electron integral symmetry is turned on.
   348 basis functions,   516 primitive gaussians,   390 cartesian basis functions
    25 alpha electrons       25 beta electrons
       nuclear repulsion energy       260.1314366067 Hartrees.
 NAtoms=   18 NActive=   18 NUniq=   18 SFac= 7.50D-01 NAtFMM=   80 NAOKFM=F Big=F
 One-electron integrals computed using PRISM.
 NBasis=   348 RedAO= T  NBF=   348
 NBsUse=   348 1.00D-06 NBFU=   348
 Harris functional with IExCor=  205 diagonalized for initial guess.
 ExpMin= 1.03D-01 ExpMax= 1.14D+04 ExpMxC= 3.89D+02 IAcc=1 IRadAn=         1 AccDes= 0.00D+00
 HarFok:  IExCor=  205 AccDes= 0.00D+00 IRadAn=         1 IDoV= 1
 ScaDFX=  1.000000  1.000000  1.000000  1.000000
 FoFCou: FMM=F IPFlag=           0 FMFlag=      100000 FMFlg1=           0
         NFxFlg=           0 DoJE=T BraDBF=F KetDBF=T FulRan=T
         Omega=  0.000000  0.000000  1.000000  0.000000  0.000000 ICntrl=     500 IOpCl=  0
         NMat0=    1 NMatS0=    1 NMatT0=    0 NMatD0=    1 NMtDS0=    0 NMtDT0=    0
         I1Cent=           4 NGrid=           0.
 Petite list used in FoFCou.
 Initial guess orbital symmetries:
       Occupied  (A) (A) (A) (A) (A) (A) (A) (A) (A) (A) (A) (A)
                 (A) (A) (A) (A) (A) (A) (A) (A) (A) (A) (A) (A)
                 (A)
       Virtual   (A) (A) (A) (A) (A) (A) (A) (A) (A) (A) (A) (A)
                 (A) (A) (A) (A) (A) (A) (A) (A) (A) (A) (A) (A)
                 (A) (A) (A) (A) (A) (A) (A) (A) (A) (A) (A) (A)
                 (A) (A) (A) (A) (A) (A) (A) (A) (A) (A) (A) (A)
                 (A) (A) (A) (A) (A) (A) (A) (A) (A) (A) (A) (A)
                 (A) (A) (A) (A) (A) (A) (A) (A) (A) (A) (A) (A)
                 (A) (A) (A) (A) (A) (A) (A) (A) (A) (A) (A) (A)
                 (A) (A) (A) (A) (A) (A) (A) (A) (A) (A) (A) (A)
                 (A) (A) (A) (A) (A) (A) (A) (A) (A) (A) (A) (A)
                 (A) (A) (A) (A) (A) (A) (A) (A) (A) (A) (A) (A)
                 (A) (A) (A) (A) (A) (A) (A) (A) (A) (A) (A) (A)
                 (A) (A) (A) (A) (A) (A) (A) (A) (A) (A) (A) (A)
                 (A) (A) (A) (A) (A) (A) (A) (A) (A) (A) (A) (A)
                 (A) (A) (A) (A) (A) (A) (A) (A) (A) (A) (A) (A)
                 (A) (A) (A) (A) (A) (A) (A) (A) (A) (A) (A) (A)
                 (A) (A) (A) (A) (A) (A) (A) (A) (A) (A) (A) (A)
                 (A) (A) (A) (A) (A) (A) (A) (A) (A) (A) (A) (A)
                 (A) (A) (A) (A) (A) (A) (A) (A) (A) (A) (A) (A)
                 (A) (A) (A) (A) (A) (A) (A) (A) (A) (A) (A) (A)
                 (A) (A) (A) (A) (A) (A) (A) (A) (A) (A) (A) (A)
                 (A) (A) (A) (A) (A) (A) (A) (A) (A) (A) (A) (A)
                 (A) (A) (A) (A) (A) (A) (A) (A) (A) (A) (A) (A)
                 (A) (A) (A) (A) (A) (A) (A) (A) (A) (A) (A) (A)
                 (A) (A) (A) (A) (A) (A) (A) (A) (A) (A) (A) (A)
                 (A) (A) (A) (A) (A) (A) (A) (A) (A) (A) (A) (A)
                 (A) (A) (A) (A) (A) (A) (A) (A) (A) (A) (A) (A)
                 (A) (A) (A) (A) (A) (A) (A) (A) (A) (A) (A)
 The electronic state of the initial guess is 1-A.
 Requested convergence on RMS density matrix=1.00D-08 within 128 cycles.
 Requested convergence on MAX density matrix=1.00D-06.
 Requested convergence on             energy=1.00D-06.
 No special actions if energy rises.
 Integral accuracy reduced to 1.0D-05 until final iterations.
 Initial convergence to 1.0D-05 achieved.  Increase integral accuracy.
 SCF Done:  E(RHF) =  -267.438140418     A.U. after   12 cycles
             Convg  =    0.6097D-08             -V/T =  2.0018
 ExpMin= 1.03D-01 ExpMax= 1.14D+04 ExpMxC= 3.89D+02 IAcc=1 IRadAn=         1 AccDes= 0.00D+00
 HarFok:  IExCor=  205 AccDes= 0.00D+00 IRadAn=         1 IDoV=-2
 ScaDFX=  1.000000  1.000000  1.000000  1.000000
 Range of M.O.s used for correlation:     7   348
 NBasis=   348 NAE=    25 NBE=    25 NFC=     6 NFV=     0
 NROrb=    342 NOA=    19 NOB=    19 NVA=   323 NVB=   323

 **** Warning!!: The largest alpha MO coefficient is  0.10851379D+02

 Fully direct method using O(OVN) memory.
 JobTyp=1 Pass  1:  I=   1 to  19 NPSUse=  8 ParTrn=T ParDer=T DoDerP=F.
 Spin components of T(2) and E(2):
     alpha-alpha T2 =       0.4181082841D-01 E2=     -0.1310143430D+00
     alpha-beta  T2 =       0.2558227996D+00 E2=     -0.8787638086D+00
     beta-beta   T2 =       0.4181082841D-01 E2=     -0.1310143430D+00
 ANorm=    0.1157343707D+01
 E2 =    -0.1140792495D+01 EUMP2 =    -0.26857893291259D+03

 **********************************************************************

            Population analysis using the SCF density.

 **********************************************************************

 Orbital symmetries:
       Occupied  (A) (A) (A) (A) (A) (A) (A) (A) (A) (A) (A) (A)
                 (A) (A) (A) (A) (A) (A) (A) (A) (A) (A) (A) (A)
                 (A)
       Virtual   (A) (A) (A) (A) (A) (A) (A) (A) (A) (A) (A) (A)
                 (A) (A) (A) (A) (A) (A) (A) (A) (A) (A) (A) (A)
                 (A) (A) (A) (A) (A) (A) (A) (A) (A) (A) (A) (A)
                 (A) (A) (A) (A) (A) (A) (A) (A) (A) (A) (A) (A)
                 (A) (A) (A) (A) (A) (A) (A) (A) (A) (A) (A) (A)
                 (A) (A) (A) (A) (A) (A) (A) (A) (A) (A) (A) (A)
                 (A) (A) (A) (A) (A) (A) (A) (A) (A) (A) (A) (A)
                 (A) (A) (A) (A) (A) (A) (A) (A) (A) (A) (A) (A)
                 (A) (A) (A) (A) (A) (A) (A) (A) (A) (A) (A) (A)
                 (A) (A) (A) (A) (A) (A) (A) (A) (A) (A) (A) (A)
                 (A) (A) (A) (A) (A) (A) (A) (A) (A) (A) (A) (A)
                 (A) (A) (A) (A) (A) (A) (A) (A) (A) (A) (A) (A)
                 (A) (A) (A) (A) (A) (A) (A) (A) (A) (A) (A) (A)
                 (A) (A) (A) (A) (A) (A) (A) (A) (A) (A) (A) (A)
                 (A) (A) (A) (A) (A) (A) (A) (A) (A) (A) (A) (A)
                 (A) (A) (A) (A) (A) (A) (A) (A) (A) (A) (A) (A)
                 (A) (A) (A) (A) (A) (A) (A) (A) (A) (A) (A) (A)
                 (A) (A) (A) (A) (A) (A) (A) (A) (A) (A) (A) (A)
                 (A) (A) (A) (A) (A) (A) (A) (A) (A) (A) (A) (A)
                 (A) (A) (A) (A) (A) (A) (A) (A) (A) (A) (A) (A)
                 (A) (A) (A) (A) (A) (A) (A) (A) (A) (A) (A) (A)
                 (A) (A) (A) (A) (A) (A) (A) (A) (A) (A) (A) (A)
                 (A) (A) (A) (A) (A) (A) (A) (A) (A) (A) (A) (A)
                 (A) (A) (A) (A) (A) (A) (A) (A) (A) (A) (A) (A)
                 (A) (A) (A) (A) (A) (A) (A) (A) (A) (A) (A) (A)
                 (A) (A) (A) (A) (A) (A) (A) (A) (A) (A) (A) (A)
                 (A) (A) (A) (A) (A) (A) (A) (A) (A) (A) (A)
 The electronic state is 1-A.
 Alpha  occ. eigenvalues --  -15.54441 -15.50495 -11.25019 -11.23211 -11.21937
 Alpha  occ. eigenvalues --  -11.20979  -1.18040  -1.14650  -1.03341  -0.93366
 Alpha  occ. eigenvalues --   -0.83572  -0.76716  -0.66148  -0.65337  -0.61936
 Alpha  occ. eigenvalues --   -0.60813  -0.57912  -0.54969  -0.53272  -0.51323
 Alpha  occ. eigenvalues --   -0.46513  -0.46269  -0.45057  -0.39608  -0.36198
 Alpha virt. eigenvalues --    0.13657   0.15911   0.16504   0.17352   0.19998
 Alpha virt. eigenvalues --    0.21089   0.21389   0.22029   0.24093   0.25008
 Alpha virt. eigenvalues --    0.25999   0.29013   0.30731   0.34628   0.37074
 Alpha virt. eigenvalues --    0.37622   0.39826   0.42774   0.43608   0.45233
 Alpha virt. eigenvalues --    0.48435   0.49774   0.50598   0.52480   0.53660
 Alpha virt. eigenvalues --    0.56692   0.57060   0.57957   0.59016   0.61327
 Alpha virt. eigenvalues --    0.61750   0.62682   0.63498   0.65054   0.66226
 Alpha virt. eigenvalues --    0.66336   0.66559   0.67824   0.68362   0.69591
 Alpha virt. eigenvalues --    0.71479   0.72424   0.73078   0.74177   0.74528
 Alpha virt. eigenvalues --    0.76169   0.79530   0.80738   0.84820   0.87284
 Alpha virt. eigenvalues --    0.90403   0.93832   0.95584   0.96618   0.97461
 Alpha virt. eigenvalues --    1.00936   1.01002   1.03170   1.07098   1.10760
 Alpha virt. eigenvalues --    1.11053   1.14597   1.16314   1.18179   1.19871
 Alpha virt. eigenvalues --    1.21217   1.22474   1.23318   1.25865   1.28320
 Alpha virt. eigenvalues --    1.29726   1.30812   1.31771   1.31956   1.33626
 Alpha virt. eigenvalues --    1.34961   1.36904   1.38456   1.40488   1.40830
 Alpha virt. eigenvalues --    1.42307   1.42832   1.43830   1.45786   1.47595
 Alpha virt. eigenvalues --    1.49064   1.51506   1.51964   1.52559   1.53388
 Alpha virt. eigenvalues --    1.56566   1.58507   1.59946   1.61682   1.62509
 Alpha virt. eigenvalues --    1.64397   1.67275   1.67429   1.70534   1.71859
 Alpha virt. eigenvalues --    1.73893   1.76874   1.77359   1.78494   1.80791
 Alpha virt. eigenvalues --    1.83807   1.87136   1.88395   1.91580   1.93597
 Alpha virt. eigenvalues --    1.95265   1.99265   2.01894   2.02537   2.06224
 Alpha virt. eigenvalues --    2.08552   2.12316   2.17204   2.21412   2.58502
 Alpha virt. eigenvalues --    2.61254   2.65283   2.67390   2.69405   2.71986
 Alpha virt. eigenvalues --    2.73050   2.76716   2.79700   2.80537   2.82448
 Alpha virt. eigenvalues --    2.85844   2.86722   2.88586   2.89740   2.92761
 Alpha virt. eigenvalues --    2.96313   2.98034   3.00358   3.04743   3.05700
 Alpha virt. eigenvalues --    3.06824   3.08703   3.11754   3.14061   3.15666
 Alpha virt. eigenvalues --    3.18615   3.19662   3.22009   3.22657   3.25671
 Alpha virt. eigenvalues --    3.26973   3.27810   3.28369   3.30723   3.31926
 Alpha virt. eigenvalues --    3.34620   3.35880   3.37764   3.39564   3.41087
 Alpha virt. eigenvalues --    3.41929   3.43149   3.43512   3.45390   3.45655
 Alpha virt. eigenvalues --    3.49703   3.50661   3.51385   3.52382   3.54666
 Alpha virt. eigenvalues --    3.57277   3.59399   3.60271   3.60938   3.62517
 Alpha virt. eigenvalues --    3.64714   3.66019   3.67810   3.70022   3.70239
 Alpha virt. eigenvalues --    3.72796   3.74831   3.75754   3.78680   3.79572
 Alpha virt. eigenvalues --    3.80614   3.81242   3.83119   3.84879   3.86431
 Alpha virt. eigenvalues --    3.86602   3.87359   3.89111   3.89909   3.91097
 Alpha virt. eigenvalues --    3.91561   3.93954   3.95649   3.96951   3.99373
 Alpha virt. eigenvalues --    4.01703   4.05588   4.08078   4.08643   4.09603
 Alpha virt. eigenvalues --    4.12608   4.13125   4.15105   4.16124   4.17421
 Alpha virt. eigenvalues --    4.18935   4.18988   4.21222   4.23095   4.24145
 Alpha virt. eigenvalues --    4.24820   4.26186   4.29164   4.29718   4.32260
 Alpha virt. eigenvalues --    4.32563   4.35312   4.36635   4.37564   4.38815
 Alpha virt. eigenvalues --    4.40917   4.41468   4.42413   4.43434   4.44996
 Alpha virt. eigenvalues --    4.46441   4.47990   4.48382   4.52688   4.53799
 Alpha virt. eigenvalues --    4.55994   4.57232   4.58549   4.61503   4.62554
 Alpha virt. eigenvalues --    4.62953   4.65126   4.66480   4.67348   4.68853
 Alpha virt. eigenvalues --    4.71491   4.73772   4.74660   4.75510   4.76806
 Alpha virt. eigenvalues --    4.80517   4.81056   4.83666   4.84888   4.87012
 Alpha virt. eigenvalues --    4.93529   4.96715   4.99045   5.06503   5.08534
 Alpha virt. eigenvalues --    5.11601   5.14172   5.17044   5.19275   5.23498
 Alpha virt. eigenvalues --    5.24852   5.29821   5.30473   5.32645   5.33410
 Alpha virt. eigenvalues --    5.35112   5.37481   5.40521   5.42485   5.44781
 Alpha virt. eigenvalues --    5.46388   5.46462   5.52021   5.55212   5.56685
 Alpha virt. eigenvalues --    5.58282   5.61411   5.62818   5.65332   5.66326
 Alpha virt. eigenvalues --    5.72537   5.73940   5.75907   5.80406   5.81838
 Alpha virt. eigenvalues --    5.84298   5.88394   5.89506   5.93227   5.94698
 Alpha virt. eigenvalues --    5.98592   5.99369   6.00589   6.07910   6.09416
 Alpha virt. eigenvalues --    6.15363   6.21696   6.24746   6.29413   6.31364
 Alpha virt. eigenvalues --    6.33515   6.38396   6.41714   6.44112   6.46454
 Alpha virt. eigenvalues --    6.47009   6.55011   6.60506   6.63324   6.71995
 Alpha virt. eigenvalues --    7.34538   7.36483  12.31404  12.64403  13.09399
 Alpha virt. eigenvalues --   13.43028  13.57533  13.77081
          Condensed to atoms (all electrons):
              1          2          3          4          5          6
     1  C    4.748042   0.335713  -0.037763   0.000492   0.002417   0.283250
     2  C    0.335713   4.896569   0.354238  -0.039278   0.003035  -0.041175
     3  C   -0.037763   0.354238   4.899263   0.342314  -0.054645   0.003500
     4  C    0.000492  -0.039278   0.342314   4.680342   0.336835  -0.001204
     5  N    0.002417   0.003035  -0.054645   0.336835   6.482550  -0.037844
     6  N    0.283250  -0.041175   0.003500  -0.001204  -0.037844   6.479040
     7  H    0.453908  -0.055762   0.005695  -0.000134  -0.000231  -0.044307
     8  H    0.417413  -0.030114  -0.005150   0.000233   0.002602  -0.032877
     9  H   -0.026773   0.007425  -0.000413  -0.000046   0.001270   0.375102
    10  H   -0.032207  -0.002514  -0.000273   0.000108   0.001119   0.367838
    11  H   -0.000586   0.006561  -0.030236   0.428426  -0.029498   0.000102
    12  H    0.002209  -0.010249  -0.061527   0.444595  -0.064881   0.000460
    13  H   -0.000129  -0.000158   0.008256  -0.036099   0.380458   0.000999
    14  H   -0.009426  -0.000899   0.000206  -0.040865   0.380364   0.044159
    15  H   -0.037098   0.413042  -0.034760  -0.003865   0.000100  -0.005007
    16  H   -0.041089   0.436380  -0.040543   0.006320  -0.000374   0.004747
    17  H    0.007195  -0.044104   0.429873  -0.039446   0.004656  -0.000363
    18  H   -0.002725  -0.039295   0.401762  -0.031281   0.007931  -0.000439
              7          8          9         10         11         12
     1  C    0.453908   0.417413  -0.026773  -0.032207  -0.000586   0.002209
     2  C   -0.055762  -0.030114   0.007425  -0.002514   0.006561  -0.010249
     3  C    0.005695  -0.005150  -0.000413  -0.000273  -0.030236  -0.061527
     4  C   -0.000134   0.000233  -0.000046   0.000108   0.428426   0.444595
     5  N   -0.000231   0.002602   0.001270   0.001119  -0.029498  -0.064881
     6  N   -0.044307  -0.032877   0.375102   0.367838   0.000102   0.000460
     7  H    0.619417  -0.043956  -0.005003  -0.007434   0.000027   0.000086
     8  H   -0.043956   0.585037  -0.005691   0.008156  -0.000087   0.000314
     9  H   -0.005003  -0.005691   0.548788  -0.039232  -0.000002  -0.000056
    10  H   -0.007434   0.008156  -0.039232   0.560195   0.000003  -0.000103
    11  H    0.000027  -0.000087  -0.000002   0.000003   0.600724  -0.047480
    12  H    0.000086   0.000314  -0.000056  -0.000103  -0.047480   0.675367
    13  H   -0.000009  -0.000121  -0.000044  -0.000019  -0.007931  -0.004437
    14  H    0.001418  -0.002855  -0.002417  -0.002589   0.007414  -0.004381
    15  H   -0.002974   0.006149   0.000026   0.003192  -0.000063   0.002975
    16  H   -0.005804  -0.000373  -0.000552  -0.000134  -0.000274  -0.000108
    17  H   -0.000356   0.000203   0.000036  -0.000009  -0.008520   0.001754
    18  H    0.000208   0.002919   0.000000   0.000010  -0.006258   0.010225
             13         14         15         16         17         18
     1  C   -0.000129  -0.009426  -0.037098  -0.041089   0.007195  -0.002725
     2  C   -0.000158  -0.000899   0.413042   0.436380  -0.044104  -0.039295
     3  C    0.008256   0.000206  -0.034760  -0.040543   0.429873   0.401762
     4  C   -0.036099  -0.040865  -0.003865   0.006320  -0.039446  -0.031281
     5  N    0.380458   0.380364   0.000100  -0.000374   0.004656   0.007931
     6  N    0.000999   0.044159  -0.005007   0.004747  -0.000363  -0.000439
     7  H   -0.000009   0.001418  -0.002974  -0.005804  -0.000356   0.000208
     8  H   -0.000121  -0.002855   0.006149  -0.000373   0.000203   0.002919
     9  H   -0.000044  -0.002417   0.000026  -0.000552   0.000036   0.000000
    10  H   -0.000019  -0.002589   0.003192  -0.000134  -0.000009   0.000010
    11  H   -0.007931   0.007414  -0.000063  -0.000274  -0.008520  -0.006258
    12  H   -0.004437  -0.004381   0.002975  -0.000108   0.001754   0.010225
    13  H    0.568498  -0.039681  -0.000030   0.000041  -0.000545  -0.000356
    14  H   -0.039681   0.499985  -0.000057   0.000067  -0.000393  -0.000634
    15  H   -0.000030  -0.000057   0.604008  -0.029859  -0.003019   0.006477
    16  H    0.000041   0.000067  -0.029859   0.580986  -0.009771  -0.002945
    17  H   -0.000545  -0.000393  -0.003019  -0.009771   0.593607  -0.027014
    18  H   -0.000356  -0.000634   0.006477  -0.002945  -0.027014   0.590013
 Mulliken atomic charges:
              1
     1  C   -0.062843
     2  C   -0.189416
     3  C   -0.179797
     4  C   -0.047448
     5  N   -0.415866
     6  N   -0.395981
     7  H    0.085210
     8  H    0.098199
     9  H    0.147584
    10  H    0.143891
    11  H    0.087678
    12  H    0.055238
    13  H    0.131305
    14  H    0.170583
    15  H    0.080761
    16  H    0.103285
    17  H    0.096215
    18  H    0.091402
 Sum of Mulliken atomic charges =   0.00000
 Mulliken charges with hydrogens summed into heavy atoms:
              1
     1  C    0.120565
     2  C   -0.005369
     3  C    0.007820
     4  C    0.095468
     5  N   -0.113977
     6  N   -0.104507
 Sum of Mulliken charges with hydrogens summed into heavy atoms =   0.00000
 Electronic spatial extent (au):  <R**2>=            724.2499
 Charge=              0.0000 electrons
 Dipole moment (field-independent basis, Debye):
    X=              1.8140    Y=              0.0657    Z=              1.2683  Tot=              2.2144
 Quadrupole moment (field-independent basis, Debye-Ang):
   XX=            -36.3192   YY=            -38.5334   ZZ=            -40.8010
   XY=             -1.9324   XZ=             -1.4222   YZ=             -1.5778
 Traceless Quadrupole moment (field-independent basis, Debye-Ang):
   XX=              2.2320   YY=              0.0178   ZZ=             -2.2498
   XY=             -1.9324   XZ=             -1.4222   YZ=             -1.5778
 Octapole moment (field-independent basis, Debye-Ang**2):
  XXX=              4.5966  YYY=            -12.6671  ZZZ=              3.9297  XYY=              2.2982
  XXY=            -10.3181  XXZ=              4.1244  XZZ=              6.9450  YZZ=             -1.1428
  YYZ=              1.1107  XYZ=              2.1860
 Hexadecapole moment (field-independent basis, Debye-Ang**3):
 XXXX=           -511.9185 YYYY=           -306.2222 ZZZZ=            -99.0005 XXXY=             -6.3476
 XXXZ=              1.1626 YYYX=             -1.3468 YYYZ=             -0.6206 ZZZX=              3.5057
 ZZZY=             -5.8375 XXYY=           -122.4498 XXZZ=           -109.3320 YYZZ=            -74.4121
 XXYZ=             -4.6232 YYXZ=             -4.9212 ZZXY=             -7.7715
 N-N= 2.601314366067D+02 E-N=-1.144681767284D+03  KE= 2.669650833886D+02
 1\1\GINC-ROCK\SP\RMP2-FC\CC-pVTZ\C4H12N2\STYLIANAKIS\19-Mar-2016\0\\# 
 mp2/cc-pVTZ\\butanediamine_gGGG_single_point\\0,1\C\C,1,1.537714\C,2,1
 .542852,1,118.086\C,3,1.535031,2,118.001,1,72.246,0\N,4,1.465589,3,112
 .516,2,-76.349,0\N,1,1.475013,2,112.56,3,-79.503,0\H,1,1.102249,2,108.
 291,3,156.256,0\H,1,1.096302,2,109.502,3,40.,0\H,6,1.017013,1,110.684,
 2,176.731,0\H,6,1.017765,1,110.402,2,-65.187,0\H,4,1.096991,3,107.784,
 2,165.182,0\H,4,1.107024,3,108.593,2,50.277,0\H,5,1.016308,4,110.589,3
 ,-171.887,0\H,5,1.021919,4,109.276,3,68.901,0\H,2,1.101184,1,108.833,6
 ,46.186,0\H,2,1.098067,1,106.797,6,159.696,0\H,3,1.098708,2,106.751,1,
 -166.979,0\H,3,1.09831,2,109.428,1,-51.957,0\\Version=EM64L-G09RevA.01
 \State=1-A\HF=-267.4381404\MP2=-268.5789329\RMSD=6.097e-09\PG=C01 [X(C
 4H12N2)]\\@


 FROM AN ANONYMOUS WRITER, ON PERSPECTIVE:

 MAN, DESPITE HIS ARTISTIC PRETENSIONS, HIS SOPHISTICATION AND MANY 
 ACCOMPLISHMENTS, OWES THE FACT OF HIS EXISTENCE TO A SIX-INCH LAYER OF 
 TOPSOIL AND THE FACT THAT IT RAINS.
 Job cpu time:  0 days  1 hours 17 minutes 50.0 seconds.
 File lengths (MBytes):  RWF=     69 Int=      0 D2E=      0 Chk=      6 Scr=      1
 Normal termination of Gaussian 09 at Sat Mar 19 23:56:37 2016.
