 Entering Gaussian System, Link 0=g09
 Input=butanediamine_H+_tTTT.gjf
 Output=butanediamine_H+_tTTT.out
 Initial command:
 /usr/local/g09/l1.exe /home/scratch/stylianakis/Gau-1904.inp -scrdir=/home/scratch/stylianakis/
 Entering Link 1 = /usr/local/g09/l1.exe PID=      1905.
  
 Copyright (c) 1988,1990,1992,1993,1995,1998,2003,2009, Gaussian, Inc.
                  All Rights Reserved.
  
 This is part of the Gaussian(R) 09 program.  It is based on
 the Gaussian(R) 03 system (copyright 2003, Gaussian, Inc.),
 the Gaussian(R) 98 system (copyright 1998, Gaussian, Inc.),
 the Gaussian(R) 94 system (copyright 1995, Gaussian, Inc.),
 the Gaussian 92(TM) system (copyright 1992, Gaussian, Inc.),
 the Gaussian 90(TM) system (copyright 1990, Gaussian, Inc.),
 the Gaussian 88(TM) system (copyright 1988, Gaussian, Inc.),
 the Gaussian 86(TM) system (copyright 1986, Carnegie Mellon
 University), and the Gaussian 82(TM) system (copyright 1983,
 Carnegie Mellon University). Gaussian is a federally registered
 trademark of Gaussian, Inc.
  
 This software contains proprietary and confidential information,
 including trade secrets, belonging to Gaussian, Inc.
  
 This software is provided under written license and may be
 used, copied, transmitted, or stored only in accord with that
 written license.
  
 The following legend is applicable only to US Government
 contracts under FAR:
  
                    RESTRICTED RIGHTS LEGEND
  
 Use, reproduction and disclosure by the US Government is
 subject to restrictions as set forth in subparagraphs (a)
 and (c) of the Commercial Computer Software - Restricted
 Rights clause in FAR 52.227-19.
  
 Gaussian, Inc.
 340 Quinnipiac St., Bldg. 40, Wallingford CT 06492
  
  
 ---------------------------------------------------------------
 Warning -- This program may not be used in any manner that
 competes with the business of Gaussian, Inc. or will provide
 assistance to any competitor of Gaussian, Inc.  The licensee
 of this program is prohibited from giving any competitor of
 Gaussian, Inc. access to this program.  By using this program,
 the user acknowledges that Gaussian, Inc. is engaged in the
 business of creating and licensing software in the field of
 computational chemistry and represents and warrants to the
 licensee that it is not a competitor of Gaussian, Inc. and that
 it will not use this program in any manner prohibited above.
 ---------------------------------------------------------------
  

 Cite this work as:
 Gaussian 09, Revision A.01,
 M. J. Frisch, G. W. Trucks, H. B. Schlegel, G. E. Scuseria, 
 M. A. Robb, J. R. Cheeseman, G. Scalmani, V. Barone, B. Mennucci, 
 G. A. Petersson, H. Nakatsuji, M. Caricato, X. Li, H. P. Hratchian, 
 A. F. Izmaylov, J. Bloino, G. Zheng, J. L. Sonnenberg, M. Hada, 
 M. Ehara, K. Toyota, R. Fukuda, J. Hasegawa, M. Ishida, T. Nakajima, 
 Y. Honda, O. Kitao, H. Nakai, T. Vreven, J. A. Montgomery, Jr., 
 J. E. Peralta, F. Ogliaro, M. Bearpark, J. J. Heyd, E. Brothers, 
 K. N. Kudin, V. N. Staroverov, R. Kobayashi, J. Normand, 
 K. Raghavachari, A. Rendell, J. C. Burant, S. S. Iyengar, J. Tomasi, 
 M. Cossi, N. Rega, J. M. Millam, M. Klene, J. E. Knox, J. B. Cross, 
 V. Bakken, C. Adamo, J. Jaramillo, R. Gomperts, R. E. Stratmann, 
 O. Yazyev, A. J. Austin, R. Cammi, C. Pomelli, J. W. Ochterski, 
 R. L. Martin, K. Morokuma, V. G. Zakrzewski, G. A. Voth, 
 P. Salvador, J. J. Dannenberg, S. Dapprich, A. D. Daniels, 
 O. Farkas, J. B. Foresman, J. V. Ortiz, J. Cioslowski, 
 and D. J. Fox, Gaussian, Inc., Wallingford CT, 2009.
 
 ******************************************
 Gaussian 09:  EM64L-G09RevA.01  8-May-2009
                20-Mar-2016 
 ******************************************
 %mem=16000Mb
 %nproc=8
 Will use up to    8 processors via shared memory.
 -------------
 # mp2/cc-pVTZ
 -------------
 1/38=1/1;
 2/12=2,17=6,18=5,40=1/2;
 3/5=16,6=1,11=9,16=1,25=1,30=1/1,2,3;
 4//1;
 5/5=2,38=5/2;
 8/10=1/1;
 9/16=-3/6;
 6/7=2,8=2,9=2,10=2/1;
 99/5=1,9=1/99;
 ----------------------------------
 butanediamine_H+_tTTT_single_point
 ----------------------------------
 Symbolic Z-matrix:
 Charge =  1 Multiplicity = 1
 c
 c                    1    cc2
 c                    2    cc3      1    ccc3
 c                    3    cc4      2    ccc4     1    dih4     0
 n                    4    nc5      3    ncc5     2    dih5     0
 n                    1    nc6      2    ncc6     3    dih6     0
 h                    1    hc7      2    hcc7     3    dih7     0
 h                    1    hc8      2    hcc8     3    dih8     0
 h                    6    hn9      1    hnc9     2    dih9     0
 h                    6    hn10     1    hnc10    2    dih10    0
 h                    6    hn11     1    hnc11    2    dih11    0
 h                    4    hc12     3    hcc12    2    dih12    0
 h                    4    hc13     3    hcc13    2    dih13    0
 h                    5    hn14     4    hnc14    3    dih14    0
 h                    5    hn15     4    hnc15    3    dih15    0
 h                    2    hc16     1    hcc16    6    dih16    0
 h                    2    hc17     1    hcc17    6    dih17    0
 h                    3    hc18     2    hcc18    1    dih18    0
 h                    3    hc19     2    hcc19    1    dih19    0
       Variables:
  cc2                   1.52204                  
  cc3                   1.54099                  
  ccc3                111.369                    
  cc4                   1.54719                  
  ccc4                111.948                    
  dih4               -180.                       
  nc5                   1.44973                  
  ncc5                116.236                    
  dih5               -180.                       
  nc6                   1.53526                  
  ncc6                110.944                    
  dih6               -179.999                    
  hc7                   1.0925                   
  hcc7                112.512                    
  dih7                 61.752                    
  hc8                   1.0925                   
  hcc8                112.512                    
  dih8                -61.751                    
  hn9                   1.02601                  
  hnc9                110.928                    
  dih9                 59.523                    
  hn10                  1.02597                  
  hnc10               112.068                    
  dih10               179.999                    
  hn11                  1.02601                  
  hnc11               110.928                    
  dih11               -59.524                    
  hc12                  1.09754                  
  hcc12               108.955                    
  dih12                57.824                    
  hc13                  1.09754                  
  hcc13               108.955                    
  dih13               -57.823                    
  hn14                  1.01455                  
  hnc14               113.481                    
  dih14               -62.794                    
  hn15                  1.01455                  
  hnc15               113.481                    
  dih15                62.792                    
  hc16                  1.09889                  
  hcc16               109.769                    
  dih16               -58.842                    
  hc17                  1.09889                  
  hcc17               109.769                    
  dih17                58.844                    
  hc18                  1.09794                  
  hcc18               109.709                    
  dih18               -58.606                    
  hc19                  1.09794                  
  hcc19               109.709                    
  dih19                58.607                    
 
                          Input orientation:                          
 ---------------------------------------------------------------------
 Center     Atomic      Atomic             Coordinates (Angstroms)
 Number     Number       Type             X           Y           Z
 ---------------------------------------------------------------------
      1          6           0        0.000000    0.000000    0.000000
      2          6           0        0.000000    0.000000    1.522043
      3          6           0        1.435055    0.000000    2.083540
      4          6           0        1.450690    0.000000    3.630649
      5          7           0        2.757482    0.000000    4.258357
      6          7           0       -1.433822    0.000025   -0.548785
      7          1           0        0.477666   -0.889055   -0.418292
      8          1           0        0.477682    0.889046   -0.418292
      9          1           0       -1.949824    0.825952   -0.225845
     10          1           0       -1.453948    0.000042   -1.574561
     11          1           0       -1.949848   -0.825893   -0.225858
     12          1           0        0.901550   -0.878601    3.992725
     13          1           0        0.901535    0.878591    3.992725
     14          1           0        3.306069   -0.827587    4.049902
     15          1           0        3.306082    0.827573    4.049876
     16          1           0       -0.535043    0.884960    1.893721
     17          1           0       -0.535043   -0.884960    1.893721
     18          1           0        1.976061   -0.882300    1.717041
     19          1           0        1.976056    0.882309    1.717055
 ---------------------------------------------------------------------
                    Distance matrix (angstroms):
                    1          2          3          4          5
     1  C    0.000000
     2  C    1.522043   0.000000
     3  C    2.529925   1.540994   0.000000
     4  C    3.909746   2.559437   1.547188   0.000000
     5  N    5.073196   3.884729   2.545318   1.449732   0.000000
     6  N    1.535256   2.518765   3.893532   5.078196   6.377747
     7  H    1.092498   2.187118   2.822441   4.258065   5.278165
     8  H    1.092498   2.187118   2.822433   4.258060   5.278157
     9  H    2.129558   2.745746   4.180055   5.207517   6.553548
    10  H    2.143177   3.420953   4.661334   5.960799   7.194378
    11  H    2.129558   2.745754   4.180070   5.207533   6.553567
    12  H    4.186477   2.772905   2.168307   1.097540   2.070503
    13  H    4.186472   2.772897   2.168307   1.097540   2.070513
    14  H    5.293080   4.243238   2.837635   2.074393   1.014545
    15  H    5.293066   4.243229   2.837621   2.074393   1.014546
    16  H    2.157685   1.098895   2.168058   2.782662   4.149142
    17  H    2.157685   1.098895   2.168058   2.782662   4.149142
    18  H    2.762517   2.172854   1.097935   2.171719   2.801314
    19  H    2.762525   2.172854   1.097935   2.171709   2.801306
                    6          7          8          9         10
     6  N    0.000000
     7  H    2.112174   0.000000
     8  H    2.112163   1.778101   0.000000
     9  H    1.026014   2.978422   2.435940   0.000000
    10  H    1.025973   2.420451   2.420430   1.657425   0.000000
    11  H    1.026014   2.435948   2.978414   1.651845   1.657433
    12  H    5.181821   4.431350   4.770882   5.369560   6.108605
    13  H    5.181804   4.770882   4.431347   5.092087   6.108586
    14  H    6.655782   5.288516   5.559799   6.974283   7.414669
    15  H    6.655765   5.559791   5.288492   6.775422   7.414646
    16  H    2.748954   3.085144   2.524091   2.549048   3.695463
    17  H    2.748970   2.524085   3.085144   3.069427   3.695483
    18  H    4.188051   2.608616   3.153166   4.701649   4.835094
    19  H    4.188045   3.153190   2.608616   4.380704   4.835086
                   11         12         13         14         15
    11  H    0.000000
    12  H    5.092121   0.000000
    13  H    5.369553   1.757193   0.000000
    14  H    6.775455   2.405740   2.948915   0.000000
    15  H    6.974285   2.948910   2.405768   1.655159   0.000000
    16  H    3.069414   3.095120   2.543544   4.726106   4.405286
    17  H    2.549074   2.543553   3.095108   4.405287   4.726100
    18  H    4.380730   2.516610   3.071496   2.685918   3.183510
    19  H    4.701657   3.071488   2.516602   3.183528   2.685893
                   16         17         18         19
    16  H    0.000000
    17  H    1.769920   0.000000
    18  H    3.075723   2.517314   0.000000
    19  H    2.517307   3.075723   1.764609   0.000000
 Stoichiometry    C4H13N2(1+)
 Framework group  C1[X(C4H13N2)]
 Deg. of freedom    51
 Full point group                 C1      NOp   1
 Largest Abelian subgroup         C1      NOp   1
 Largest concise Abelian subgroup C1      NOp   1
                         Standard orientation:                         
 ---------------------------------------------------------------------
 Center     Atomic      Atomic             Coordinates (Angstroms)
 Number     Number       Type             X           Y           Z
 ---------------------------------------------------------------------
      1          6           0        1.790032    0.573613    0.000009
      2          6           0        0.594063   -0.367807    0.000009
      3          6           0       -0.734759    0.412511    0.000000
      4          6           0       -1.960094   -0.532129    0.000000
      5          7           0       -3.261609    0.106450   -0.000007
      6          7           0        3.108102   -0.213598   -0.000008
      7          1           0        1.823260    1.207675    0.889060
      8          1           0        1.823257    1.207678   -0.889041
      9          1           0        3.173510   -0.818805   -0.825932
     10          1           0        3.926570    0.405055   -0.000025
     11          1           0        3.173529   -0.818807    0.825914
     12          1           0       -1.904948   -1.187573    0.878605
     13          1           0       -1.904933   -1.187594   -0.878587
     14          1           0       -3.437129    0.666451    0.827576
     15          1           0       -3.437111    0.666469   -0.827583
     16          1           0        0.632952   -1.018123   -0.884947
     17          1           0        0.632945   -1.018114    0.884973
     18          1           0       -0.781405    1.064307    0.882296
     19          1           0       -0.781406    1.064285   -0.882312
 ---------------------------------------------------------------------
 Rotational constants (GHZ):     15.1234273      1.0887572      1.0539881
 Standard basis: CC-pVTZ (5D, 7F)
 There are   362 symmetry adapted basis functions of A   symmetry.
 Integral buffers will be    131072 words long.
 Raffenetti 1 integral format.
 Two-electron integral symmetry is turned on.
   362 basis functions,   533 primitive gaussians,   405 cartesian basis functions
    25 alpha electrons       25 beta electrons
       nuclear repulsion energy       253.9462809235 Hartrees.
 NAtoms=   19 NActive=   19 NUniq=   19 SFac= 7.50D-01 NAtFMM=   80 NAOKFM=F Big=F
 One-electron integrals computed using PRISM.
 NBasis=   362 RedAO= T  NBF=   362
 NBsUse=   362 1.00D-06 NBFU=   362
 Harris functional with IExCor=  205 diagonalized for initial guess.
 ExpMin= 1.03D-01 ExpMax= 1.14D+04 ExpMxC= 3.89D+02 IAcc=1 IRadAn=         1 AccDes= 0.00D+00
 HarFok:  IExCor=  205 AccDes= 0.00D+00 IRadAn=         1 IDoV= 1
 ScaDFX=  1.000000  1.000000  1.000000  1.000000
 FoFCou: FMM=F IPFlag=           0 FMFlag=      100000 FMFlg1=           0
         NFxFlg=           0 DoJE=T BraDBF=F KetDBF=T FulRan=T
         Omega=  0.000000  0.000000  1.000000  0.000000  0.000000 ICntrl=     500 IOpCl=  0
         NMat0=    1 NMatS0=    1 NMatT0=    0 NMatD0=    1 NMtDS0=    0 NMtDT0=    0
         I1Cent=           4 NGrid=           0.
 Petite list used in FoFCou.
 Initial guess orbital symmetries:
       Occupied  (A) (A) (A) (A) (A) (A) (A) (A) (A) (A) (A) (A)
                 (A) (A) (A) (A) (A) (A) (A) (A) (A) (A) (A) (A)
                 (A)
       Virtual   (A) (A) (A) (A) (A) (A) (A) (A) (A) (A) (A) (A)
                 (A) (A) (A) (A) (A) (A) (A) (A) (A) (A) (A) (A)
                 (A) (A) (A) (A) (A) (A) (A) (A) (A) (A) (A) (A)
                 (A) (A) (A) (A) (A) (A) (A) (A) (A) (A) (A) (A)
                 (A) (A) (A) (A) (A) (A) (A) (A) (A) (A) (A) (A)
                 (A) (A) (A) (A) (A) (A) (A) (A) (A) (A) (A) (A)
                 (A) (A) (A) (A) (A) (A) (A) (A) (A) (A) (A) (A)
                 (A) (A) (A) (A) (A) (A) (A) (A) (A) (A) (A) (A)
                 (A) (A) (A) (A) (A) (A) (A) (A) (A) (A) (A) (A)
                 (A) (A) (A) (A) (A) (A) (A) (A) (A) (A) (A) (A)
                 (A) (A) (A) (A) (A) (A) (A) (A) (A) (A) (A) (A)
                 (A) (A) (A) (A) (A) (A) (A) (A) (A) (A) (A) (A)
                 (A) (A) (A) (A) (A) (A) (A) (A) (A) (A) (A) (A)
                 (A) (A) (A) (A) (A) (A) (A) (A) (A) (A) (A) (A)
                 (A) (A) (A) (A) (A) (A) (A) (A) (A) (A) (A) (A)
                 (A) (A) (A) (A) (A) (A) (A) (A) (A) (A) (A) (A)
                 (A) (A) (A) (A) (A) (A) (A) (A) (A) (A) (A) (A)
                 (A) (A) (A) (A) (A) (A) (A) (A) (A) (A) (A) (A)
                 (A) (A) (A) (A) (A) (A) (A) (A) (A) (A) (A) (A)
                 (A) (A) (A) (A) (A) (A) (A) (A) (A) (A) (A) (A)
                 (A) (A) (A) (A) (A) (A) (A) (A) (A) (A) (A) (A)
                 (A) (A) (A) (A) (A) (A) (A) (A) (A) (A) (A) (A)
                 (A) (A) (A) (A) (A) (A) (A) (A) (A) (A) (A) (A)
                 (A) (A) (A) (A) (A) (A) (A) (A) (A) (A) (A) (A)
                 (A) (A) (A) (A) (A) (A) (A) (A) (A) (A) (A) (A)
                 (A) (A) (A) (A) (A) (A) (A) (A) (A) (A) (A) (A)
                 (A) (A) (A) (A) (A) (A) (A) (A) (A) (A) (A) (A)
                 (A) (A) (A) (A) (A) (A) (A) (A) (A) (A) (A) (A)
                 (A)
 The electronic state of the initial guess is 1-A.
 Requested convergence on RMS density matrix=1.00D-08 within 128 cycles.
 Requested convergence on MAX density matrix=1.00D-06.
 Requested convergence on             energy=1.00D-06.
 No special actions if energy rises.
 Integral accuracy reduced to 1.0D-05 until final iterations.
 Initial convergence to 1.0D-05 achieved.  Increase integral accuracy.
 SCF Done:  E(RHF) =  -267.813703818     A.U. after   11 cycles
             Convg  =    0.8181D-08             -V/T =  2.0020
 ExpMin= 1.03D-01 ExpMax= 1.14D+04 ExpMxC= 3.89D+02 IAcc=1 IRadAn=         1 AccDes= 0.00D+00
 HarFok:  IExCor=  205 AccDes= 0.00D+00 IRadAn=         1 IDoV=-2
 ScaDFX=  1.000000  1.000000  1.000000  1.000000
 Range of M.O.s used for correlation:     7   362
 NBasis=   362 NAE=    25 NBE=    25 NFC=     6 NFV=     0
 NROrb=    356 NOA=    19 NOB=    19 NVA=   337 NVB=   337

 **** Warning!!: The largest alpha MO coefficient is  0.12150034D+02

 Fully direct method using O(OVN) memory.
 JobTyp=1 Pass  1:  I=   1 to  19 NPSUse=  8 ParTrn=T ParDer=T DoDerP=F.
 Spin components of T(2) and E(2):
     alpha-alpha T2 =       0.3987445444D-01 E2=     -0.1273811040D+00
     alpha-beta  T2 =       0.2498581609D+00 E2=     -0.8732762884D+00
     beta-beta   T2 =       0.3987445444D-01 E2=     -0.1273811040D+00
 ANorm=    0.1153085890D+01
 E2 =    -0.1128038496D+01 EUMP2 =    -0.26894174231407D+03

 **********************************************************************

            Population analysis using the SCF density.

 **********************************************************************

 Orbital symmetries:
       Occupied  (A) (A) (A) (A) (A) (A) (A) (A) (A) (A) (A) (A)
                 (A) (A) (A) (A) (A) (A) (A) (A) (A) (A) (A) (A)
                 (A)
       Virtual   (A) (A) (A) (A) (A) (A) (A) (A) (A) (A) (A) (A)
                 (A) (A) (A) (A) (A) (A) (A) (A) (A) (A) (A) (A)
                 (A) (A) (A) (A) (A) (A) (A) (A) (A) (A) (A) (A)
                 (A) (A) (A) (A) (A) (A) (A) (A) (A) (A) (A) (A)
                 (A) (A) (A) (A) (A) (A) (A) (A) (A) (A) (A) (A)
                 (A) (A) (A) (A) (A) (A) (A) (A) (A) (A) (A) (A)
                 (A) (A) (A) (A) (A) (A) (A) (A) (A) (A) (A) (A)
                 (A) (A) (A) (A) (A) (A) (A) (A) (A) (A) (A) (A)
                 (A) (A) (A) (A) (A) (A) (A) (A) (A) (A) (A) (A)
                 (A) (A) (A) (A) (A) (A) (A) (A) (A) (A) (A) (A)
                 (A) (A) (A) (A) (A) (A) (A) (A) (A) (A) (A) (A)
                 (A) (A) (A) (A) (A) (A) (A) (A) (A) (A) (A) (A)
                 (A) (A) (A) (A) (A) (A) (A) (A) (A) (A) (A) (A)
                 (A) (A) (A) (A) (A) (A) (A) (A) (A) (A) (A) (A)
                 (A) (A) (A) (A) (A) (A) (A) (A) (A) (A) (A) (A)
                 (A) (A) (A) (A) (A) (A) (A) (A) (A) (A) (A) (A)
                 (A) (A) (A) (A) (A) (A) (A) (A) (A) (A) (A) (A)
                 (A) (A) (A) (A) (A) (A) (A) (A) (A) (A) (A) (A)
                 (A) (A) (A) (A) (A) (A) (A) (A) (A) (A) (A) (A)
                 (A) (A) (A) (A) (A) (A) (A) (A) (A) (A) (A) (A)
                 (A) (A) (A) (A) (A) (A) (A) (A) (A) (A) (A) (A)
                 (A) (A) (A) (A) (A) (A) (A) (A) (A) (A) (A) (A)
                 (A) (A) (A) (A) (A) (A) (A) (A) (A) (A) (A) (A)
                 (A) (A) (A) (A) (A) (A) (A) (A) (A) (A) (A) (A)
                 (A) (A) (A) (A) (A) (A) (A) (A) (A) (A) (A) (A)
                 (A) (A) (A) (A) (A) (A) (A) (A) (A) (A) (A) (A)
                 (A) (A) (A) (A) (A) (A) (A) (A) (A) (A) (A) (A)
                 (A) (A) (A) (A) (A) (A) (A) (A) (A) (A) (A) (A)
                 (A)
 The electronic state is 1-A.
 Alpha  occ. eigenvalues --  -15.89157 -15.63415 -11.47929 -11.40056 -11.36505
 Alpha  occ. eigenvalues --  -11.36165  -1.50304  -1.28213  -1.23310  -1.11938
 Alpha  occ. eigenvalues --   -1.01972  -0.96596  -0.95932  -0.93116  -0.83941
 Alpha  occ. eigenvalues --   -0.81567  -0.77606  -0.73966  -0.71722  -0.69281
 Alpha  occ. eigenvalues --   -0.66687  -0.65342  -0.62762  -0.60101  -0.48444
 Alpha virt. eigenvalues --   -0.07501  -0.01168  -0.01140  -0.00070   0.04022
 Alpha virt. eigenvalues --    0.04687   0.04907   0.07135   0.08748   0.09527
 Alpha virt. eigenvalues --    0.10617   0.12332   0.13675   0.15480   0.16243
 Alpha virt. eigenvalues --    0.17823   0.19598   0.23054   0.24010   0.25862
 Alpha virt. eigenvalues --    0.26459   0.30879   0.31454   0.32596   0.34305
 Alpha virt. eigenvalues --    0.35833   0.38872   0.39213   0.39556   0.41432
 Alpha virt. eigenvalues --    0.41977   0.42847   0.44726   0.45957   0.46285
 Alpha virt. eigenvalues --    0.46835   0.47719   0.49397   0.49958   0.50431
 Alpha virt. eigenvalues --    0.52578   0.53635   0.54854   0.55170   0.56621
 Alpha virt. eigenvalues --    0.56712   0.59728   0.63428   0.64277   0.66082
 Alpha virt. eigenvalues --    0.66669   0.70789   0.72849   0.74066   0.75861
 Alpha virt. eigenvalues --    0.77841   0.80528   0.82740   0.83660   0.83827
 Alpha virt. eigenvalues --    0.86102   0.88290   0.90790   0.92391   0.94919
 Alpha virt. eigenvalues --    0.97056   0.99104   1.01218   1.02411   1.05339
 Alpha virt. eigenvalues --    1.06856   1.08883   1.08997   1.10856   1.12818
 Alpha virt. eigenvalues --    1.14569   1.15044   1.16233   1.17658   1.18433
 Alpha virt. eigenvalues --    1.19882   1.20250   1.21094   1.23835   1.25262
 Alpha virt. eigenvalues --    1.25818   1.26982   1.27246   1.29597   1.31228
 Alpha virt. eigenvalues --    1.31257   1.33859   1.34686   1.37320   1.38483
 Alpha virt. eigenvalues --    1.41802   1.41950   1.42665   1.43203   1.45082
 Alpha virt. eigenvalues --    1.45452   1.47409   1.48704   1.51673   1.52510
 Alpha virt. eigenvalues --    1.55447   1.57466   1.57941   1.58842   1.62443
 Alpha virt. eigenvalues --    1.63892   1.66203   1.66603   1.70889   1.73697
 Alpha virt. eigenvalues --    1.75922   1.78492   1.78700   1.82414   1.84524
 Alpha virt. eigenvalues --    1.87102   1.93018   2.00694   2.02504   2.34964
 Alpha virt. eigenvalues --    2.41508   2.42461   2.46842   2.49968   2.54258
 Alpha virt. eigenvalues --    2.54415   2.58088   2.60935   2.61261   2.62520
 Alpha virt. eigenvalues --    2.64035   2.67491   2.70256   2.72102   2.73693
 Alpha virt. eigenvalues --    2.76282   2.77306   2.81359   2.81985   2.83465
 Alpha virt. eigenvalues --    2.84935   2.86408   2.88370   2.92175   2.94182
 Alpha virt. eigenvalues --    2.94362   2.97443   2.98105   3.00885   3.07102
 Alpha virt. eigenvalues --    3.09593   3.10175   3.14249   3.14706   3.16697
 Alpha virt. eigenvalues --    3.16826   3.18335   3.19468   3.21709   3.22096
 Alpha virt. eigenvalues --    3.22573   3.23221   3.24879   3.26743   3.27199
 Alpha virt. eigenvalues --    3.28085   3.29029   3.29103   3.29892   3.31644
 Alpha virt. eigenvalues --    3.35179   3.35975   3.36750   3.36992   3.37804
 Alpha virt. eigenvalues --    3.39661   3.40053   3.42378   3.44581   3.45027
 Alpha virt. eigenvalues --    3.46260   3.46730   3.48457   3.53626   3.56561
 Alpha virt. eigenvalues --    3.56772   3.57271   3.58266   3.61035   3.61355
 Alpha virt. eigenvalues --    3.63373   3.65420   3.67200   3.71080   3.71545
 Alpha virt. eigenvalues --    3.72894   3.73427   3.75072   3.75116   3.77516
 Alpha virt. eigenvalues --    3.77800   3.81513   3.83590   3.85910   3.87555
 Alpha virt. eigenvalues --    3.89085   3.90267   3.90615   3.92900   3.94090
 Alpha virt. eigenvalues --    3.94141   3.95674   3.97061   3.98989   3.99866
 Alpha virt. eigenvalues --    4.01067   4.01826   4.04351   4.06516   4.09171
 Alpha virt. eigenvalues --    4.09743   4.11754   4.12810   4.13137   4.13434
 Alpha virt. eigenvalues --    4.16491   4.16955   4.18480   4.21601   4.22828
 Alpha virt. eigenvalues --    4.24855   4.25773   4.27364   4.27779   4.29015
 Alpha virt. eigenvalues --    4.30353   4.31321   4.33345   4.34554   4.36245
 Alpha virt. eigenvalues --    4.38210   4.38809   4.41576   4.42040   4.43266
 Alpha virt. eigenvalues --    4.43469   4.45522   4.48360   4.48912   4.50463
 Alpha virt. eigenvalues --    4.51456   4.53703   4.56154   4.56328   4.58083
 Alpha virt. eigenvalues --    4.59411   4.61534   4.62950   4.66177   4.69776
 Alpha virt. eigenvalues --    4.74489   4.78187   4.82718   4.86227   4.86428
 Alpha virt. eigenvalues --    4.87634   4.89292   4.94706   4.95797   5.02526
 Alpha virt. eigenvalues --    5.03406   5.06951   5.07176   5.12379   5.13654
 Alpha virt. eigenvalues --    5.15326   5.16166   5.18846   5.18946   5.22389
 Alpha virt. eigenvalues --    5.23400   5.26122   5.26677   5.29679   5.32659
 Alpha virt. eigenvalues --    5.35518   5.36039   5.42564   5.47287   5.47459
 Alpha virt. eigenvalues --    5.53809   5.55847   5.56962   5.58778   5.59870
 Alpha virt. eigenvalues --    5.64954   5.66307   5.67495   5.70038   5.71479
 Alpha virt. eigenvalues --    5.73932   5.74239   5.81714   5.84832   5.87964
 Alpha virt. eigenvalues --    5.92739   5.95972   5.98476   6.00189   6.00322
 Alpha virt. eigenvalues --    6.02907   6.09615   6.10208   6.11938   6.16284
 Alpha virt. eigenvalues --    6.20094   6.22879   6.24525   6.26194   6.30199
 Alpha virt. eigenvalues --    6.36741   6.50014   6.61461   7.01128   7.04603
 Alpha virt. eigenvalues --    7.17559  12.66753  12.79567  13.03689  13.46250
 Alpha virt. eigenvalues --   13.86809  14.37020
          Condensed to atoms (all electrons):
              1          2          3          4          5          6
     1  C    4.821325   0.320717  -0.029387   0.002996  -0.000318   0.254230
     2  C    0.320717   4.969260   0.270246  -0.033715   0.007318  -0.027275
     3  C   -0.029387   0.270246   5.025709   0.358988  -0.069953  -0.000374
     4  C    0.002996  -0.033715   0.358988   4.639626   0.359843  -0.000038
     5  N   -0.000318   0.007318  -0.069953   0.359843   6.312575   0.000001
     6  N    0.254230  -0.027275  -0.000374  -0.000038   0.000001   5.655014
     7  H    0.432630  -0.036570   0.002790  -0.000053  -0.000031  -0.024407
     8  H    0.432631  -0.036571   0.002790  -0.000053  -0.000031  -0.024408
     9  H   -0.017446  -0.001170   0.000190  -0.000006   0.000000   0.383289
    10  H   -0.015756   0.003791  -0.000176   0.000006   0.000000   0.391167
    11  H   -0.017446  -0.001170   0.000190  -0.000006   0.000000   0.383289
    12  H   -0.000131  -0.001157  -0.052102   0.432090  -0.027761   0.000008
    13  H   -0.000131  -0.001157  -0.052103   0.432089  -0.027760   0.000008
    14  H    0.000001   0.000568  -0.002404  -0.041597   0.403180   0.000000
    15  H    0.000001   0.000569  -0.002404  -0.041598   0.403179   0.000000
    16  H   -0.034493   0.419192  -0.026142  -0.000113   0.000232  -0.002187
    17  H   -0.034493   0.419191  -0.026141  -0.000113   0.000232  -0.002187
    18  H   -0.006223  -0.025712   0.402149  -0.028005   0.005222   0.000180
    19  H   -0.006223  -0.025712   0.402149  -0.028006   0.005222   0.000180
              7          8          9         10         11         12
     1  C    0.432630   0.432631  -0.017446  -0.015756  -0.017446  -0.000131
     2  C   -0.036570  -0.036571  -0.001170   0.003791  -0.001170  -0.001157
     3  C    0.002790   0.002790   0.000190  -0.000176   0.000190  -0.052102
     4  C   -0.000053  -0.000053  -0.000006   0.000006  -0.000006   0.432090
     5  N   -0.000031  -0.000031   0.000000   0.000000   0.000000  -0.027761
     6  N   -0.024407  -0.024408   0.383289   0.391167   0.383289   0.000008
     7  H    0.482155  -0.020843   0.004141  -0.002998  -0.003946   0.000038
     8  H   -0.020843   0.482158  -0.003946  -0.002998   0.004142  -0.000056
     9  H    0.004141  -0.003946   0.470399  -0.022195  -0.021238   0.000006
    10  H   -0.002998  -0.002998  -0.022195   0.457807  -0.022195   0.000000
    11  H   -0.003946   0.004142  -0.021238  -0.022195   0.470399  -0.000012
    12  H    0.000038  -0.000056   0.000006   0.000000  -0.000012   0.572211
    13  H   -0.000056   0.000038  -0.000012   0.000000   0.000006  -0.033815
    14  H   -0.000011   0.000001   0.000000   0.000000   0.000000  -0.007044
    15  H    0.000001  -0.000011   0.000000   0.000000   0.000000   0.007049
    16  H    0.003796  -0.002579   0.002386  -0.000108  -0.000583   0.000294
    17  H   -0.002579   0.003796  -0.000582  -0.000108   0.002386   0.001067
    18  H    0.000010   0.000251  -0.000016  -0.000002   0.000026  -0.003105
    19  H    0.000251   0.000010   0.000026  -0.000002  -0.000016   0.005835
             13         14         15         16         17         18
     1  C   -0.000131   0.000001   0.000001  -0.034493  -0.034493  -0.006223
     2  C   -0.001157   0.000568   0.000569   0.419192   0.419191  -0.025712
     3  C   -0.052103  -0.002404  -0.002404  -0.026142  -0.026141   0.402149
     4  C    0.432089  -0.041597  -0.041598  -0.000113  -0.000113  -0.028005
     5  N   -0.027760   0.403180   0.403179   0.000232   0.000232   0.005222
     6  N    0.000008   0.000000   0.000000  -0.002187  -0.002187   0.000180
     7  H   -0.000056  -0.000011   0.000001   0.003796  -0.002579   0.000010
     8  H    0.000038   0.000001  -0.000011  -0.002579   0.003796   0.000251
     9  H   -0.000012   0.000000   0.000000   0.002386  -0.000582  -0.000016
    10  H    0.000000   0.000000   0.000000  -0.000108  -0.000108  -0.000002
    11  H    0.000006   0.000000   0.000000  -0.000583   0.002386   0.000026
    12  H   -0.033815  -0.007044   0.007049   0.000294   0.001067  -0.003105
    13  H    0.572209   0.007049  -0.007044   0.001067   0.000294   0.005834
    14  H    0.007049   0.532613  -0.046924   0.000005   0.000015   0.002923
    15  H   -0.007044  -0.046924   0.532614   0.000015   0.000005  -0.000100
    16  H    0.001067   0.000005   0.000015   0.540361  -0.027355   0.005023
    17  H    0.000294   0.000015   0.000005  -0.027355   0.540359  -0.002154
    18  H    0.005834   0.002923  -0.000100   0.005023  -0.002154   0.563184
    19  H   -0.003105  -0.000100   0.002923  -0.002155   0.005023  -0.027642
             19
     1  C   -0.006223
     2  C   -0.025712
     3  C    0.402149
     4  C   -0.028006
     5  N    0.005222
     6  N    0.000180
     7  H    0.000251
     8  H    0.000010
     9  H    0.000026
    10  H   -0.000002
    11  H   -0.000016
    12  H    0.005835
    13  H   -0.003105
    14  H   -0.000100
    15  H    0.002923
    16  H   -0.002155
    17  H    0.005023
    18  H   -0.027642
    19  H    0.563186
 Mulliken atomic charges:
              1
     1  C   -0.102481
     2  C   -0.220643
     3  C   -0.204013
     4  C   -0.052334
     5  N   -0.371150
     6  N    0.013509
     7  H    0.165682
     8  H    0.165680
     9  H    0.206174
    10  H    0.213768
    11  H    0.206174
    12  H    0.106587
    13  H    0.106588
    14  H    0.151727
    15  H    0.151726
    16  H    0.123344
    17  H    0.123345
    18  H    0.108159
    19  H    0.108158
 Sum of Mulliken atomic charges =   1.00000
 Mulliken charges with hydrogens summed into heavy atoms:
              1
     1  C    0.228880
     2  C    0.026046
     3  C    0.012304
     4  C    0.160841
     5  N   -0.067697
     6  N    0.639626
 Sum of Mulliken charges with hydrogens summed into heavy atoms =   1.00000
 Electronic spatial extent (au):  <R**2>=           1093.0653
 Charge=              1.0000 electrons
 Dipole moment (field-independent basis, Debye):
    X=             12.4123    Y=              0.4195    Z=              0.0000  Tot=             12.4194
 Quadrupole moment (field-independent basis, Debye-Ang):
   XX=              1.5748   YY=            -34.8748   ZZ=            -33.4372
   XY=             -6.5427   XZ=             -0.0003   YZ=              0.0000
 Traceless Quadrupole moment (field-independent basis, Debye-Ang):
   XX=             23.8205   YY=            -12.6291   ZZ=            -11.1915
   XY=             -6.5427   XZ=             -0.0003   YZ=              0.0000
 Octapole moment (field-independent basis, Debye-Ang**2):
  XXX=            173.3173  YYY=             -0.3029  ZZZ=             -0.0001  XYY=             10.8190
  XXY=             11.0980  XXZ=             -0.0001  XZZ=              5.8069  YZZ=             -0.3241
  YYZ=              0.0000  XYZ=              0.0001
 Hexadecapole moment (field-independent basis, Debye-Ang**3):
 XXXX=           -729.4752 YYYY=           -118.2296 ZZZZ=            -65.8299 XXXY=            -94.2752
 XXXZ=             -0.0045 YYYX=            -10.3702 YYYZ=              0.0001 ZZZX=             -0.0003
 ZZZY=              0.0000 XXYY=           -181.0843 XXZZ=           -161.2661 YYZZ=            -24.4127
 XXYZ=             -0.0006 YYXZ=              0.0000 ZZXY=            -11.1137
 N-N= 2.539462809235D+02 E-N=-1.123291784162D+03  KE= 2.672923466034D+02
 1\1\GINC-ROCK\SP\RMP2-FC\CC-pVTZ\C4H13N2(1+)\STYLIANAKIS\20-Mar-2016\0
 \\# mp2/cc-pVTZ\\butanediamine_H+_tTTT_single_point\\1,1\C\C,1,1.52204
 3\C,2,1.540994,1,111.369\C,3,1.547188,2,111.948,1,-180.,0\N,4,1.449732
 ,3,116.236,2,-180.,0\N,1,1.535256,2,110.944,3,-179.999,0\H,1,1.092498,
 2,112.512,3,61.752,0\H,1,1.092498,2,112.512,3,-61.751,0\H,6,1.026014,1
 ,110.928,2,59.523,0\H,6,1.025973,1,112.068,2,179.999,0\H,6,1.026014,1,
 110.928,2,-59.524,0\H,4,1.09754,3,108.955,2,57.824,0\H,4,1.09754,3,108
 .955,2,-57.823,0\H,5,1.014545,4,113.481,3,-62.794,0\H,5,1.014546,4,113
 .481,3,62.792,0\H,2,1.098895,1,109.769,6,-58.842,0\H,2,1.098895,1,109.
 769,6,58.844,0\H,3,1.097935,2,109.709,1,-58.606,0\H,3,1.097935,2,109.7
 09,1,58.607,0\\Version=EM64L-G09RevA.01\State=1-A\HF=-267.8137038\MP2=
 -268.9417423\RMSD=8.181e-09\PG=C01 [X(C4H13N2)]\\@


 THE MEEK SHALL INHERIT THE EARTH.
 (THE REST OF US WILL ESCAPE TO THE STARS)
 Job cpu time:  0 days  1 hours 11 minutes 51.2 seconds.
 File lengths (MBytes):  RWF=     74 Int=      0 D2E=      0 Chk=      7 Scr=      1
 Normal termination of Gaussian 09 at Sun Mar 20 00:16:58 2016.
