 Entering Gaussian System, Link 0=g09
 Input=ethylenediamine_g+_g+_g+.gjf
 Output=ethylenediamine_g+_g+_g+.out
 Initial command:
 /usr/local/g09/l1.exe /home/scratch/stylianakis/Gau-3953.inp -scrdir=/home/scratch/stylianakis/
 Entering Link 1 = /usr/local/g09/l1.exe PID=      3954.
  
 Copyright (c) 1988,1990,1992,1993,1995,1998,2003,2009, Gaussian, Inc.
                  All Rights Reserved.
  
 This is part of the Gaussian(R) 09 program.  It is based on
 the Gaussian(R) 03 system (copyright 2003, Gaussian, Inc.),
 the Gaussian(R) 98 system (copyright 1998, Gaussian, Inc.),
 the Gaussian(R) 94 system (copyright 1995, Gaussian, Inc.),
 the Gaussian 92(TM) system (copyright 1992, Gaussian, Inc.),
 the Gaussian 90(TM) system (copyright 1990, Gaussian, Inc.),
 the Gaussian 88(TM) system (copyright 1988, Gaussian, Inc.),
 the Gaussian 86(TM) system (copyright 1986, Carnegie Mellon
 University), and the Gaussian 82(TM) system (copyright 1983,
 Carnegie Mellon University). Gaussian is a federally registered
 trademark of Gaussian, Inc.
  
 This software contains proprietary and confidential information,
 including trade secrets, belonging to Gaussian, Inc.
  
 This software is provided under written license and may be
 used, copied, transmitted, or stored only in accord with that
 written license.
  
 The following legend is applicable only to US Government
 contracts under FAR:
  
                    RESTRICTED RIGHTS LEGEND
  
 Use, reproduction and disclosure by the US Government is
 subject to restrictions as set forth in subparagraphs (a)
 and (c) of the Commercial Computer Software - Restricted
 Rights clause in FAR 52.227-19.
  
 Gaussian, Inc.
 340 Quinnipiac St., Bldg. 40, Wallingford CT 06492
  
  
 ---------------------------------------------------------------
 Warning -- This program may not be used in any manner that
 competes with the business of Gaussian, Inc. or will provide
 assistance to any competitor of Gaussian, Inc.  The licensee
 of this program is prohibited from giving any competitor of
 Gaussian, Inc. access to this program.  By using this program,
 the user acknowledges that Gaussian, Inc. is engaged in the
 business of creating and licensing software in the field of
 computational chemistry and represents and warrants to the
 licensee that it is not a competitor of Gaussian, Inc. and that
 it will not use this program in any manner prohibited above.
 ---------------------------------------------------------------
  

 Cite this work as:
 Gaussian 09, Revision A.01,
 M. J. Frisch, G. W. Trucks, H. B. Schlegel, G. E. Scuseria, 
 M. A. Robb, J. R. Cheeseman, G. Scalmani, V. Barone, B. Mennucci, 
 G. A. Petersson, H. Nakatsuji, M. Caricato, X. Li, H. P. Hratchian, 
 A. F. Izmaylov, J. Bloino, G. Zheng, J. L. Sonnenberg, M. Hada, 
 M. Ehara, K. Toyota, R. Fukuda, J. Hasegawa, M. Ishida, T. Nakajima, 
 Y. Honda, O. Kitao, H. Nakai, T. Vreven, J. A. Montgomery, Jr., 
 J. E. Peralta, F. Ogliaro, M. Bearpark, J. J. Heyd, E. Brothers, 
 K. N. Kudin, V. N. Staroverov, R. Kobayashi, J. Normand, 
 K. Raghavachari, A. Rendell, J. C. Burant, S. S. Iyengar, J. Tomasi, 
 M. Cossi, N. Rega, J. M. Millam, M. Klene, J. E. Knox, J. B. Cross, 
 V. Bakken, C. Adamo, J. Jaramillo, R. Gomperts, R. E. Stratmann, 
 O. Yazyev, A. J. Austin, R. Cammi, C. Pomelli, J. W. Ochterski, 
 R. L. Martin, K. Morokuma, V. G. Zakrzewski, G. A. Voth, 
 P. Salvador, J. J. Dannenberg, S. Dapprich, A. D. Daniels, 
 O. Farkas, J. B. Foresman, J. V. Ortiz, J. Cioslowski, 
 and D. J. Fox, Gaussian, Inc., Wallingford CT, 2009.
 
 ******************************************
 Gaussian 09:  EM64L-G09RevA.01  8-May-2009
                20-Mar-2016 
 ******************************************
 %mem=16000Mb
 %nproc=8
 Will use up to    8 processors via shared memory.
 -------------
 # mp2/cc-pVTZ
 -------------
 1/38=1/1;
 2/12=2,17=6,18=5,40=1/2;
 3/5=16,6=1,11=9,16=1,25=1,30=1/1,2,3;
 4//1;
 5/5=2,38=5/2;
 8/10=1/1;
 9/16=-3/6;
 6/7=2,8=2,9=2,10=2/1;
 99/5=1,9=1/99;
 -------------------------------------
 ethylenediamine_g+_g+_g+_single_point
 -------------------------------------
 Symbolic Z-matrix:
 Charge =  0 Multiplicity = 1
 c
 n                    1    nc2
 c                    1    cc3      2    ccn3
 n                    3    nc4      1    ncc4     2    dih4     0
 h                    1    hc5      3    hcc5     4    dih5     0
 h                    1    hc6      3    hcc6     4    dih6     0
 h                    3    hc7      1    hcc7     2    dih7     0
 h                    3    hc8      1    hcc8     2    dih8     0
 h                    2    hn9      1    hnc9     3    dih9     0
 h                    2    hn10     1    hnc10    3    dih10    0
 h                    4    hn11     3    hnc11    1    dih11    0
 h                    4    hn12     3    hnc12    1    dih12    0
       Variables:
  nc2                   1.47066                  
  cc3                   1.5288                   
  ccn3                110.428                    
  nc4                   1.47066                  
  ncc4                110.431                    
  dih4                 57.155                    
  hc5                   1.09627                  
  hcc5                108.695                    
  dih5                175.622                    
  hc6                   1.10197                  
  hcc6                108.796                    
  dih6                -67.315                    
  hc7                   1.09627                  
  hcc7                108.695                    
  dih7                175.625                    
  hc8                   1.10197                  
  hcc8                108.796                    
  dih8                -67.314                    
  hn9                   1.01545                  
  hnc9                111.122                    
  dih9                163.62                     
  hn10                  1.01674                  
  hnc10               109.976                    
  dih10               -78.133                    
  hn11                  1.01544                  
  hnc11               111.124                    
  dih11               163.562                    
  hn12                  1.01673                  
  hnc12               109.982                    
  dih12               -78.182                    
 
                          Input orientation:                          
 ---------------------------------------------------------------------
 Center     Atomic      Atomic             Coordinates (Angstroms)
 Number     Number       Type             X           Y           Z
 ---------------------------------------------------------------------
      1          6           0        0.000000    0.000000    0.000000
      2          7           0        0.000000    0.000000    1.470661
      3          6           0        1.432657    0.000000   -0.533597
      4          7           0        2.174635   -1.157836   -0.012326
      5          1           0       -0.502049    0.912875   -0.341197
      6          1           0       -0.538804   -0.860043   -0.429372
      7          1           0        1.400560   -0.079215   -1.626530
      8          1           0        1.905811    0.962491   -0.280482
      9          1           0       -0.908780    0.267124    1.836583
     10          1           0        0.196503   -0.935145    1.818006
     11          1           0        3.018434   -1.324884   -0.551973
     12          1           0        2.465259   -0.981507    0.945890
 ---------------------------------------------------------------------
                    Distance matrix (angstroms):
                    1          2          3          4          5
     1  C    0.000000
     2  N    1.470661   0.000000
     3  C    1.528801   2.463647   0.000000
     4  N    2.463691   2.875565   1.470660   0.000000
     5  H    1.096271   2.090030   2.147894   3.400094   0.000000
     6  H    1.101973   2.154092   2.153415   2.761405   1.775490
     7  H    2.147892   3.400064   1.096269   2.090041   2.501249
     8  H    2.153410   2.761342   1.101967   2.154057   2.409137
     9  H    2.066464   1.015448   3.342370   3.867353   2.307629
    10  H    2.053839   1.016739   2.816489   2.704202   2.926656
    11  H    3.342295   3.867468   2.066481   1.015441   4.176816
    12  H    2.817014   2.704856   2.053900   1.016726   3.748359
                    6          7          8          9         10
     6  H    0.000000
     7  H    2.409151   0.000000
     8  H    3.052858   1.775465   0.000000
     9  H    2.557722   4.176859   3.589906   0.000000
    10  H    2.365804   3.747958   3.305512   1.633232   0.000000
    11  H    3.589575   2.307353   2.558070   4.864432   3.705670
    12  H    3.306130   2.926612   2.365608   3.706285   2.431047
                   11         12
    11  H    0.000000
    12  H    1.633250   0.000000
 Stoichiometry    C2H8N2
 Framework group  C1[X(C2H8N2)]
 Deg. of freedom    30
 Full point group                 C1      NOp   1
 Largest Abelian subgroup         C1      NOp   1
 Largest concise Abelian subgroup C1      NOp   1
                         Standard orientation:                         
 ---------------------------------------------------------------------
 Center     Atomic      Atomic             Coordinates (Angstroms)
 Number     Number       Type             X           Y           Z
 ---------------------------------------------------------------------
      1          6           0       -0.721792    0.623646   -0.251734
      2          7           0       -1.423579   -0.586639    0.201639
      3          6           0        0.721715    0.623632    0.251774
      4          7           0        1.423567   -0.586602   -0.201634
      5          1           0       -1.239622    1.494973    0.165940
      6          1           0       -0.715275    0.730777   -1.348468
      7          1           0        1.239529    1.495012   -0.165803
      8          1           0        0.715198    0.730679    1.348510
      9          1           0       -2.429596   -0.481444    0.112205
     10          1           0       -1.155796   -1.380021   -0.375072
     11          1           0        2.429616   -0.481042   -0.113072
     12          1           0        1.156488   -1.379909    0.375483
 ---------------------------------------------------------------------
 Rotational constants (GHZ):     14.2366334      5.3383624      4.3242917
 Standard basis: CC-pVTZ (5D, 7F)
 There are   232 symmetry adapted basis functions of A   symmetry.
 Integral buffers will be    131072 words long.
 Raffenetti 1 integral format.
 Two-electron integral symmetry is turned on.
   232 basis functions,   344 primitive gaussians,   260 cartesian basis functions
    17 alpha electrons       17 beta electrons
       nuclear repulsion energy       134.1208091978 Hartrees.
 NAtoms=   12 NActive=   12 NUniq=   12 SFac= 7.50D-01 NAtFMM=   80 NAOKFM=F Big=F
 One-electron integrals computed using PRISM.
 NBasis=   232 RedAO= T  NBF=   232
 NBsUse=   232 1.00D-06 NBFU=   232
 Harris functional with IExCor=  205 diagonalized for initial guess.
 ExpMin= 1.03D-01 ExpMax= 1.14D+04 ExpMxC= 3.89D+02 IAcc=1 IRadAn=         1 AccDes= 0.00D+00
 HarFok:  IExCor=  205 AccDes= 0.00D+00 IRadAn=         1 IDoV= 1
 ScaDFX=  1.000000  1.000000  1.000000  1.000000
 FoFCou: FMM=F IPFlag=           0 FMFlag=      100000 FMFlg1=           0
         NFxFlg=           0 DoJE=T BraDBF=F KetDBF=T FulRan=T
         Omega=  0.000000  0.000000  1.000000  0.000000  0.000000 ICntrl=     500 IOpCl=  0
         NMat0=    1 NMatS0=    1 NMatT0=    0 NMatD0=    1 NMtDS0=    0 NMtDT0=    0
         I1Cent=           4 NGrid=           0.
 Petite list used in FoFCou.
 Initial guess orbital symmetries:
       Occupied  (A) (A) (A) (A) (A) (A) (A) (A) (A) (A) (A) (A)
                 (A) (A) (A) (A) (A)
       Virtual   (A) (A) (A) (A) (A) (A) (A) (A) (A) (A) (A) (A)
                 (A) (A) (A) (A) (A) (A) (A) (A) (A) (A) (A) (A)
                 (A) (A) (A) (A) (A) (A) (A) (A) (A) (A) (A) (A)
                 (A) (A) (A) (A) (A) (A) (A) (A) (A) (A) (A) (A)
                 (A) (A) (A) (A) (A) (A) (A) (A) (A) (A) (A) (A)
                 (A) (A) (A) (A) (A) (A) (A) (A) (A) (A) (A) (A)
                 (A) (A) (A) (A) (A) (A) (A) (A) (A) (A) (A) (A)
                 (A) (A) (A) (A) (A) (A) (A) (A) (A) (A) (A) (A)
                 (A) (A) (A) (A) (A) (A) (A) (A) (A) (A) (A) (A)
                 (A) (A) (A) (A) (A) (A) (A) (A) (A) (A) (A) (A)
                 (A) (A) (A) (A) (A) (A) (A) (A) (A) (A) (A) (A)
                 (A) (A) (A) (A) (A) (A) (A) (A) (A) (A) (A) (A)
                 (A) (A) (A) (A) (A) (A) (A) (A) (A) (A) (A) (A)
                 (A) (A) (A) (A) (A) (A) (A) (A) (A) (A) (A) (A)
                 (A) (A) (A) (A) (A) (A) (A) (A) (A) (A) (A) (A)
                 (A) (A) (A) (A) (A) (A) (A) (A) (A) (A) (A) (A)
                 (A) (A) (A) (A) (A) (A) (A) (A) (A) (A) (A) (A)
                 (A) (A) (A) (A) (A) (A) (A) (A) (A) (A) (A)
 The electronic state of the initial guess is 1-A.
 Requested convergence on RMS density matrix=1.00D-08 within 128 cycles.
 Requested convergence on MAX density matrix=1.00D-06.
 Requested convergence on             energy=1.00D-06.
 No special actions if energy rises.
 Keep R1 ints in memory in canonical form, NReq=584754019.
 SCF Done:  E(RHF) =  -189.347934095     A.U. after   11 cycles
             Convg  =    0.7759D-08             -V/T =  2.0017
 ExpMin= 1.03D-01 ExpMax= 1.14D+04 ExpMxC= 3.89D+02 IAcc=1 IRadAn=         1 AccDes= 0.00D+00
 HarFok:  IExCor=  205 AccDes= 0.00D+00 IRadAn=         1 IDoV=-2
 ScaDFX=  1.000000  1.000000  1.000000  1.000000
 Range of M.O.s used for correlation:     5   232
 NBasis=   232 NAE=    17 NBE=    17 NFC=     4 NFV=     0
 NROrb=    228 NOA=    13 NOB=    13 NVA=   215 NVB=   215

 **** Warning!!: The largest alpha MO coefficient is  0.11313668D+02

 Fully in-core method, ICMem=  1193467056.
 JobTyp=1 Pass  1 fully in-core, NPsUse=  8.
 Spin components of T(2) and E(2):
     alpha-alpha T2 =       0.2803409116D-01 E2=     -0.9080071204D-01
     alpha-beta  T2 =       0.1721394647D+00 E2=     -0.6065359349D+00
     beta-beta   T2 =       0.2803409116D-01 E2=     -0.9080071204D-01
 ANorm=    0.1108245301D+01
 E2 =    -0.7881373590D+00 EUMP2 =    -0.19013607145384D+03

 **********************************************************************

            Population analysis using the SCF density.

 **********************************************************************

 Orbital symmetries:
       Occupied  (A) (A) (A) (A) (A) (A) (A) (A) (A) (A) (A) (A)
                 (A) (A) (A) (A) (A)
       Virtual   (A) (A) (A) (A) (A) (A) (A) (A) (A) (A) (A) (A)
                 (A) (A) (A) (A) (A) (A) (A) (A) (A) (A) (A) (A)
                 (A) (A) (A) (A) (A) (A) (A) (A) (A) (A) (A) (A)
                 (A) (A) (A) (A) (A) (A) (A) (A) (A) (A) (A) (A)
                 (A) (A) (A) (A) (A) (A) (A) (A) (A) (A) (A) (A)
                 (A) (A) (A) (A) (A) (A) (A) (A) (A) (A) (A) (A)
                 (A) (A) (A) (A) (A) (A) (A) (A) (A) (A) (A) (A)
                 (A) (A) (A) (A) (A) (A) (A) (A) (A) (A) (A) (A)
                 (A) (A) (A) (A) (A) (A) (A) (A) (A) (A) (A) (A)
                 (A) (A) (A) (A) (A) (A) (A) (A) (A) (A) (A) (A)
                 (A) (A) (A) (A) (A) (A) (A) (A) (A) (A) (A) (A)
                 (A) (A) (A) (A) (A) (A) (A) (A) (A) (A) (A) (A)
                 (A) (A) (A) (A) (A) (A) (A) (A) (A) (A) (A) (A)
                 (A) (A) (A) (A) (A) (A) (A) (A) (A) (A) (A) (A)
                 (A) (A) (A) (A) (A) (A) (A) (A) (A) (A) (A) (A)
                 (A) (A) (A) (A) (A) (A) (A) (A) (A) (A) (A) (A)
                 (A) (A) (A) (A) (A) (A) (A) (A) (A) (A) (A) (A)
                 (A) (A) (A) (A) (A) (A) (A) (A) (A) (A) (A)
 The electronic state is 1-A.
 Alpha  occ. eigenvalues --  -15.53205 -15.53204 -11.24223 -11.24161  -1.18693
 Alpha  occ. eigenvalues --   -1.14339  -0.95190  -0.79800  -0.67838  -0.65459
 Alpha  occ. eigenvalues --   -0.60061  -0.59337  -0.53422  -0.50541  -0.48647
 Alpha  occ. eigenvalues --   -0.40056  -0.37432
 Alpha virt. eigenvalues --    0.14153   0.16721   0.16894   0.19410   0.21041
 Alpha virt. eigenvalues --    0.22138   0.25163   0.25530   0.34152   0.34365
 Alpha virt. eigenvalues --    0.36311   0.40629   0.47754   0.48907   0.49678
 Alpha virt. eigenvalues --    0.52930   0.54988   0.55075   0.58788   0.60998
 Alpha virt. eigenvalues --    0.61124   0.62696   0.66430   0.68446   0.68536
 Alpha virt. eigenvalues --    0.69009   0.71377   0.71918   0.73378   0.73999
 Alpha virt. eigenvalues --    0.76068   0.79013   0.82822   0.83281   0.92235
 Alpha virt. eigenvalues --    0.94854   0.96084   1.02006   1.03097   1.05282
 Alpha virt. eigenvalues --    1.10163   1.12831   1.15683   1.18901   1.19456
 Alpha virt. eigenvalues --    1.24060   1.26029   1.29951   1.31491   1.32753
 Alpha virt. eigenvalues --    1.34925   1.36872   1.39158   1.42151   1.42567
 Alpha virt. eigenvalues --    1.46058   1.47378   1.49762   1.52551   1.55771
 Alpha virt. eigenvalues --    1.56123   1.59713   1.60097   1.64597   1.67070
 Alpha virt. eigenvalues --    1.72697   1.75387   1.76695   1.77502   1.86047
 Alpha virt. eigenvalues --    1.86966   1.90957   1.91932   1.97518   1.98016
 Alpha virt. eigenvalues --    2.05807   2.05931   2.09011   2.13553   2.58027
 Alpha virt. eigenvalues --    2.64336   2.67811   2.74620   2.77001   2.77613
 Alpha virt. eigenvalues --    2.83078   2.84332   2.89161   2.92256   2.95248
 Alpha virt. eigenvalues --    3.03279   3.06652   3.10466   3.14774   3.17753
 Alpha virt. eigenvalues --    3.18842   3.22583   3.25118   3.26674   3.27820
 Alpha virt. eigenvalues --    3.28736   3.34031   3.36285   3.37967   3.39404
 Alpha virt. eigenvalues --    3.42683   3.43821   3.44803   3.49238   3.53298
 Alpha virt. eigenvalues --    3.57846   3.58446   3.60516   3.61843   3.63454
 Alpha virt. eigenvalues --    3.65558   3.66925   3.70388   3.73844   3.74199
 Alpha virt. eigenvalues --    3.78325   3.79740   3.81393   3.82491   3.84852
 Alpha virt. eigenvalues --    3.86777   3.87450   3.90311   3.92109   3.96517
 Alpha virt. eigenvalues --    3.98900   3.99536   4.04991   4.09507   4.12698
 Alpha virt. eigenvalues --    4.13032   4.15456   4.16747   4.17889   4.18244
 Alpha virt. eigenvalues --    4.24424   4.26567   4.27343   4.29082   4.30472
 Alpha virt. eigenvalues --    4.30638   4.34827   4.35225   4.39051   4.39293
 Alpha virt. eigenvalues --    4.41348   4.45259   4.46027   4.49119   4.53258
 Alpha virt. eigenvalues --    4.57751   4.58738   4.59300   4.62251   4.63953
 Alpha virt. eigenvalues --    4.66688   4.70920   4.73468   4.75533   4.78400
 Alpha virt. eigenvalues --    4.79118   4.86533   4.89196   5.02358   5.02643
 Alpha virt. eigenvalues --    5.06236   5.17156   5.22249   5.22742   5.24976
 Alpha virt. eigenvalues --    5.28575   5.38134   5.39701   5.40095   5.42331
 Alpha virt. eigenvalues --    5.45256   5.46121   5.57611   5.58860   5.59644
 Alpha virt. eigenvalues --    5.67326   5.69158   5.70516   5.76201   5.80888
 Alpha virt. eigenvalues --    5.87400   5.89507   5.91539   5.97063   5.98359
 Alpha virt. eigenvalues --    6.06755   6.10998   6.16403   6.21679   6.26332
 Alpha virt. eigenvalues --    6.30929   6.32187   6.36387   6.41170   6.44262
 Alpha virt. eigenvalues --    6.55085   6.55923   6.62032   6.64920   7.26244
 Alpha virt. eigenvalues --    7.40358  12.33311  12.91982  13.52479  13.62744
          Condensed to atoms (all electrons):
              1          2          3          4          5          6
     1  C    4.723936   0.328905   0.326652  -0.046850   0.417202   0.441274
     2  N    0.328905   6.441359  -0.046811  -0.010228  -0.029329  -0.057506
     3  C    0.326652  -0.046811   4.723832   0.328903  -0.029881  -0.056240
     4  N   -0.046850  -0.010228   0.328903   6.441399   0.004639   0.003773
     5  H    0.417202  -0.029329  -0.029881   0.004639   0.605891  -0.041812
     6  H    0.441274  -0.057506  -0.056240   0.003773  -0.041812   0.644553
     7  H   -0.029907   0.004638   0.417237  -0.029332  -0.003679  -0.002320
     8  H   -0.056293   0.003774   0.441336  -0.057495  -0.002325   0.010563
     9  H   -0.033270   0.385195   0.008072  -0.000271  -0.009684  -0.002420
    10  H   -0.042855   0.380347  -0.000062   0.008468   0.008406  -0.007269
    11  H    0.008077  -0.000270  -0.033277   0.385195  -0.000434  -0.000585
    12  H   -0.000047   0.008444  -0.042841   0.380349  -0.000534   0.000823
              7          8          9         10         11         12
     1  C   -0.029907  -0.056293  -0.033270  -0.042855   0.008077  -0.000047
     2  N    0.004638   0.003774   0.385195   0.380347  -0.000270   0.008444
     3  C    0.417237   0.441336   0.008072  -0.000062  -0.033277  -0.042841
     4  N   -0.029332  -0.057495  -0.000271   0.008468   0.385195   0.380349
     5  H   -0.003679  -0.002325  -0.009684   0.008406  -0.000434  -0.000534
     6  H   -0.002320   0.010563  -0.002420  -0.007269  -0.000585   0.000823
     7  H    0.605869  -0.041796  -0.000434  -0.000533  -0.009695   0.008403
     8  H   -0.041796   0.644480  -0.000586   0.000826  -0.002408  -0.007281
     9  H   -0.000434  -0.000586   0.551915  -0.043264   0.000055  -0.000249
    10  H   -0.000533   0.000826  -0.043264   0.548906  -0.000250  -0.004430
    11  H   -0.009695  -0.002408   0.000055  -0.000250   0.551889  -0.043258
    12  H    0.008403  -0.007281  -0.000249  -0.004430  -0.043258   0.548887
 Mulliken atomic charges:
              1
     1  C   -0.036823
     2  N   -0.408519
     3  C   -0.036920
     4  N   -0.408551
     5  H    0.081541
     6  H    0.067168
     7  H    0.081550
     8  H    0.067205
     9  H    0.144942
    10  H    0.151711
    11  H    0.144963
    12  H    0.151734
 Sum of Mulliken atomic charges =   0.00000
 Mulliken charges with hydrogens summed into heavy atoms:
              1
     1  C    0.111885
     2  N   -0.111865
     3  C    0.111835
     4  N   -0.111854
 Sum of Mulliken charges with hydrogens summed into heavy atoms =   0.00000
 Electronic spatial extent (au):  <R**2>=            334.6070
 Charge=              0.0000 electrons
 Dipole moment (field-independent basis, Debye):
    X=              0.0011    Y=              0.3408    Z=             -0.0005  Tot=              0.3408
 Quadrupole moment (field-independent basis, Debye-Ang):
   XX=            -22.0060   YY=            -24.9394   ZZ=            -29.3187
   XY=             -0.0002   XZ=              2.8851   YZ=             -0.0005
 Traceless Quadrupole moment (field-independent basis, Debye-Ang):
   XX=              3.4154   YY=              0.4820   ZZ=             -3.8974
   XY=             -0.0002   XZ=              2.8851   YZ=             -0.0005
 Octapole moment (field-independent basis, Debye-Ang**2):
  XXX=              0.0051  YYY=             -6.1935  ZZZ=              0.0000  XYY=              0.0010
  XXY=             -2.0846  XXZ=             -0.0076  XZZ=              0.0026  YZZ=              0.7850
  YYZ=              0.0013  XYZ=             -4.0645
 Hexadecapole moment (field-independent basis, Debye-Ang**3):
 XXXX=           -205.3418 YYYY=           -107.4888 ZZZZ=            -54.8306 XXXY=              0.0015
 XXXZ=              0.8568 YYYX=             -0.0008 YYYZ=             -0.0019 ZZZX=              3.9195
 ZZZY=             -0.0006 XXYY=            -60.6925 XXZZ=            -59.4646 YYZZ=            -29.5327
 XXYZ=              0.0016 YYXZ=              2.8720 ZZXY=             -0.0018
 N-N= 1.341208091978D+02 E-N=-7.110441885314D+02  KE= 1.890188912545D+02
 1\1\GINC-ROCK\SP\RMP2-FC\CC-pVTZ\C2H8N2\STYLIANAKIS\20-Mar-2016\0\\# m
 p2/cc-pVTZ\\ethylenediamine_g+_g+_g+_single_point\\0,1\C\N,1,1.470661\
 C,1,1.528801,2,110.428\N,3,1.47066,1,110.431,2,57.155,0\H,1,1.096271,3
 ,108.695,4,175.622,0\H,1,1.101973,3,108.796,4,-67.315,0\H,3,1.096269,1
 ,108.695,2,175.625,0\H,3,1.101967,1,108.796,2,-67.314,0\H,2,1.015448,1
 ,111.122,3,163.62,0\H,2,1.016739,1,109.976,3,-78.133,0\H,4,1.015441,3,
 111.124,1,163.562,0\H,4,1.016726,3,109.982,1,-78.182,0\\Version=EM64L-
 G09RevA.01\State=1-A\HF=-189.3479341\MP2=-190.1360715\RMSD=7.759e-09\P
 G=C01 [X(C2H8N2)]\\@


 ALMOST ANYTHING IS EASIER TO GET INTO THAN OUT OF.

                         -- AGNES ALLEN'S LAW FROM
                PAUL DICKSON'S "THE OFFICIAL RULES"
 Job cpu time:  0 days  0 hours 20 minutes 39.4 seconds.
 File lengths (MBytes):  RWF=     25 Int=      0 D2E=      0 Chk=      3 Scr=      1
 Normal termination of Gaussian 09 at Sun Mar 20 00:54:09 2016.
