 Entering Gaussian System, Link 0=g09
 Input=EtMeNH2+_g.gjf
 Output=EtMeNH2+_g.out
 Initial command:
 /usr/local/g09/l1.exe /home/scratch/stylianakis/Gau-4336.inp -scrdir=/home/scratch/stylianakis/
 Entering Link 1 = /usr/local/g09/l1.exe PID=      4337.
  
 Copyright (c) 1988,1990,1992,1993,1995,1998,2003,2009, Gaussian, Inc.
                  All Rights Reserved.
  
 This is part of the Gaussian(R) 09 program.  It is based on
 the Gaussian(R) 03 system (copyright 2003, Gaussian, Inc.),
 the Gaussian(R) 98 system (copyright 1998, Gaussian, Inc.),
 the Gaussian(R) 94 system (copyright 1995, Gaussian, Inc.),
 the Gaussian 92(TM) system (copyright 1992, Gaussian, Inc.),
 the Gaussian 90(TM) system (copyright 1990, Gaussian, Inc.),
 the Gaussian 88(TM) system (copyright 1988, Gaussian, Inc.),
 the Gaussian 86(TM) system (copyright 1986, Carnegie Mellon
 University), and the Gaussian 82(TM) system (copyright 1983,
 Carnegie Mellon University). Gaussian is a federally registered
 trademark of Gaussian, Inc.
  
 This software contains proprietary and confidential information,
 including trade secrets, belonging to Gaussian, Inc.
  
 This software is provided under written license and may be
 used, copied, transmitted, or stored only in accord with that
 written license.
  
 The following legend is applicable only to US Government
 contracts under FAR:
  
                    RESTRICTED RIGHTS LEGEND
  
 Use, reproduction and disclosure by the US Government is
 subject to restrictions as set forth in subparagraphs (a)
 and (c) of the Commercial Computer Software - Restricted
 Rights clause in FAR 52.227-19.
  
 Gaussian, Inc.
 340 Quinnipiac St., Bldg. 40, Wallingford CT 06492
  
  
 ---------------------------------------------------------------
 Warning -- This program may not be used in any manner that
 competes with the business of Gaussian, Inc. or will provide
 assistance to any competitor of Gaussian, Inc.  The licensee
 of this program is prohibited from giving any competitor of
 Gaussian, Inc. access to this program.  By using this program,
 the user acknowledges that Gaussian, Inc. is engaged in the
 business of creating and licensing software in the field of
 computational chemistry and represents and warrants to the
 licensee that it is not a competitor of Gaussian, Inc. and that
 it will not use this program in any manner prohibited above.
 ---------------------------------------------------------------
  

 Cite this work as:
 Gaussian 09, Revision A.01,
 M. J. Frisch, G. W. Trucks, H. B. Schlegel, G. E. Scuseria, 
 M. A. Robb, J. R. Cheeseman, G. Scalmani, V. Barone, B. Mennucci, 
 G. A. Petersson, H. Nakatsuji, M. Caricato, X. Li, H. P. Hratchian, 
 A. F. Izmaylov, J. Bloino, G. Zheng, J. L. Sonnenberg, M. Hada, 
 M. Ehara, K. Toyota, R. Fukuda, J. Hasegawa, M. Ishida, T. Nakajima, 
 Y. Honda, O. Kitao, H. Nakai, T. Vreven, J. A. Montgomery, Jr., 
 J. E. Peralta, F. Ogliaro, M. Bearpark, J. J. Heyd, E. Brothers, 
 K. N. Kudin, V. N. Staroverov, R. Kobayashi, J. Normand, 
 K. Raghavachari, A. Rendell, J. C. Burant, S. S. Iyengar, J. Tomasi, 
 M. Cossi, N. Rega, J. M. Millam, M. Klene, J. E. Knox, J. B. Cross, 
 V. Bakken, C. Adamo, J. Jaramillo, R. Gomperts, R. E. Stratmann, 
 O. Yazyev, A. J. Austin, R. Cammi, C. Pomelli, J. W. Ochterski, 
 R. L. Martin, K. Morokuma, V. G. Zakrzewski, G. A. Voth, 
 P. Salvador, J. J. Dannenberg, S. Dapprich, A. D. Daniels, 
 O. Farkas, J. B. Foresman, J. V. Ortiz, J. Cioslowski, 
 and D. J. Fox, Gaussian, Inc., Wallingford CT, 2009.
 
 ******************************************
 Gaussian 09:  EM64L-G09RevA.01  8-May-2009
                20-Mar-2016 
 ******************************************
 %mem=16000Mb
 %nproc=8
 Will use up to    8 processors via shared memory.
 -------------
 # mp2/cc-pVTZ
 -------------
 1/38=1/1;
 2/12=2,17=6,18=5,40=1/2;
 3/5=16,6=1,11=9,16=1,25=1,30=1/1,2,3;
 4//1;
 5/5=2,38=5/2;
 8/10=1/1;
 9/16=-3/6;
 6/7=2,8=2,9=2,10=2/1;
 99/5=1,9=1/99;
 -----------------------
 EtMeNH2+_g_single_point
 -----------------------
 Symbolic Z-matrix:
 Charge =  1 Multiplicity = 1
 c
 c                    1    cc2
 n                    2    nc3      1    ncc3
 c                    3    cn4      2    cnc4     1    dih4     0
 h                    1    hc5      2    hcc5     3    dih5     0
 h                    1    hc6      2    hcc6     3    dih6     0
 h                    1    hc7      2    hcc7     3    dih7     0
 h                    2    hc8      3    hcn8     4    dih8     0
 h                    2    hc9      3    hcn9     4    dih9     0
 h                    3    hn10     2    hnc10    1    dih10    0
 h                    4    hc11     3    hcn11    2    dih11    0
 h                    4    hc12     3    hcn12    2    dih12    0
 h                    4    hc13     3    hcn13    2    dih13    0
 h                    3    hn14     2    hnc14    1    dih14    0
       Variables:
  cc2                   1.52021                  
  nc3                   1.52886                  
  ncc3                112.369                    
  cn4                   1.50811                  
  cnc4                115.899                    
  dih4                 66.787                    
  hc5                   1.0935                   
  hcc5                108.168                    
  dih5                175.649                    
  hc6                   1.0926                   
  hcc6                112.855                    
  dih6                -65.965                    
  hc7                   1.0953                   
  hcc7                111.928                    
  dih7                 57.802                    
  hc8                   1.09268                  
  hcn8                105.915                    
  dih8                -56.437                    
  hc9                   1.09291                  
  hcn9                105.494                    
  dih9               -171.442                    
  hn10                  1.02514                  
  hnc10               108.395                    
  dih10              -170.849                    
  hc11                  1.09045                  
  hcn11               108.593                    
  dih11               176.989                    
  hc12                  1.08835                  
  hcn12               108.994                    
  dih12               -63.059                    
  hc13                  1.09014                  
  hcn13               108.366                    
  dih13                57.16                     
  hn14                  1.02597                  
  hnc14               108.588                    
  dih14               -56.316                    
 
                          Input orientation:                          
 ---------------------------------------------------------------------
 Center     Atomic      Atomic             Coordinates (Angstroms)
 Number     Number       Type             X           Y           Z
 ---------------------------------------------------------------------
      1          6           0        0.000000    0.000000    0.000000
      2          6           0        0.000000    0.000000    1.520207
      3          7           0        1.413818    0.000000    2.102046
      4          6           0        2.226469    1.246814    1.858252
      5          1           0       -1.035988   -0.078824   -0.340957
      6          1           0        0.410074    0.919530   -0.424368
      7          1           0        0.541405   -0.859803   -0.409031
      8          1           0       -0.496188    0.879024    1.938599
      9          1           0       -0.481026   -0.895379    1.921901
     10          1           0        1.347484   -0.154704    3.113271
     11          1           0        3.185798    1.141339    2.365846
     12          1           0        2.380902    1.365235    0.787442
     13          1           0        1.677545    2.098640    2.260105
     14          1           0        1.921504   -0.809188    1.727757
 ---------------------------------------------------------------------
                    Distance matrix (angstroms):
                    1          2          3          4          5
     1  C    0.000000
     2  C    1.520207   0.000000
     3  N    2.533275   1.528862   0.000000
     4  C    3.156708   2.574098   1.508105   0.000000
     5  H    1.093497   2.131529   3.460640   4.151802   0.000000
     6  H    1.092604   2.189764   2.869809   2.935431   1.759194
     7  H    1.095302   2.180445   2.793899   3.523896   1.761457
     8  H    2.185647   1.092675   2.108915   2.748561   2.530856
     9  H    2.174119   1.092908   2.103471   3.453052   2.468861
    10  H    3.395895   2.092248   1.025139   2.076521   4.197427
    11  H    4.129067   3.488133   2.124184   1.090454   5.161304
    12  H    2.855281   2.840688   2.127746   1.088350   3.877335
    13  H    3.510915   2.786736   2.121044   1.090143   4.343977
    14  H    2.707786   2.095242   1.025974   2.082588   3.682359
                    6          7          8          9         10
     6  H    0.000000
     7  H    1.784239   0.000000
     8  H    2.531119   3.100240   0.000000
     9  H    3.097246   2.545560   1.774547   0.000000
    10  H    3.814132   3.681513   2.418176   2.304650   0.000000
    11  H    3.941971   4.324041   3.715962   4.217927   2.370185
    12  H    2.356120   3.125075   3.136752   3.819425   2.964397
    13  H    3.194242   4.143367   2.513155   3.706476   2.431953
    14  H    3.147146   2.544228   2.956307   2.411902   1.636306
                   11         12         13         14
    11  H    0.000000
    12  H    1.785873   0.000000
    13  H    1.789535   1.789226   0.000000
    14  H    2.410426   2.413163   2.966206   0.000000
 Stoichiometry    C3H10N(1+)
 Framework group  C1[X(C3H10N)]
 Deg. of freedom    36
 Full point group                 C1      NOp   1
 Largest Abelian subgroup         C1      NOp   1
 Largest concise Abelian subgroup C1      NOp   1
                         Standard orientation:                         
 ---------------------------------------------------------------------
 Center     Atomic      Atomic             Coordinates (Angstroms)
 Number     Number       Type             X           Y           Z
 ---------------------------------------------------------------------
      1          6           0        1.589115   -0.554832   -0.124393
      2          6           0        0.720888    0.609754    0.323880
      3          7           0       -0.675198    0.567782   -0.297893
      4          6           0       -1.556557   -0.575517    0.138520
      5          1           0        2.589207   -0.415911    0.295432
      6          1           0        1.221191   -1.520090    0.231545
      7          1           0        1.697504   -0.588626   -1.213795
      8          1           0        0.566823    0.624698    1.405536
      9          1           0        1.147222    1.569020    0.019747
     10          1           0       -1.152056    1.449238   -0.082135
     11          1           0       -2.533663   -0.460385   -0.331692
     12          1           0       -1.100050   -1.513331   -0.172304
     13          1           0       -1.652572   -0.540302    1.223856
     14          1           0       -0.577890    0.544783   -1.318982
 ---------------------------------------------------------------------
 Rotational constants (GHZ):     13.4639257      4.7288015      4.0586403
 Standard basis: CC-pVTZ (5D, 7F)
 There are   260 symmetry adapted basis functions of A   symmetry.
 Integral buffers will be    131072 words long.
 Raffenetti 1 integral format.
 Two-electron integral symmetry is turned on.
   260 basis functions,   378 primitive gaussians,   290 cartesian basis functions
    17 alpha electrons       17 beta electrons
       nuclear repulsion energy       142.0470457202 Hartrees.
 NAtoms=   14 NActive=   14 NUniq=   14 SFac= 7.50D-01 NAtFMM=   80 NAOKFM=F Big=F
 One-electron integrals computed using PRISM.
 NBasis=   260 RedAO= T  NBF=   260
 NBsUse=   260 1.00D-06 NBFU=   260
 Harris functional with IExCor=  205 diagonalized for initial guess.
 ExpMin= 1.03D-01 ExpMax= 1.14D+04 ExpMxC= 3.89D+02 IAcc=1 IRadAn=         1 AccDes= 0.00D+00
 HarFok:  IExCor=  205 AccDes= 0.00D+00 IRadAn=         1 IDoV= 1
 ScaDFX=  1.000000  1.000000  1.000000  1.000000
 FoFCou: FMM=F IPFlag=           0 FMFlag=      100000 FMFlg1=           0
         NFxFlg=           0 DoJE=T BraDBF=F KetDBF=T FulRan=T
         Omega=  0.000000  0.000000  1.000000  0.000000  0.000000 ICntrl=     500 IOpCl=  0
         NMat0=    1 NMatS0=    1 NMatT0=    0 NMatD0=    1 NMtDS0=    0 NMtDT0=    0
         I1Cent=           4 NGrid=           0.
 Petite list used in FoFCou.
 Initial guess orbital symmetries:
       Occupied  (A) (A) (A) (A) (A) (A) (A) (A) (A) (A) (A) (A)
                 (A) (A) (A) (A) (A)
       Virtual   (A) (A) (A) (A) (A) (A) (A) (A) (A) (A) (A) (A)
                 (A) (A) (A) (A) (A) (A) (A) (A) (A) (A) (A) (A)
                 (A) (A) (A) (A) (A) (A) (A) (A) (A) (A) (A) (A)
                 (A) (A) (A) (A) (A) (A) (A) (A) (A) (A) (A) (A)
                 (A) (A) (A) (A) (A) (A) (A) (A) (A) (A) (A) (A)
                 (A) (A) (A) (A) (A) (A) (A) (A) (A) (A) (A) (A)
                 (A) (A) (A) (A) (A) (A) (A) (A) (A) (A) (A) (A)
                 (A) (A) (A) (A) (A) (A) (A) (A) (A) (A) (A) (A)
                 (A) (A) (A) (A) (A) (A) (A) (A) (A) (A) (A) (A)
                 (A) (A) (A) (A) (A) (A) (A) (A) (A) (A) (A) (A)
                 (A) (A) (A) (A) (A) (A) (A) (A) (A) (A) (A) (A)
                 (A) (A) (A) (A) (A) (A) (A) (A) (A) (A) (A) (A)
                 (A) (A) (A) (A) (A) (A) (A) (A) (A) (A) (A) (A)
                 (A) (A) (A) (A) (A) (A) (A) (A) (A) (A) (A) (A)
                 (A) (A) (A) (A) (A) (A) (A) (A) (A) (A) (A) (A)
                 (A) (A) (A) (A) (A) (A) (A) (A) (A) (A) (A) (A)
                 (A) (A) (A) (A) (A) (A) (A) (A) (A) (A) (A) (A)
                 (A) (A) (A) (A) (A) (A) (A) (A) (A) (A) (A) (A)
                 (A) (A) (A) (A) (A) (A) (A) (A) (A) (A) (A) (A)
                 (A) (A) (A) (A) (A) (A) (A) (A) (A) (A) (A) (A)
                 (A) (A) (A)
 The electronic state of the initial guess is 1-A.
 Requested convergence on RMS density matrix=1.00D-08 within 128 cycles.
 Requested convergence on MAX density matrix=1.00D-06.
 Requested convergence on             energy=1.00D-06.
 No special actions if energy rises.
 Keep R1 ints in memory in canonical form, NReq=902825958.
 SCF Done:  E(RHF) =  -173.721394412     A.U. after   11 cycles
             Convg  =    0.4353D-08             -V/T =  2.0021
 ExpMin= 1.03D-01 ExpMax= 1.14D+04 ExpMxC= 3.89D+02 IAcc=1 IRadAn=         1 AccDes= 0.00D+00
 HarFok:  IExCor=  205 AccDes= 0.00D+00 IRadAn=         1 IDoV=-2
 ScaDFX=  1.000000  1.000000  1.000000  1.000000
 Range of M.O.s used for correlation:     5   260
 NBasis=   260 NAE=    17 NBE=    17 NFC=     4 NFV=     0
 NROrb=    256 NOA=    13 NOB=    13 NVA=   243 NVB=   243

 **** Warning!!: The largest alpha MO coefficient is  0.13121440D+02

 Fully in-core method, ICMem=  1834999691.
 JobTyp=1 Pass  1 fully in-core, NPsUse=  8.
 Spin components of T(2) and E(2):
     alpha-alpha T2 =       0.2503121574D-01 E2=     -0.8016865943D-01
     alpha-beta  T2 =       0.1672893742D+00 E2=     -0.5834359340D+00
     beta-beta   T2 =       0.2503121574D-01 E2=     -0.8016865943D-01
 ANorm=    0.1103336669D+01
 E2 =    -0.7437732528D+00 EUMP2 =    -0.17446516766462D+03

 **********************************************************************

            Population analysis using the SCF density.

 **********************************************************************

 Orbital symmetries:
       Occupied  (A) (A) (A) (A) (A) (A) (A) (A) (A) (A) (A) (A)
                 (A) (A) (A) (A) (A)
       Virtual   (A) (A) (A) (A) (A) (A) (A) (A) (A) (A) (A) (A)
                 (A) (A) (A) (A) (A) (A) (A) (A) (A) (A) (A) (A)
                 (A) (A) (A) (A) (A) (A) (A) (A) (A) (A) (A) (A)
                 (A) (A) (A) (A) (A) (A) (A) (A) (A) (A) (A) (A)
                 (A) (A) (A) (A) (A) (A) (A) (A) (A) (A) (A) (A)
                 (A) (A) (A) (A) (A) (A) (A) (A) (A) (A) (A) (A)
                 (A) (A) (A) (A) (A) (A) (A) (A) (A) (A) (A) (A)
                 (A) (A) (A) (A) (A) (A) (A) (A) (A) (A) (A) (A)
                 (A) (A) (A) (A) (A) (A) (A) (A) (A) (A) (A) (A)
                 (A) (A) (A) (A) (A) (A) (A) (A) (A) (A) (A) (A)
                 (A) (A) (A) (A) (A) (A) (A) (A) (A) (A) (A) (A)
                 (A) (A) (A) (A) (A) (A) (A) (A) (A) (A) (A) (A)
                 (A) (A) (A) (A) (A) (A) (A) (A) (A) (A) (A) (A)
                 (A) (A) (A) (A) (A) (A) (A) (A) (A) (A) (A) (A)
                 (A) (A) (A) (A) (A) (A) (A) (A) (A) (A) (A) (A)
                 (A) (A) (A) (A) (A) (A) (A) (A) (A) (A) (A) (A)
                 (A) (A) (A) (A) (A) (A) (A) (A) (A) (A) (A) (A)
                 (A) (A) (A) (A) (A) (A) (A) (A) (A) (A) (A) (A)
                 (A) (A) (A) (A) (A) (A) (A) (A) (A) (A) (A) (A)
                 (A) (A) (A) (A) (A) (A) (A) (A) (A) (A) (A) (A)
                 (A) (A) (A)
 The electronic state is 1-A.
 Alpha  occ. eigenvalues --  -15.88083 -11.47427 -11.46931 -11.39664  -1.50078
 Alpha  occ. eigenvalues --   -1.22018  -1.14765  -1.04390  -0.95920  -0.89460
 Alpha  occ. eigenvalues --   -0.83478  -0.78872  -0.76093  -0.75370  -0.71562
 Alpha  occ. eigenvalues --   -0.70173  -0.68586
 Alpha virt. eigenvalues --   -0.06136  -0.01189  -0.00635   0.00770   0.03277
 Alpha virt. eigenvalues --    0.04244   0.06412   0.07441   0.07630   0.08649
 Alpha virt. eigenvalues --    0.11344   0.13649   0.16805   0.19116   0.20935
 Alpha virt. eigenvalues --    0.23204   0.24111   0.25893   0.26863   0.27780
 Alpha virt. eigenvalues --    0.36914   0.39448   0.40184   0.41195   0.42390
 Alpha virt. eigenvalues --    0.43397   0.44158   0.44814   0.45427   0.47013
 Alpha virt. eigenvalues --    0.48112   0.49366   0.50308   0.51485   0.52963
 Alpha virt. eigenvalues --    0.54936   0.56902   0.62564   0.66533   0.69108
 Alpha virt. eigenvalues --    0.73683   0.77402   0.78991   0.84002   0.85750
 Alpha virt. eigenvalues --    0.86553   0.91954   0.93407   0.96714   0.97047
 Alpha virt. eigenvalues --    0.98796   1.02414   1.03466   1.05867   1.06992
 Alpha virt. eigenvalues --    1.08699   1.09773   1.11727   1.15491   1.17210
 Alpha virt. eigenvalues --    1.18131   1.18902   1.19348   1.23667   1.25838
 Alpha virt. eigenvalues --    1.26309   1.28038   1.30845   1.32112   1.34972
 Alpha virt. eigenvalues --    1.36637   1.38742   1.39892   1.40171   1.41242
 Alpha virt. eigenvalues --    1.44972   1.47082   1.49397   1.51072   1.55173
 Alpha virt. eigenvalues --    1.57993   1.60068   1.61434   1.64815   1.67579
 Alpha virt. eigenvalues --    1.76831   1.78670   1.88327   1.94398   2.26749
 Alpha virt. eigenvalues --    2.32335   2.34657   2.40547   2.44006   2.50737
 Alpha virt. eigenvalues --    2.52494   2.54906   2.55465   2.60062   2.63453
 Alpha virt. eigenvalues --    2.68532   2.72468   2.73911   2.74777   2.77527
 Alpha virt. eigenvalues --    2.82214   2.84883   2.87404   2.88396   2.90469
 Alpha virt. eigenvalues --    2.93666   2.94322   2.95942   2.96856   2.98079
 Alpha virt. eigenvalues --    3.05305   3.05967   3.07759   3.09958   3.12226
 Alpha virt. eigenvalues --    3.13905   3.15043   3.18255   3.18365   3.22832
 Alpha virt. eigenvalues --    3.24944   3.25397   3.26347   3.27617   3.30529
 Alpha virt. eigenvalues --    3.31719   3.34885   3.36460   3.39922   3.41980
 Alpha virt. eigenvalues --    3.42942   3.45129   3.46903   3.50611   3.51836
 Alpha virt. eigenvalues --    3.55040   3.55363   3.57122   3.58801   3.60128
 Alpha virt. eigenvalues --    3.63029   3.64319   3.65151   3.66662   3.68966
 Alpha virt. eigenvalues --    3.73127   3.74592   3.77248   3.82665   3.87758
 Alpha virt. eigenvalues --    3.89300   3.91118   3.94381   3.94809   3.96284
 Alpha virt. eigenvalues --    3.97246   3.99178   4.00712   4.03133   4.04228
 Alpha virt. eigenvalues --    4.07137   4.08080   4.09945   4.10296   4.14541
 Alpha virt. eigenvalues --    4.16204   4.17857   4.18637   4.21670   4.25505
 Alpha virt. eigenvalues --    4.26847   4.28191   4.30082   4.34963   4.35594
 Alpha virt. eigenvalues --    4.38066   4.39838   4.41365   4.42987   4.43460
 Alpha virt. eigenvalues --    4.47330   4.49519   4.54189   4.54828   4.55975
 Alpha virt. eigenvalues --    4.62177   4.65135   4.68311   4.74019   4.82868
 Alpha virt. eigenvalues --    4.88608   4.94576   4.98057   5.01587   5.02322
 Alpha virt. eigenvalues --    5.03482   5.05137   5.05783   5.12433   5.14405
 Alpha virt. eigenvalues --    5.17956   5.23319   5.27299   5.29323   5.32608
 Alpha virt. eigenvalues --    5.33947   5.36822   5.37145   5.41534   5.45900
 Alpha virt. eigenvalues --    5.47116   5.49071   5.51608   5.52520   5.56593
 Alpha virt. eigenvalues --    5.59276   5.62878   5.67184   5.68688   5.71863
 Alpha virt. eigenvalues --    5.82327   5.89009   5.94369   5.95654   6.02139
 Alpha virt. eigenvalues --    6.09149   6.10385   6.15371   6.18646   6.19975
 Alpha virt. eigenvalues --    6.25189   6.34702   6.39240   7.11948  12.82235
 Alpha virt. eigenvalues --   13.25794  13.78814  13.95939
          Condensed to atoms (all electrons):
              1          2          3          4          5          6
     1  C    4.783775   0.329308  -0.033795  -0.001898   0.416795   0.420742
     2  C    0.329308   4.839416   0.263251  -0.032241  -0.027690  -0.029589
     3  N   -0.033795   0.263251   5.809930   0.274490   0.003256  -0.001839
     4  C   -0.001898  -0.032241   0.274490   4.728254   0.000084   0.000376
     5  H    0.416795  -0.027690   0.003256   0.000084   0.502539  -0.023781
     6  H    0.420742  -0.029589  -0.001839   0.000376  -0.023781   0.543500
     7  H    0.419497  -0.033360  -0.003341  -0.000731  -0.019094  -0.029864
     8  H   -0.027482   0.425187  -0.025713  -0.004498  -0.001814  -0.003588
     9  H   -0.028397   0.429018  -0.018238   0.004031  -0.004093   0.004085
    10  H    0.004401  -0.019465   0.388905  -0.020347  -0.000174  -0.000260
    11  H   -0.000144   0.003357  -0.014347   0.419989   0.000008   0.000246
    12  H    0.000746  -0.004486  -0.022700   0.419744   0.000057  -0.002384
    13  H   -0.000627  -0.002368  -0.025962   0.418555  -0.000014  -0.000193
    14  H   -0.001346  -0.022113   0.380678  -0.021874   0.000089  -0.000626
              7          8          9         10         11         12
     1  C    0.419497  -0.027482  -0.028397   0.004401  -0.000144   0.000746
     2  C   -0.033360   0.425187   0.429018  -0.019465   0.003357  -0.004486
     3  N   -0.003341  -0.025713  -0.018238   0.388905  -0.014347  -0.022700
     4  C   -0.000731  -0.004498   0.004031  -0.020347   0.419989   0.419744
     5  H   -0.019094  -0.001814  -0.004093  -0.000174   0.000008   0.000057
     6  H   -0.029864  -0.003588   0.004085  -0.000260   0.000246  -0.002384
     7  H    0.542621   0.004155  -0.003122  -0.000112  -0.000033   0.000086
     8  H    0.004155   0.494579  -0.022713  -0.003632  -0.000030  -0.000110
     9  H   -0.003122  -0.022713   0.484922  -0.005210  -0.000042  -0.000145
    10  H   -0.000112  -0.003632  -0.005210   0.501050  -0.005308   0.004632
    11  H   -0.000033  -0.000030  -0.000042  -0.005308   0.483740  -0.023710
    12  H    0.000086  -0.000110  -0.000145   0.004632  -0.023710   0.502461
    13  H    0.000014   0.001578   0.000102  -0.004333  -0.020644  -0.023401
    14  H    0.003073   0.004989  -0.003966  -0.030388  -0.004295  -0.004181
             13         14
     1  C   -0.000627  -0.001346
     2  C   -0.002368  -0.022113
     3  N   -0.025962   0.380678
     4  C    0.418555  -0.021874
     5  H   -0.000014   0.000089
     6  H   -0.000193  -0.000626
     7  H    0.000014   0.003073
     8  H    0.001578   0.004989
     9  H    0.000102  -0.003966
    10  H   -0.004333  -0.030388
    11  H   -0.020644  -0.004295
    12  H   -0.023401  -0.004181
    13  H    0.500531   0.004820
    14  H    0.004820   0.513691
 Mulliken atomic charges:
              1
     1  C   -0.281574
     2  C   -0.118226
     3  N    0.025424
     4  C   -0.183936
     5  H    0.153832
     6  H    0.123176
     7  H    0.120210
     8  H    0.159092
     9  H    0.163766
    10  H    0.190239
    11  H    0.161213
    12  H    0.153393
    13  H    0.151941
    14  H    0.181448
 Sum of Mulliken atomic charges =   1.00000
 Mulliken charges with hydrogens summed into heavy atoms:
              1
     1  C    0.115644
     2  C    0.204633
     3  N    0.397112
     4  C    0.282611
 Sum of Mulliken charges with hydrogens summed into heavy atoms =   1.00000
 Electronic spatial extent (au):  <R**2>=            359.3524
 Charge=              1.0000 electrons
 Dipole moment (field-independent basis, Debye):
    X=             -2.1263    Y=              1.5906    Z=             -0.7302  Tot=              2.7540
 Quadrupole moment (field-independent basis, Debye-Ang):
   XX=            -16.3246   YY=            -20.5067   ZZ=            -22.0892
   XY=             -0.6458   XZ=              0.8084   YZ=             -0.7153
 Traceless Quadrupole moment (field-independent basis, Debye-Ang):
   XX=              3.3155   YY=             -0.8665   ZZ=             -2.4490
   XY=             -0.6458   XZ=              0.8084   YZ=             -0.7153
 Octapole moment (field-independent basis, Debye-Ang**2):
  XXX=             -7.6576  YYY=              5.9875  ZZZ=             -2.9221  XYY=             -4.3701
  XXY=              0.5392  XXZ=             -0.0384  XZZ=             -2.7403  YZZ=              2.1414
  YYZ=             -0.7935  XYZ=              1.1324
 Hexadecapole moment (field-independent basis, Debye-Ang**3):
 XXXX=           -253.6546 YYYY=            -89.9546 ZZZZ=            -45.8377 XXXY=             -0.3779
 XXXZ=              6.0348 YYYX=             -3.4114 YYYZ=             -2.0493 ZZZX=              0.1599
 ZZZY=             -2.2555 XXYY=            -59.3538 XXZZ=            -55.4286 YYZZ=            -27.0224
 XXYZ=             -0.8445 YYXZ=              0.5924 ZZXY=             -0.5636
 N-N= 1.420470457202D+02 E-N=-6.804407688026D+02  KE= 1.733612978947D+02
 1\1\GINC-ROCK\SP\RMP2-FC\CC-pVTZ\C3H10N1(1+)\STYLIANAKIS\20-Mar-2016\0
 \\# mp2/cc-pVTZ\\EtMeNH2+_g_single_point\\1,1\C\C,1,1.520207\N,2,1.528
 862,1,112.369\C,3,1.508105,2,115.899,1,66.787,0\H,1,1.093497,2,108.168
 ,3,175.649,0\H,1,1.092604,2,112.855,3,-65.965,0\H,1,1.095302,2,111.928
 ,3,57.802,0\H,2,1.092675,3,105.915,4,-56.437,0\H,2,1.092908,3,105.494,
 4,-171.442,0\H,3,1.025139,2,108.395,1,-170.849,0\H,4,1.090454,3,108.59
 3,2,176.989,0\H,4,1.08835,3,108.994,2,-63.059,0\H,4,1.090143,3,108.366
 ,2,57.16,0\H,3,1.025974,2,108.588,1,-56.316,0\\Version=EM64L-G09RevA.0
 1\State=1-A\HF=-173.7213944\MP2=-174.4651677\RMSD=4.353e-09\PG=C01 [X(
 C3H10N1)]\\@


 IT IS THE BEHAVIOR AND DISTRIBUTION OF THE ELECTRONS 
 AROUND THE NUCLEUS THAT GIVES THE FUNDAMENTAL 
 CHARACTER OF AN ATOM:  IT MUST BE THE SAME FOR MOLECULES.

                               -- C. A. COULSON, 1951
 Job cpu time:  0 days  0 hours 32 minutes  8.1 seconds.
 File lengths (MBytes):  RWF=     29 Int=      0 D2E=      0 Chk=      4 Scr=      1
 Normal termination of Gaussian 09 at Sun Mar 20 01:02:17 2016.
