 Entering Gaussian System, Link 0=g09
 Input=formamidine_cis.gjf
 Output=formamidine_cis.out
 Initial command:
 /usr/local/g09/l1.exe /home/scratch/stylianakis/Gau-4518.inp -scrdir=/home/scratch/stylianakis/
 Entering Link 1 = /usr/local/g09/l1.exe PID=      4519.
  
 Copyright (c) 1988,1990,1992,1993,1995,1998,2003,2009, Gaussian, Inc.
                  All Rights Reserved.
  
 This is part of the Gaussian(R) 09 program.  It is based on
 the Gaussian(R) 03 system (copyright 2003, Gaussian, Inc.),
 the Gaussian(R) 98 system (copyright 1998, Gaussian, Inc.),
 the Gaussian(R) 94 system (copyright 1995, Gaussian, Inc.),
 the Gaussian 92(TM) system (copyright 1992, Gaussian, Inc.),
 the Gaussian 90(TM) system (copyright 1990, Gaussian, Inc.),
 the Gaussian 88(TM) system (copyright 1988, Gaussian, Inc.),
 the Gaussian 86(TM) system (copyright 1986, Carnegie Mellon
 University), and the Gaussian 82(TM) system (copyright 1983,
 Carnegie Mellon University). Gaussian is a federally registered
 trademark of Gaussian, Inc.
  
 This software contains proprietary and confidential information,
 including trade secrets, belonging to Gaussian, Inc.
  
 This software is provided under written license and may be
 used, copied, transmitted, or stored only in accord with that
 written license.
  
 The following legend is applicable only to US Government
 contracts under FAR:
  
                    RESTRICTED RIGHTS LEGEND
  
 Use, reproduction and disclosure by the US Government is
 subject to restrictions as set forth in subparagraphs (a)
 and (c) of the Commercial Computer Software - Restricted
 Rights clause in FAR 52.227-19.
  
 Gaussian, Inc.
 340 Quinnipiac St., Bldg. 40, Wallingford CT 06492
  
  
 ---------------------------------------------------------------
 Warning -- This program may not be used in any manner that
 competes with the business of Gaussian, Inc. or will provide
 assistance to any competitor of Gaussian, Inc.  The licensee
 of this program is prohibited from giving any competitor of
 Gaussian, Inc. access to this program.  By using this program,
 the user acknowledges that Gaussian, Inc. is engaged in the
 business of creating and licensing software in the field of
 computational chemistry and represents and warrants to the
 licensee that it is not a competitor of Gaussian, Inc. and that
 it will not use this program in any manner prohibited above.
 ---------------------------------------------------------------
  

 Cite this work as:
 Gaussian 09, Revision A.01,
 M. J. Frisch, G. W. Trucks, H. B. Schlegel, G. E. Scuseria, 
 M. A. Robb, J. R. Cheeseman, G. Scalmani, V. Barone, B. Mennucci, 
 G. A. Petersson, H. Nakatsuji, M. Caricato, X. Li, H. P. Hratchian, 
 A. F. Izmaylov, J. Bloino, G. Zheng, J. L. Sonnenberg, M. Hada, 
 M. Ehara, K. Toyota, R. Fukuda, J. Hasegawa, M. Ishida, T. Nakajima, 
 Y. Honda, O. Kitao, H. Nakai, T. Vreven, J. A. Montgomery, Jr., 
 J. E. Peralta, F. Ogliaro, M. Bearpark, J. J. Heyd, E. Brothers, 
 K. N. Kudin, V. N. Staroverov, R. Kobayashi, J. Normand, 
 K. Raghavachari, A. Rendell, J. C. Burant, S. S. Iyengar, J. Tomasi, 
 M. Cossi, N. Rega, J. M. Millam, M. Klene, J. E. Knox, J. B. Cross, 
 V. Bakken, C. Adamo, J. Jaramillo, R. Gomperts, R. E. Stratmann, 
 O. Yazyev, A. J. Austin, R. Cammi, C. Pomelli, J. W. Ochterski, 
 R. L. Martin, K. Morokuma, V. G. Zakrzewski, G. A. Voth, 
 P. Salvador, J. J. Dannenberg, S. Dapprich, A. D. Daniels, 
 O. Farkas, J. B. Foresman, J. V. Ortiz, J. Cioslowski, 
 and D. J. Fox, Gaussian, Inc., Wallingford CT, 2009.
 
 ******************************************
 Gaussian 09:  EM64L-G09RevA.01  8-May-2009
                20-Mar-2016 
 ******************************************
 %mem=16000Mb
 %nproc=8
 Will use up to    8 processors via shared memory.
 -------------
 # mp2/cc-pVTZ
 -------------
 1/38=1/1;
 2/12=2,17=6,18=5,40=1/2;
 3/5=16,6=1,11=9,16=1,25=1,30=1/1,2,3;
 4//1;
 5/5=2,38=5/2;
 8/10=1/1;
 9/16=-3/6;
 6/7=2,8=2,9=2,10=2/1;
 99/5=1,9=1/99;
 ----------------------------
 formamidine_cis_single_point
 ----------------------------
 Symbolic Z-matrix:
 Charge =  0 Multiplicity = 1
 c
 n                    1    nc2
 n                    1    nc3      2    ncn3
 h                    1    hc4      2    hcn4     3    dih4     0
 h                    3    hn5      1    hnc5     2    dih5     0
 h                    2    hn6      1    hnc6     3    dih6     0
 h                    2    hn7      1    hnc7     3    dih7     0
       Variables:
  nc2                   1.37509                  
  nc3                   1.27918                  
  ncn3                129.187                    
  hc4                   1.09261                  
  hcn4                112.675                    
  dih4               -179.993                    
  hn5                   1.02487                  
  hnc5                111.75                     
  dih5                  0.005                    
  hn6                   1.00708                  
  hnc6                120.883                    
  dih6               -179.982                    
  hn7                   1.00876                  
  hnc7                121.33                     
  dih7                 -0.023                    
 
                          Input orientation:                          
 ---------------------------------------------------------------------
 Center     Atomic      Atomic             Coordinates (Angstroms)
 Number     Number       Type             X           Y           Z
 ---------------------------------------------------------------------
      1          6           0        0.000000    0.000000    0.000000
      2          7           0        0.000000    0.000000    1.375091
      3          7           0        0.991475    0.000000   -0.808252
      4          1           0       -1.008154    0.000123   -0.421203
      5          1           0        1.887296   -0.000083   -0.310402
      6          1           0       -0.864293   -0.000272    1.892012
      7          1           0        0.861669   -0.000346    1.899612
 ---------------------------------------------------------------------
                    Distance matrix (angstroms):
                    1          2          3          4          5
     1  C    0.000000
     2  N    1.375091   0.000000
     3  N    1.279177   2.397918   0.000000
     4  H    1.092605   2.059866   2.036743   0.000000
     5  H    1.912651   2.530370   1.024866   2.897569   0.000000
     6  H    2.080075   1.007080   3.276477   2.317684   3.524467
     7  H    2.085905   1.008760   2.710974   2.980339   2.436406
                    6          7
     6  H    0.000000
     7  H    1.725979   0.000000
 Stoichiometry    CH4N2
 Framework group  C1[X(CH4N2)]
 Deg. of freedom    15
 Full point group                 C1      NOp   1
 Largest Abelian subgroup         C1      NOp   1
 Largest concise Abelian subgroup C1      NOp   1
                         Standard orientation:                         
 ---------------------------------------------------------------------
 Center     Atomic      Atomic             Coordinates (Angstroms)
 Number     Number       Type             X           Y           Z
 ---------------------------------------------------------------------
      1          6           0       -0.122176    0.420599    0.000018
      2          7           0        1.116260   -0.177022   -0.000075
      3          7           0       -1.281005   -0.121074    0.000006
      4          1           0       -0.063372    1.511620   -0.000009
      5          1           0       -1.221959   -1.144238   -0.000005
      6          1           0        1.957436    0.376722    0.000219
      7          1           0        1.214169   -1.181020    0.000177
 ---------------------------------------------------------------------
 Rotational constants (GHZ):     63.7684838     10.6639452      9.1361203
 Standard basis: CC-pVTZ (5D, 7F)
 There are   146 symmetry adapted basis functions of A   symmetry.
 Integral buffers will be    131072 words long.
 Raffenetti 1 integral format.
 Two-electron integral symmetry is turned on.
   146 basis functions,   224 primitive gaussians,   165 cartesian basis functions
    12 alpha electrons       12 beta electrons
       nuclear repulsion energy        71.7705961995 Hartrees.
 NAtoms=    7 NActive=    7 NUniq=    7 SFac= 7.50D-01 NAtFMM=   80 NAOKFM=F Big=F
 One-electron integrals computed using PRISM.
 NBasis=   146 RedAO= T  NBF=   146
 NBsUse=   146 1.00D-06 NBFU=   146
 Harris functional with IExCor=  205 diagonalized for initial guess.
 ExpMin= 1.03D-01 ExpMax= 1.14D+04 ExpMxC= 3.89D+02 IAcc=1 IRadAn=         1 AccDes= 0.00D+00
 HarFok:  IExCor=  205 AccDes= 0.00D+00 IRadAn=         1 IDoV= 1
 ScaDFX=  1.000000  1.000000  1.000000  1.000000
 FoFCou: FMM=F IPFlag=           0 FMFlag=      100000 FMFlg1=           0
         NFxFlg=           0 DoJE=T BraDBF=F KetDBF=T FulRan=T
         Omega=  0.000000  0.000000  1.000000  0.000000  0.000000 ICntrl=     500 IOpCl=  0
         NMat0=    1 NMatS0=    1 NMatT0=    0 NMatD0=    1 NMtDS0=    0 NMtDT0=    0
         I1Cent=           4 NGrid=           0.
 Petite list used in FoFCou.
 Initial guess orbital symmetries:
       Occupied  (A) (A) (A) (A) (A) (A) (A) (A) (A) (A) (A) (A)
       Virtual   (A) (A) (A) (A) (A) (A) (A) (A) (A) (A) (A) (A)
                 (A) (A) (A) (A) (A) (A) (A) (A) (A) (A) (A) (A)
                 (A) (A) (A) (A) (A) (A) (A) (A) (A) (A) (A) (A)
                 (A) (A) (A) (A) (A) (A) (A) (A) (A) (A) (A) (A)
                 (A) (A) (A) (A) (A) (A) (A) (A) (A) (A) (A) (A)
                 (A) (A) (A) (A) (A) (A) (A) (A) (A) (A) (A) (A)
                 (A) (A) (A) (A) (A) (A) (A) (A) (A) (A) (A) (A)
                 (A) (A) (A) (A) (A) (A) (A) (A) (A) (A) (A) (A)
                 (A) (A) (A) (A) (A) (A) (A) (A) (A) (A) (A) (A)
                 (A) (A) (A) (A) (A) (A) (A) (A) (A) (A) (A) (A)
                 (A) (A) (A) (A) (A) (A) (A) (A) (A) (A) (A) (A)
                 (A) (A)
 The electronic state of the initial guess is 1-A.
 Requested convergence on RMS density matrix=1.00D-08 within 128 cycles.
 Requested convergence on MAX density matrix=1.00D-06.
 Requested convergence on             energy=1.00D-06.
 No special actions if energy rises.
 Keep R1 ints in memory in canonical form, NReq=96172784.
 SCF Done:  E(RHF) =  -149.136779313     A.U. after   12 cycles
             Convg  =    0.7701D-08             -V/T =  2.0020
 ExpMin= 1.03D-01 ExpMax= 1.14D+04 ExpMxC= 3.89D+02 IAcc=1 IRadAn=         1 AccDes= 0.00D+00
 HarFok:  IExCor=  205 AccDes= 0.00D+00 IRadAn=         1 IDoV=-2
 ScaDFX=  1.000000  1.000000  1.000000  1.000000
 Range of M.O.s used for correlation:     4   146
 NBasis=   146 NAE=    12 NBE=    12 NFC=     3 NFV=     0
 NROrb=    143 NOA=     9 NOB=     9 NVA=   134 NVB=   134
 Fully in-core method, ICMem=   203492826.
 JobTyp=1 Pass  1 fully in-core, NPsUse=  8.
 Spin components of T(2) and E(2):
     alpha-alpha T2 =       0.2185748306D-01 E2=     -0.7051777514D-01
     alpha-beta  T2 =       0.1280895913D+00 E2=     -0.4405568257D+00
     beta-beta   T2 =       0.2185748306D-01 E2=     -0.7051777514D-01
 ANorm=    0.1082499218D+01
 E2 =    -0.5815923760D+00 EUMP2 =    -0.14971837168891D+03

 **********************************************************************

            Population analysis using the SCF density.

 **********************************************************************

 Orbital symmetries:
       Occupied  (A) (A) (A) (A) (A) (A) (A) (A) (A) (A) (A) (A)
       Virtual   (A) (A) (A) (A) (A) (A) (A) (A) (A) (A) (A) (A)
                 (A) (A) (A) (A) (A) (A) (A) (A) (A) (A) (A) (A)
                 (A) (A) (A) (A) (A) (A) (A) (A) (A) (A) (A) (A)
                 (A) (A) (A) (A) (A) (A) (A) (A) (A) (A) (A) (A)
                 (A) (A) (A) (A) (A) (A) (A) (A) (A) (A) (A) (A)
                 (A) (A) (A) (A) (A) (A) (A) (A) (A) (A) (A) (A)
                 (A) (A) (A) (A) (A) (A) (A) (A) (A) (A) (A) (A)
                 (A) (A) (A) (A) (A) (A) (A) (A) (A) (A) (A) (A)
                 (A) (A) (A) (A) (A) (A) (A) (A) (A) (A) (A) (A)
                 (A) (A) (A) (A) (A) (A) (A) (A) (A) (A) (A) (A)
                 (A) (A) (A) (A) (A) (A) (A) (A) (A) (A) (A) (A)
                 (A) (A)
 The electronic state is 1-A.
 Alpha  occ. eigenvalues --  -15.58029 -15.51842 -11.31253  -1.25080  -1.13561
 Alpha  occ. eigenvalues --   -0.83457  -0.72056  -0.68493  -0.57344  -0.52561
 Alpha  occ. eigenvalues --   -0.42136  -0.36437
 Alpha virt. eigenvalues --    0.13233   0.15571   0.19642   0.19733   0.22172
 Alpha virt. eigenvalues --    0.34314   0.37931   0.46107   0.47916   0.50723
 Alpha virt. eigenvalues --    0.52709   0.58355   0.62354   0.65438   0.65655
 Alpha virt. eigenvalues --    0.68652   0.69352   0.71631   0.72577   0.76717
 Alpha virt. eigenvalues --    0.77187   0.82946   0.90908   0.91823   0.96093
 Alpha virt. eigenvalues --    1.01392   1.04576   1.10812   1.14626   1.17049
 Alpha virt. eigenvalues --    1.24887   1.26585   1.26706   1.33172   1.45987
 Alpha virt. eigenvalues --    1.51983   1.55462   1.58665   1.61779   1.64840
 Alpha virt. eigenvalues --    1.65881   1.74236   1.86570   1.87351   1.91595
 Alpha virt. eigenvalues --    1.93845   1.98109   2.03767   2.11618   2.36846
 Alpha virt. eigenvalues --    2.40654   2.57686   2.73012   2.78027   2.86310
 Alpha virt. eigenvalues --    2.92776   2.98704   2.99665   3.09694   3.17612
 Alpha virt. eigenvalues --    3.24544   3.25540   3.27302   3.28092   3.30022
 Alpha virt. eigenvalues --    3.38584   3.41974   3.42339   3.47075   3.49470
 Alpha virt. eigenvalues --    3.51123   3.60126   3.68219   3.69147   3.74828
 Alpha virt. eigenvalues --    3.78054   3.80069   3.83575   3.86209   3.86873
 Alpha virt. eigenvalues --    3.87312   3.97900   3.97995   4.06631   4.07837
 Alpha virt. eigenvalues --    4.12514   4.16435   4.18577   4.20656   4.27400
 Alpha virt. eigenvalues --    4.29752   4.36476   4.37467   4.40481   4.42283
 Alpha virt. eigenvalues --    4.50581   4.53067   4.59362   4.68021   4.83854
 Alpha virt. eigenvalues --    4.86621   4.87851   5.04066   5.05350   5.09676
 Alpha virt. eigenvalues --    5.13068   5.14141   5.19866   5.25349   5.31561
 Alpha virt. eigenvalues --    5.35953   5.41595   5.46082   5.63351   5.67385
 Alpha virt. eigenvalues --    5.73705   5.76417   5.82510   5.99202   6.02009
 Alpha virt. eigenvalues --    6.05826   6.13779   6.18950   6.20398   6.36613
 Alpha virt. eigenvalues --    6.44773   6.49000   6.68656   7.12130   7.25497
 Alpha virt. eigenvalues --    7.34855  10.63375  13.63964  14.67883
          Condensed to atoms (all electrons):
              1          2          3          4          5          6
     1  C    4.465094   0.408854   0.756911   0.406481  -0.090788  -0.019823
     2  N    0.408854   6.357246  -0.116143  -0.061014  -0.015891   0.377532
     3  N    0.756911  -0.116143   6.414097  -0.030822   0.381158   0.005718
     4  H    0.406481  -0.061014  -0.030822   0.532575   0.009247  -0.002159
     5  H   -0.090788  -0.015891   0.381158   0.009247   0.573255   0.000620
     6  H   -0.019823   0.377532   0.005718  -0.002159   0.000620   0.488460
     7  H   -0.029291   0.387278   0.001332   0.006056   0.007132  -0.040552
              7
     1  C   -0.029291
     2  N    0.387278
     3  N    0.001332
     4  H    0.006056
     5  H    0.007132
     6  H   -0.040552
     7  H    0.485596
 Mulliken atomic charges:
              1
     1  C    0.102561
     2  N   -0.337863
     3  N   -0.412252
     4  H    0.139636
     5  H    0.135267
     6  H    0.190203
     7  H    0.182448
 Sum of Mulliken atomic charges =   0.00000
 Mulliken charges with hydrogens summed into heavy atoms:
              1
     1  C    0.242197
     2  N    0.034788
     3  N   -0.276985
 Sum of Mulliken charges with hydrogens summed into heavy atoms =   0.00000
 Electronic spatial extent (au):  <R**2>=            161.1903
 Charge=              0.0000 electrons
 Dipole moment (field-independent basis, Debye):
    X=              3.7779    Y=             -0.6327    Z=              0.0009  Tot=              3.8305
 Quadrupole moment (field-independent basis, Debye-Ang):
   XX=            -20.4227   YY=            -14.0800   ZZ=            -20.8392
   XY=              1.3914   XZ=              0.0017   YZ=             -0.0003
 Traceless Quadrupole moment (field-independent basis, Debye-Ang):
   XX=             -1.9754   YY=              4.3673   ZZ=             -2.3919
   XY=              1.3914   XZ=              0.0017   YZ=             -0.0003
 Octapole moment (field-independent basis, Debye-Ang**2):
  XXX=             20.7530  YYY=             -3.4538  ZZZ=              0.0006  XYY=              1.9931
  XXY=             -2.1973  XXZ=              0.0026  XZZ=              0.7017  YZZ=             -0.1800
  YYZ=              0.0006  XYZ=             -0.0003
 Hexadecapole moment (field-independent basis, Debye-Ang**3):
 XXXX=           -140.0849 YYYY=            -33.5074 ZZZZ=            -20.5062 XXXY=              7.0758
 XXXZ=              0.0056 YYYX=             -0.3451 YYYZ=             -0.0009 ZZZX=              0.0014
 ZZZY=             -0.0002 XXYY=            -24.9531 XXZZ=            -30.4224 YYZZ=            -10.9278
 XXYZ=             -0.0001 YYXZ=              0.0011 ZZXY=              0.5614
 N-N= 7.177059619947D+01 E-N=-4.928111289262D+02  KE= 1.488413432791D+02
 1\1\GINC-ROCK\SP\RMP2-FC\CC-pVTZ\C1H4N2\STYLIANAKIS\20-Mar-2016\0\\# m
 p2/cc-pVTZ\\formamidine_cis_single_point\\0,1\C\N,1,1.375091\N,1,1.279
 177,2,129.187\H,1,1.092605,2,112.675,3,-179.993,0\H,3,1.024866,1,111.7
 5,2,0.005,0\H,2,1.00708,1,120.883,3,-179.982,0\H,2,1.00876,1,121.33,3,
 -0.023,0\\Version=EM64L-G09RevA.01\State=1-A\HF=-149.1367793\MP2=-149.
 7183717\RMSD=7.701e-09\PG=C01 [X(C1H4N2)]\\@


 ON INDUCTION, OR "WHY DO YOU BELIEVE THE SUN WILL RISE TOMORROW?":

 ... THE FARMER WHO HAS FED THE CHICKEN EVERY DAY THROUGHOUT ITS
 LIFE AT LAST WRINGS ITS NECK INSTEAD, SHOWING THAT MORE REFINED VIEWS
 AS TO THE UNIFORMITY OF NATURE WOULD HAVE BEEN USEFUL TO THE CHICKEN.

                               -- BERTRAND RUSSELL
 Job cpu time:  0 days  0 hours  3 minutes 57.9 seconds.
 File lengths (MBytes):  RWF=     10 Int=      0 D2E=      0 Chk=      2 Scr=      1
 Normal termination of Gaussian 09 at Sun Mar 20 01:02:47 2016.
