 Entering Gaussian System, Link 0=g09
 Input=N_2_dimethylpiperidine_eq_ax.gjf
 Output=N_2_dimethylpiperidine_eq_ax.out
 Initial command:
 /usr/local/g09/l1.exe /home/scratch/stylianakis/Gau-18268.inp -scrdir=/home/scratch/stylianakis/
 Entering Link 1 = /usr/local/g09/l1.exe PID=     18269.
  
 Copyright (c) 1988,1990,1992,1993,1995,1998,2003,2009, Gaussian, Inc.
                  All Rights Reserved.
  
 This is part of the Gaussian(R) 09 program.  It is based on
 the Gaussian(R) 03 system (copyright 2003, Gaussian, Inc.),
 the Gaussian(R) 98 system (copyright 1998, Gaussian, Inc.),
 the Gaussian(R) 94 system (copyright 1995, Gaussian, Inc.),
 the Gaussian 92(TM) system (copyright 1992, Gaussian, Inc.),
 the Gaussian 90(TM) system (copyright 1990, Gaussian, Inc.),
 the Gaussian 88(TM) system (copyright 1988, Gaussian, Inc.),
 the Gaussian 86(TM) system (copyright 1986, Carnegie Mellon
 University), and the Gaussian 82(TM) system (copyright 1983,
 Carnegie Mellon University). Gaussian is a federally registered
 trademark of Gaussian, Inc.
  
 This software contains proprietary and confidential information,
 including trade secrets, belonging to Gaussian, Inc.
  
 This software is provided under written license and may be
 used, copied, transmitted, or stored only in accord with that
 written license.
  
 The following legend is applicable only to US Government
 contracts under FAR:
  
                    RESTRICTED RIGHTS LEGEND
  
 Use, reproduction and disclosure by the US Government is
 subject to restrictions as set forth in subparagraphs (a)
 and (c) of the Commercial Computer Software - Restricted
 Rights clause in FAR 52.227-19.
  
 Gaussian, Inc.
 340 Quinnipiac St., Bldg. 40, Wallingford CT 06492
  
  
 ---------------------------------------------------------------
 Warning -- This program may not be used in any manner that
 competes with the business of Gaussian, Inc. or will provide
 assistance to any competitor of Gaussian, Inc.  The licensee
 of this program is prohibited from giving any competitor of
 Gaussian, Inc. access to this program.  By using this program,
 the user acknowledges that Gaussian, Inc. is engaged in the
 business of creating and licensing software in the field of
 computational chemistry and represents and warrants to the
 licensee that it is not a competitor of Gaussian, Inc. and that
 it will not use this program in any manner prohibited above.
 ---------------------------------------------------------------
  

 Cite this work as:
 Gaussian 09, Revision A.01,
 M. J. Frisch, G. W. Trucks, H. B. Schlegel, G. E. Scuseria, 
 M. A. Robb, J. R. Cheeseman, G. Scalmani, V. Barone, B. Mennucci, 
 G. A. Petersson, H. Nakatsuji, M. Caricato, X. Li, H. P. Hratchian, 
 A. F. Izmaylov, J. Bloino, G. Zheng, J. L. Sonnenberg, M. Hada, 
 M. Ehara, K. Toyota, R. Fukuda, J. Hasegawa, M. Ishida, T. Nakajima, 
 Y. Honda, O. Kitao, H. Nakai, T. Vreven, J. A. Montgomery, Jr., 
 J. E. Peralta, F. Ogliaro, M. Bearpark, J. J. Heyd, E. Brothers, 
 K. N. Kudin, V. N. Staroverov, R. Kobayashi, J. Normand, 
 K. Raghavachari, A. Rendell, J. C. Burant, S. S. Iyengar, J. Tomasi, 
 M. Cossi, N. Rega, J. M. Millam, M. Klene, J. E. Knox, J. B. Cross, 
 V. Bakken, C. Adamo, J. Jaramillo, R. Gomperts, R. E. Stratmann, 
 O. Yazyev, A. J. Austin, R. Cammi, C. Pomelli, J. W. Ochterski, 
 R. L. Martin, K. Morokuma, V. G. Zakrzewski, G. A. Voth, 
 P. Salvador, J. J. Dannenberg, S. Dapprich, A. D. Daniels, 
 O. Farkas, J. B. Foresman, J. V. Ortiz, J. Cioslowski, 
 and D. J. Fox, Gaussian, Inc., Wallingford CT, 2009.
 
 ******************************************
 Gaussian 09:  EM64L-G09RevA.01  8-May-2009
                20-Mar-2016 
 ******************************************
 %mem=16000Mb
 %nproc=8
 Will use up to    8 processors via shared memory.
 -------------
 # mp2/cc-pVTZ
 -------------
 1/38=1/1;
 2/12=2,17=6,18=5,40=1/2;
 3/5=16,6=1,11=9,16=1,25=1,30=1/1,2,3;
 4//1;
 5/5=2,38=5/2;
 8/10=1/1;
 9/16=-3/6;
 6/7=2,8=2,9=2,10=2/1;
 99/5=1,9=1/99;
 -----------------------------------------
 N_2_dimethylpiperidine_eq_ax_single_point
 -----------------------------------------
 Symbolic Z-matrix:
 Charge =  0 Multiplicity = 1
 c
 c                    1    cc2
 c                    2    cc3      1    ccc3
 n                    3    nc4      2    ncc4     1    dih4     0
 c                    4    cn5      3    cnc5     2    dih5     0
 c                    5    cc6      4    ccn6     3    dih6     0
 c                    3    cc7      4    ccn7     5    dih7     0
 c                    4    cn8      3    cnc8     2    dih8     0
 h                    3    hc9      4    hcn9     5    dih9     0
 h                    5    hc10     4    hcn10    3    dih10    0
 h                    5    hc11     4    hcn11    3    dih11    0
 h                    2    hc12     3    hcc12    4    dih12    0
 h                    2    hc13     3    hcc13    4    dih13    0
 h                    6    hc14     5    hcc14    4    dih14    0
 h                    6    hc15     5    hcc15    4    dih15    0
 h                    1    hc16     2    hcc16    3    dih16    0
 h                    1    hc17     2    hcc17    3    dih17    0
 h                    8    hc18     4    hcn18    3    dih18    0
 h                    8    hc19     4    hcn19    3    dih19    0
 h                    8    hc20     4    hcn20    3    dih20    0
 h                    7    hc21     3    hcc21    4    dih21    0
 h                    7    hc22     3    hcc22    4    dih22    0
 h                    7    hc23     3    hcc23    4    dih23    0
       Variables:
  cc2                   1.5362                   
  cc3                   1.54161                  
  ccc3                112.424                    
  nc4                   1.47695                  
  ncc4                108.79                     
  dih4                 54.793                    
  cn5                   1.46344                  
  cnc5                114.302                    
  dih5                -57.452                    
  cc6                   1.53216                  
  ccn6                111.182                    
  dih6                 58.211                    
  cc7                   1.5459                   
  ccn7                115.319                    
  dih7                 69.535                    
  cn8                   1.45477                  
  cnc8                114.145                    
  dih8                171.053                    
  hc9                   1.09871                  
  hcn9                105.572                    
  dih9               -172.581                    
  hc10                  1.10938                  
  hcn10               112.154                    
  dih10               -64.996                    
  hc11                  1.09652                  
  hcn11               107.609                    
  dih11               178.448                    
  hc12                  1.0972                   
  hcc12               108.073                    
  dih12               -65.454                    
  hc13                  1.09695                  
  hcc13               109.405                    
  dih13               178.113                    
  hc14                  1.09704                  
  hcc14               109.496                    
  dih14              -177.004                    
  hc15                  1.09781                  
  hcc15               108.595                    
  dih15                66.072                    
  hc16                  1.09857                  
  hcc16               110.15                     
  dih16                67.389                    
  hc17                  1.09676                  
  hcc17               110.03                     
  dih17              -175.717                    
  hc18                  1.10663                  
  hcn18               114.188                    
  dih18                72.169                    
  hc19                  1.09569                  
  hcn19               109.409                    
  dih19              -167.246                    
  hc20                  1.09548                  
  hcn20               109.66                     
  dih20               -49.133                    
  hc21                  1.09465                  
  hcc21               111.443                    
  dih21                57.033                    
  hc22                  1.09581                  
  hcc22               109.795                    
  dih22               175.964                    
  hc23                  1.09453                  
  hcc23               112.646                    
  dih23               -64.192                    
 
                          Input orientation:                          
 ---------------------------------------------------------------------
 Center     Atomic      Atomic             Coordinates (Angstroms)
 Number     Number       Type             X           Y           Z
 ---------------------------------------------------------------------
      1          6           0        0.000000    0.000000    0.000000
      2          6           0        0.000000    0.000000    1.536195
      3          6           0        1.425040    0.000000    2.124253
      4          7           0        2.172300    1.142464    1.560548
      5          6           0        2.250302    1.149005    0.099201
      6          6           0        0.853219    1.160296   -0.529734
      7          6           0        2.114630   -1.376183    1.981445
      8          6           0        3.463724    1.376676    2.188031
      9          1           0        1.338644    0.206001    3.200009
     10          1           0        2.829410    0.287739   -0.292687
     11          1           0        2.798886    2.050166   -0.199680
     12          1           0       -0.515073    0.901068    1.892048
     13          1           0       -0.553695   -0.864559    1.922538
     14          1           0        0.942996    1.110947   -1.621976
     15          1           0        0.366408    2.113108   -0.284058
     16          1           0        0.396520   -0.952062   -0.378435
     17          1           0       -1.027539    0.076954   -0.375652
     18          1           0        4.233924    0.623325    1.935295
     19          1           0        3.845932    2.356233    1.879940
     20          1           0        3.347470    1.388775    3.277256
     21          1           0        3.109347   -1.374686    2.438384
     22          1           0        1.520464   -2.143577    2.490233
     23          1           0        2.227876   -1.684498    0.937361
 ---------------------------------------------------------------------
                    Distance matrix (angstroms):
                    1          2          3          4          5
     1  C    0.000000
     2  C    1.536195   0.000000
     3  C    2.557966   1.541607   0.000000
     4  N    2.908508   2.454527   1.476951   0.000000
     5  C    2.528618   2.906720   2.470244   1.463442   0.000000
     6  C    1.534564   2.518398   2.952442   2.471754   1.532164
     7  C    3.208063   2.561989   1.545900   2.554225   3.152432
     8  C    4.322048   3.783849   2.460799   1.454774   2.426405
     9  H    3.474833   2.145386   1.098705   2.063923   3.366807
    10  H    2.859025   3.381297   2.810097   2.144022   1.109379
    11  H    3.475171   3.879459   3.389881   2.077242   1.096524
    12  H    2.158024   1.097203   2.151716   2.718480   3.305007
    13  H    2.179494   1.096951   2.168766   3.404442   3.904023
    14  H    2.180424   3.478144   3.937105   3.411838   2.161699
    15  H    2.163370   2.812970   3.374298   2.757891   2.150683
    16  H    1.098573   2.174732   2.868401   3.361561   2.842380
    17  H    1.096756   2.171847   3.502941   3.888850   3.481238
    18  H    4.696809   4.298130   2.883412   2.158758   2.753605
    19  H    4.886431   4.523405   3.387070   2.091959   2.678520
    20  H    4.886170   4.020640   2.637015   2.094942   3.370654
    21  H    4.183721   3.517349   2.196663   2.825722   3.546654
    22  H    3.620497   2.795876   2.176688   3.476676   4.134102
    23  H    2.946118   2.856496   2.211514   2.895370   2.954955
                    6          7          8          9         10
     6  C    0.000000
     7  C    3.785618   0.000000
     8  C    3.774626   3.072615   0.000000
     9  H    3.880374   2.142512   2.628791   0.000000
    10  H    2.173219   2.907099   2.782463   3.798420   0.000000
    11  H    2.164815   4.118905   2.568416   4.134143   1.765143
    12  H    2.793644   3.479828   4.018039   2.372793   4.041634
    13  H    3.477511   2.717571   4.607958   2.521702   4.204809
    14  H    1.097036   4.532459   4.576116   4.922093   2.450151
    15  H    1.097812   4.512642   4.030747   4.089135   3.065685
    16  H    2.166454   2.949715   4.627906   3.877367   2.731926
    17  H    2.175919   4.188168   5.332279   4.289619   3.863596
    18  H    4.218279   2.914029   1.106626   3.186896   2.655029
    19  H    4.024069   4.115658   1.095690   3.557046   3.167379
    20  H    4.557046   3.293024   1.095478   2.332446   3.771626
    21  H    4.508434   1.094649   2.785364   2.492796   3.209482
    22  H    4.525594   1.095807   4.032340   2.461170   3.920368
    23  H    3.483519   1.094530   3.530196   3.079659   2.400954
                   11         12         13         14         15
    11  H    0.000000
    12  H    4.083880   0.000000
    13  H    4.923335   1.766312   0.000000
    14  H    2.519799   3.810299   4.325076   0.000000
    15  H    2.434755   2.642250   3.818659   1.768278   0.000000
    16  H    3.849245   3.069232   2.490992   2.470027   3.066770
    17  H    4.308835   2.466627   2.528370   2.550582   2.469291
    18  H    2.941654   4.757308   5.013507   4.870540   4.701347
    19  H    2.348362   4.597393   5.452709   4.716057   4.104764
    20  H    3.581545   4.132300   4.704452   5.464537   4.700463
    21  H    4.334210   4.314390   3.734194   5.230485   5.205777
    22  H    5.143683   3.710943   2.502060   5.275951   5.210365
    23  H    3.945457   3.888489   3.062681   4.001954   4.402129
                   16         17         18         19         20
    16  H    0.000000
    17  H    1.756936   0.000000
    18  H    4.749828   5.772521   0.000000
    19  H    5.286164   5.833827   1.776675   0.000000
    20  H    5.248972   5.848532   1.781172   1.771139   0.000000
    21  H    3.933512   5.209596   2.347300   3.843720   2.897780
    22  H    3.303365   4.431296   3.914916   5.101819   4.053994
    23  H    2.371002   3.927397   3.216543   4.453546   4.021643
                   21         22         23
    21  H    0.000000
    22  H    1.765908   0.000000
    23  H    1.768063   1.767088   0.000000
 Stoichiometry    C7H15N
 Framework group  C1[X(C7H15N)]
 Deg. of freedom    63
 Full point group                 C1      NOp   1
 Largest Abelian subgroup         C1      NOp   1
 Largest concise Abelian subgroup C1      NOp   1
                         Standard orientation:                         
 ---------------------------------------------------------------------
 Center     Atomic      Atomic             Coordinates (Angstroms)
 Number     Number       Type             X           Y           Z
 ---------------------------------------------------------------------
      1          6           0       -1.967151    0.155879    0.131036
      2          6           0       -1.079404    1.016650   -0.780487
      3          6           0        0.414096    0.916268   -0.411793
      4          7           0        0.811167   -0.506291   -0.418417
      5          6           0        0.030497   -1.353699    0.483866
      6          6           0       -1.462826   -1.293365    0.146416
      7          6           0        0.747855    1.689787    0.884386
      8          6           0        2.243443   -0.724940   -0.287478
      9          1           0        0.987071    1.386201   -1.222974
     10          1           0        0.183999   -1.083616    1.548861
     11          1           0        0.394871   -2.381799    0.371582
     12          1           0       -1.197782    0.676356   -1.816846
     13          1           0       -1.393595    2.067066   -0.745658
     14          1           0       -2.026429   -1.894393    0.870712
     15          1           0       -1.616656   -1.743834   -0.842829
     16          1           0       -1.963061    0.558619    1.153115
     17          1           0       -3.008160    0.196003   -0.211841
     18          1           0        2.643195   -0.517776    0.723414
     19          1           0        2.475890   -1.768485   -0.527310
     20          1           0        2.780025   -0.088882   -0.999926
     21          1           0        1.817360    1.644596    1.113238
     22          1           0        0.481684    2.746069    0.765166
     23          1           0        0.204362    1.308425    1.754544
 ---------------------------------------------------------------------
 Rotational constants (GHZ):      2.6869759      1.9707976      1.4094822
 Standard basis: CC-pVTZ (5D, 7F)
 There are   450 symmetry adapted basis functions of A   symmetry.
 Integral buffers will be    131072 words long.
 Raffenetti 1 integral format.
 Two-electron integral symmetry is turned on.
   450 basis functions,   671 primitive gaussians,   505 cartesian basis functions
    32 alpha electrons       32 beta electrons
       nuclear repulsion energy       419.9887758636 Hartrees.
 NAtoms=   23 NActive=   23 NUniq=   23 SFac= 7.50D-01 NAtFMM=   80 NAOKFM=F Big=F
 One-electron integrals computed using PRISM.
 NBasis=   450 RedAO= T  NBF=   450
 NBsUse=   450 1.00D-06 NBFU=   450
 Harris functional with IExCor=  205 diagonalized for initial guess.
 ExpMin= 1.03D-01 ExpMax= 1.14D+04 ExpMxC= 3.89D+02 IAcc=1 IRadAn=         1 AccDes= 0.00D+00
 HarFok:  IExCor=  205 AccDes= 0.00D+00 IRadAn=         1 IDoV= 1
 ScaDFX=  1.000000  1.000000  1.000000  1.000000
 FoFCou: FMM=F IPFlag=           0 FMFlag=      100000 FMFlg1=           0
         NFxFlg=           0 DoJE=T BraDBF=F KetDBF=T FulRan=T
         Omega=  0.000000  0.000000  1.000000  0.000000  0.000000 ICntrl=     500 IOpCl=  0
         NMat0=    1 NMatS0=    1 NMatT0=    0 NMatD0=    1 NMtDS0=    0 NMtDT0=    0
         I1Cent=           4 NGrid=           0.
 Petite list used in FoFCou.
 Initial guess orbital symmetries:
       Occupied  (A) (A) (A) (A) (A) (A) (A) (A) (A) (A) (A) (A)
                 (A) (A) (A) (A) (A) (A) (A) (A) (A) (A) (A) (A)
                 (A) (A) (A) (A) (A) (A) (A) (A)
       Virtual   (A) (A) (A) (A) (A) (A) (A) (A) (A) (A) (A) (A)
                 (A) (A) (A) (A) (A) (A) (A) (A) (A) (A) (A) (A)
                 (A) (A) (A) (A) (A) (A) (A) (A) (A) (A) (A) (A)
                 (A) (A) (A) (A) (A) (A) (A) (A) (A) (A) (A) (A)
                 (A) (A) (A) (A) (A) (A) (A) (A) (A) (A) (A) (A)
                 (A) (A) (A) (A) (A) (A) (A) (A) (A) (A) (A) (A)
                 (A) (A) (A) (A) (A) (A) (A) (A) (A) (A) (A) (A)
                 (A) (A) (A) (A) (A) (A) (A) (A) (A) (A) (A) (A)
                 (A) (A) (A) (A) (A) (A) (A) (A) (A) (A) (A) (A)
                 (A) (A) (A) (A) (A) (A) (A) (A) (A) (A) (A) (A)
                 (A) (A) (A) (A) (A) (A) (A) (A) (A) (A) (A) (A)
                 (A) (A) (A) (A) (A) (A) (A) (A) (A) (A) (A) (A)
                 (A) (A) (A) (A) (A) (A) (A) (A) (A) (A) (A) (A)
                 (A) (A) (A) (A) (A) (A) (A) (A) (A) (A) (A) (A)
                 (A) (A) (A) (A) (A) (A) (A) (A) (A) (A) (A) (A)
                 (A) (A) (A) (A) (A) (A) (A) (A) (A) (A) (A) (A)
                 (A) (A) (A) (A) (A) (A) (A) (A) (A) (A) (A) (A)
                 (A) (A) (A) (A) (A) (A) (A) (A) (A) (A) (A) (A)
                 (A) (A) (A) (A) (A) (A) (A) (A) (A) (A) (A) (A)
                 (A) (A) (A) (A) (A) (A) (A) (A) (A) (A) (A) (A)
                 (A) (A) (A) (A) (A) (A) (A) (A) (A) (A) (A) (A)
                 (A) (A) (A) (A) (A) (A) (A) (A) (A) (A) (A) (A)
                 (A) (A) (A) (A) (A) (A) (A) (A) (A) (A) (A) (A)
                 (A) (A) (A) (A) (A) (A) (A) (A) (A) (A) (A) (A)
                 (A) (A) (A) (A) (A) (A) (A) (A) (A) (A) (A) (A)
                 (A) (A) (A) (A) (A) (A) (A) (A) (A) (A) (A) (A)
                 (A) (A) (A) (A) (A) (A) (A) (A) (A) (A) (A) (A)
                 (A) (A) (A) (A) (A) (A) (A) (A) (A) (A) (A) (A)
                 (A) (A) (A) (A) (A) (A) (A) (A) (A) (A) (A) (A)
                 (A) (A) (A) (A) (A) (A) (A) (A) (A) (A) (A) (A)
                 (A) (A) (A) (A) (A) (A) (A) (A) (A) (A) (A) (A)
                 (A) (A) (A) (A) (A) (A) (A) (A) (A) (A) (A) (A)
                 (A) (A) (A) (A) (A) (A) (A) (A) (A) (A) (A) (A)
                 (A) (A) (A) (A) (A) (A) (A) (A) (A) (A) (A) (A)
                 (A) (A) (A) (A) (A) (A) (A) (A) (A) (A)
 The electronic state of the initial guess is 1-A.
 Requested convergence on RMS density matrix=1.00D-08 within 128 cycles.
 Requested convergence on MAX density matrix=1.00D-06.
 Requested convergence on             energy=1.00D-06.
 No special actions if energy rises.
 Integral accuracy reduced to 1.0D-05 until final iterations.
 Initial convergence to 1.0D-05 achieved.  Increase integral accuracy.
 SCF Done:  E(RHF) =  -328.359496319     A.U. after   11 cycles
             Convg  =    0.9276D-08             -V/T =  2.0018
 ExpMin= 1.03D-01 ExpMax= 1.14D+04 ExpMxC= 3.89D+02 IAcc=1 IRadAn=         1 AccDes= 0.00D+00
 HarFok:  IExCor=  205 AccDes= 0.00D+00 IRadAn=         1 IDoV=-2
 ScaDFX=  1.000000  1.000000  1.000000  1.000000
 Range of M.O.s used for correlation:     9   450
 NBasis=   450 NAE=    32 NBE=    32 NFC=     8 NFV=     0
 NROrb=    442 NOA=    24 NOB=    24 NVA=   418 NVB=   418

 **** Warning!!: The largest alpha MO coefficient is  0.10898967D+02

 Fully direct method using O(OVN) memory.
 JobTyp=1 Pass  1:  I=   1 to  24 NPSUse=  8 ParTrn=T ParDer=T DoDerP=F.
 Spin components of T(2) and E(2):
     alpha-alpha T2 =       0.5451353103D-01 E2=     -0.1647269457D+00
     alpha-beta  T2 =       0.3304449238D+00 E2=     -0.1102047870D+01
     beta-beta   T2 =       0.5451353103D-01 E2=     -0.1647269457D+00
 ANorm=    0.1199779974D+01
 E2 =    -0.1431501761D+01 EUMP2 =    -0.32979099808046D+03

 **********************************************************************

            Population analysis using the SCF density.

 **********************************************************************

 Orbital symmetries:
       Occupied  (A) (A) (A) (A) (A) (A) (A) (A) (A) (A) (A) (A)
                 (A) (A) (A) (A) (A) (A) (A) (A) (A) (A) (A) (A)
                 (A) (A) (A) (A) (A) (A) (A) (A)
       Virtual   (A) (A) (A) (A) (A) (A) (A) (A) (A) (A) (A) (A)
                 (A) (A) (A) (A) (A) (A) (A) (A) (A) (A) (A) (A)
                 (A) (A) (A) (A) (A) (A) (A) (A) (A) (A) (A) (A)
                 (A) (A) (A) (A) (A) (A) (A) (A) (A) (A) (A) (A)
                 (A) (A) (A) (A) (A) (A) (A) (A) (A) (A) (A) (A)
                 (A) (A) (A) (A) (A) (A) (A) (A) (A) (A) (A) (A)
                 (A) (A) (A) (A) (A) (A) (A) (A) (A) (A) (A) (A)
                 (A) (A) (A) (A) (A) (A) (A) (A) (A) (A) (A) (A)
                 (A) (A) (A) (A) (A) (A) (A) (A) (A) (A) (A) (A)
                 (A) (A) (A) (A) (A) (A) (A) (A) (A) (A) (A) (A)
                 (A) (A) (A) (A) (A) (A) (A) (A) (A) (A) (A) (A)
                 (A) (A) (A) (A) (A) (A) (A) (A) (A) (A) (A) (A)
                 (A) (A) (A) (A) (A) (A) (A) (A) (A) (A) (A) (A)
                 (A) (A) (A) (A) (A) (A) (A) (A) (A) (A) (A) (A)
                 (A) (A) (A) (A) (A) (A) (A) (A) (A) (A) (A) (A)
                 (A) (A) (A) (A) (A) (A) (A) (A) (A) (A) (A) (A)
                 (A) (A) (A) (A) (A) (A) (A) (A) (A) (A) (A) (A)
                 (A) (A) (A) (A) (A) (A) (A) (A) (A) (A) (A) (A)
                 (A) (A) (A) (A) (A) (A) (A) (A) (A) (A) (A) (A)
                 (A) (A) (A) (A) (A) (A) (A) (A) (A) (A) (A) (A)
                 (A) (A) (A) (A) (A) (A) (A) (A) (A) (A) (A) (A)
                 (A) (A) (A) (A) (A) (A) (A) (A) (A) (A) (A) (A)
                 (A) (A) (A) (A) (A) (A) (A) (A) (A) (A) (A) (A)
                 (A) (A) (A) (A) (A) (A) (A) (A) (A) (A) (A) (A)
                 (A) (A) (A) (A) (A) (A) (A) (A) (A) (A) (A) (A)
                 (A) (A) (A) (A) (A) (A) (A) (A) (A) (A) (A) (A)
                 (A) (A) (A) (A) (A) (A) (A) (A) (A) (A) (A) (A)
                 (A) (A) (A) (A) (A) (A) (A) (A) (A) (A) (A) (A)
                 (A) (A) (A) (A) (A) (A) (A) (A) (A) (A) (A) (A)
                 (A) (A) (A) (A) (A) (A) (A) (A) (A) (A) (A) (A)
                 (A) (A) (A) (A) (A) (A) (A) (A) (A) (A) (A) (A)
                 (A) (A) (A) (A) (A) (A) (A) (A) (A) (A) (A) (A)
                 (A) (A) (A) (A) (A) (A) (A) (A) (A) (A) (A) (A)
                 (A) (A) (A) (A) (A) (A) (A) (A) (A) (A) (A) (A)
                 (A) (A) (A) (A) (A) (A) (A) (A) (A) (A)
 The electronic state is 1-A.
 Alpha  occ. eigenvalues --  -15.53515 -11.24949 -11.24096 -11.23736 -11.21546
 Alpha  occ. eigenvalues --  -11.21369 -11.21288 -11.20861  -1.22055  -1.06403
 Alpha  occ. eigenvalues --   -1.02896  -0.94732  -0.91030  -0.83611  -0.81807
 Alpha  occ. eigenvalues --   -0.72221  -0.65835  -0.62733  -0.61782  -0.59992
 Alpha  occ. eigenvalues --   -0.57124  -0.56051  -0.54539  -0.53859  -0.52541
 Alpha  occ. eigenvalues --   -0.50514  -0.49152  -0.47636  -0.45494  -0.43827
 Alpha  occ. eigenvalues --   -0.43251  -0.34002
 Alpha virt. eigenvalues --    0.13676   0.15926   0.16239   0.16447   0.19264
 Alpha virt. eigenvalues --    0.20005   0.20300   0.21708   0.21858   0.23557
 Alpha virt. eigenvalues --    0.24136   0.24776   0.26429   0.27009   0.27829
 Alpha virt. eigenvalues --    0.29728   0.32028   0.33712   0.35739   0.36448
 Alpha virt. eigenvalues --    0.37385   0.37955   0.39023   0.39323   0.42549
 Alpha virt. eigenvalues --    0.43607   0.44267   0.45510   0.47461   0.49182
 Alpha virt. eigenvalues --    0.51330   0.51854   0.51986   0.56380   0.56908
 Alpha virt. eigenvalues --    0.58428   0.59364   0.60034   0.60646   0.60958
 Alpha virt. eigenvalues --    0.61966   0.62739   0.63299   0.63883   0.63949
 Alpha virt. eigenvalues --    0.65181   0.65257   0.66494   0.66867   0.67238
 Alpha virt. eigenvalues --    0.68334   0.69093   0.69528   0.69657   0.70789
 Alpha virt. eigenvalues --    0.71419   0.72289   0.75068   0.75814   0.77561
 Alpha virt. eigenvalues --    0.80976   0.82150   0.87139   0.88247   0.88516
 Alpha virt. eigenvalues --    0.90743   0.94744   0.95995   0.97710   0.98994
 Alpha virt. eigenvalues --    1.00282   1.01267   1.01608   1.02842   1.05616
 Alpha virt. eigenvalues --    1.07845   1.09242   1.10806   1.12246   1.12943
 Alpha virt. eigenvalues --    1.14344   1.16181   1.16975   1.18949   1.20355
 Alpha virt. eigenvalues --    1.21586   1.21865   1.22617   1.22898   1.23777
 Alpha virt. eigenvalues --    1.26429   1.27057   1.27922   1.29980   1.31057
 Alpha virt. eigenvalues --    1.32161   1.33333   1.34041   1.34487   1.36431
 Alpha virt. eigenvalues --    1.37503   1.38911   1.39433   1.40173   1.40916
 Alpha virt. eigenvalues --    1.42646   1.43234   1.43732   1.45503   1.47190
 Alpha virt. eigenvalues --    1.48023   1.48984   1.49850   1.51636   1.52237
 Alpha virt. eigenvalues --    1.53205   1.54769   1.55097   1.55903   1.56611
 Alpha virt. eigenvalues --    1.59017   1.59705   1.60072   1.61315   1.62561
 Alpha virt. eigenvalues --    1.63397   1.64522   1.65479   1.67067   1.68697
 Alpha virt. eigenvalues --    1.69118   1.70754   1.70997   1.71983   1.73814
 Alpha virt. eigenvalues --    1.75902   1.78156   1.78679   1.80346   1.81776
 Alpha virt. eigenvalues --    1.83883   1.85840   1.87746   1.90239   1.92468
 Alpha virt. eigenvalues --    1.96913   1.98122   2.01266   2.02100   2.09885
 Alpha virt. eigenvalues --    2.16522   2.19267   2.23185   2.27001   2.32118
 Alpha virt. eigenvalues --    2.53630   2.56231   2.60575   2.61883   2.65682
 Alpha virt. eigenvalues --    2.67842   2.67960   2.71146   2.73792   2.77657
 Alpha virt. eigenvalues --    2.77880   2.80127   2.80874   2.82868   2.83797
 Alpha virt. eigenvalues --    2.85975   2.88323   2.89101   2.91221   2.93074
 Alpha virt. eigenvalues --    2.93659   2.94823   2.97072   2.97526   2.98384
 Alpha virt. eigenvalues --    2.99574   3.00760   3.02016   3.03298   3.04194
 Alpha virt. eigenvalues --    3.04722   3.05500   3.08141   3.09179   3.10053
 Alpha virt. eigenvalues --    3.10580   3.12740   3.13567   3.16079   3.17458
 Alpha virt. eigenvalues --    3.18521   3.19302   3.21494   3.23645   3.24242
 Alpha virt. eigenvalues --    3.26724   3.29192   3.29418   3.30535   3.32286
 Alpha virt. eigenvalues --    3.32586   3.33466   3.35135   3.35793   3.35914
 Alpha virt. eigenvalues --    3.37609   3.38112   3.38579   3.40920   3.41728
 Alpha virt. eigenvalues --    3.42270   3.44300   3.44951   3.46154   3.46632
 Alpha virt. eigenvalues --    3.47644   3.48568   3.50084   3.50853   3.51078
 Alpha virt. eigenvalues --    3.52156   3.53437   3.54668   3.55522   3.57145
 Alpha virt. eigenvalues --    3.59009   3.59454   3.61192   3.62268   3.64151
 Alpha virt. eigenvalues --    3.64619   3.66223   3.67658   3.68873   3.69897
 Alpha virt. eigenvalues --    3.71348   3.72930   3.73865   3.74452   3.75291
 Alpha virt. eigenvalues --    3.77155   3.77800   3.79628   3.80758   3.81087
 Alpha virt. eigenvalues --    3.82477   3.83464   3.84758   3.85710   3.87601
 Alpha virt. eigenvalues --    3.89393   3.90463   3.92627   3.93875   3.94937
 Alpha virt. eigenvalues --    3.97068   3.98189   3.99335   4.00324   4.02071
 Alpha virt. eigenvalues --    4.02734   4.03500   4.03914   4.05458   4.06836
 Alpha virt. eigenvalues --    4.07518   4.08168   4.10683   4.12724   4.13321
 Alpha virt. eigenvalues --    4.14285   4.15413   4.17243   4.18189   4.18927
 Alpha virt. eigenvalues --    4.19898   4.23034   4.23650   4.24598   4.25716
 Alpha virt. eigenvalues --    4.27893   4.28461   4.29227   4.30139   4.31928
 Alpha virt. eigenvalues --    4.33449   4.34660   4.35259   4.36004   4.37750
 Alpha virt. eigenvalues --    4.38692   4.39548   4.40832   4.42903   4.43703
 Alpha virt. eigenvalues --    4.43950   4.44389   4.46440   4.48591   4.49428
 Alpha virt. eigenvalues --    4.50106   4.52076   4.52622   4.53001   4.54922
 Alpha virt. eigenvalues --    4.55439   4.56411   4.57536   4.59000   4.60674
 Alpha virt. eigenvalues --    4.61614   4.62057   4.63082   4.66896   4.67684
 Alpha virt. eigenvalues --    4.68682   4.70208   4.71430   4.73118   4.75066
 Alpha virt. eigenvalues --    4.76393   4.77580   4.80030   4.80804   4.82477
 Alpha virt. eigenvalues --    4.85085   4.86268   4.87475   4.90600   4.93079
 Alpha virt. eigenvalues --    4.98053   5.00670   5.02549   5.05617   5.07742
 Alpha virt. eigenvalues --    5.08408   5.12136   5.12374   5.14292   5.17469
 Alpha virt. eigenvalues --    5.17937   5.19036   5.20874   5.22208   5.24452
 Alpha virt. eigenvalues --    5.26444   5.28094   5.28994   5.32373   5.33062
 Alpha virt. eigenvalues --    5.34620   5.36613   5.38644   5.39472   5.41490
 Alpha virt. eigenvalues --    5.43008   5.46831   5.47916   5.48702   5.52083
 Alpha virt. eigenvalues --    5.54484   5.54588   5.55841   5.57248   5.57484
 Alpha virt. eigenvalues --    5.59418   5.61104   5.61996   5.65257   5.66983
 Alpha virt. eigenvalues --    5.68216   5.71145   5.72043   5.72721   5.73378
 Alpha virt. eigenvalues --    5.76214   5.78666   5.79736   5.80664   5.82804
 Alpha virt. eigenvalues --    5.85619   5.87067   5.89466   5.90848   5.92418
 Alpha virt. eigenvalues --    5.96207   6.00461   6.03834   6.06336   6.10396
 Alpha virt. eigenvalues --    6.12360   6.14255   6.25270   6.30056   6.31498
 Alpha virt. eigenvalues --    6.36033   6.36790   6.39778   6.40555   6.41647
 Alpha virt. eigenvalues --    6.42895   6.46949   6.49631   6.53830   6.55170
 Alpha virt. eigenvalues --   11.06922  12.63453  12.96248  13.38396  13.57119
 Alpha virt. eigenvalues --   13.66178  14.16888  14.33894
          Condensed to atoms (all electrons):
              1          2          3          4          5          6
     1  C    4.890300   0.347438  -0.035356  -0.003521  -0.035318   0.348063
     2  C    0.347438   4.868320   0.358907  -0.043082  -0.005074  -0.044102
     3  C   -0.035356   0.358907   4.768739   0.360124  -0.041909  -0.002075
     4  N   -0.003521  -0.043082   0.360124   6.586103   0.334332  -0.040068
     5  C   -0.035318  -0.005074  -0.041909   0.334332   4.755623   0.360033
     6  C    0.348063  -0.044102  -0.002075  -0.040068   0.360033   4.843634
     7  C   -0.008475  -0.060750   0.345900  -0.066254  -0.008586   0.001676
     8  C   -0.000230   0.004915  -0.048406   0.353900  -0.053952   0.005362
     9  H    0.006913  -0.030355   0.442377  -0.028876   0.007141  -0.001557
    10  H   -0.011491   0.000476   0.002502  -0.064261   0.417629  -0.044155
    11  H    0.007108  -0.000833   0.004261  -0.030938   0.431862  -0.028934
    12  H   -0.037587   0.426214  -0.039203   0.003851  -0.000403  -0.001589
    13  H   -0.040310   0.433190  -0.035866   0.004131  -0.000825   0.006906
    14  H   -0.039749   0.006525  -0.000570   0.004330  -0.037845   0.435226
    15  H   -0.039722  -0.002287   0.000990   0.004018  -0.036975   0.418127
    16  H    0.425021  -0.037364  -0.001319   0.000446  -0.000699  -0.039841
    17  H    0.436968  -0.034561   0.005373  -0.000705   0.006165  -0.035707
    18  H   -0.000522  -0.000860  -0.004066  -0.063461  -0.010347  -0.000271
    19  H    0.000109  -0.000137   0.005306  -0.037058  -0.006540   0.000315
    20  H    0.000120   0.000841  -0.004268  -0.036702   0.008192  -0.000314
    21  H   -0.000145   0.006237  -0.031867  -0.001110  -0.000017  -0.000029
    22  H    0.000790  -0.004213  -0.027665   0.005382   0.000121  -0.000133
    23  H    0.001061  -0.002181  -0.029783   0.000211   0.000976  -0.000877
              7          8          9         10         11         12
     1  C   -0.008475  -0.000230   0.006913  -0.011491   0.007108  -0.037587
     2  C   -0.060750   0.004915  -0.030355   0.000476  -0.000833   0.426214
     3  C    0.345900  -0.048406   0.442377   0.002502   0.004261  -0.039203
     4  N   -0.066254   0.353900  -0.028876  -0.064261  -0.030938   0.003851
     5  C   -0.008586  -0.053952   0.007141   0.417629   0.431862  -0.000403
     6  C    0.001676   0.005362  -0.001557  -0.044155  -0.028934  -0.001589
     7  C    4.919581  -0.003533  -0.054227   0.003909  -0.000419   0.008916
     8  C   -0.003533   4.711886  -0.010622  -0.005518  -0.007404   0.000031
     9  H   -0.054227  -0.010622   0.579517  -0.000477  -0.000245  -0.009674
    10  H    0.003909  -0.005518  -0.000477   0.667148  -0.048225   0.000519
    11  H   -0.000419  -0.007404  -0.000245  -0.048225   0.587038  -0.000197
    12  H    0.008916   0.000031  -0.009674   0.000519  -0.000197   0.578092
    13  H   -0.001119  -0.000327  -0.003734   0.000125   0.000086  -0.028922
    14  H    0.000200  -0.000331   0.000080  -0.000484  -0.004797   0.000011
    15  H    0.000348  -0.000070  -0.000208   0.009350  -0.008279   0.002478
    16  H   -0.001762  -0.000042  -0.000276   0.001579  -0.000128   0.006500
    17  H   -0.000472   0.000060  -0.000205  -0.000516  -0.000234  -0.006234
    18  H    0.006448   0.413444  -0.000860   0.014702  -0.003184   0.000163
    19  H   -0.000554   0.423805   0.000095  -0.002141   0.003795  -0.000069
    20  H   -0.004298   0.417260   0.003056  -0.000973   0.000484  -0.000155
    21  H    0.421502  -0.001706  -0.004966   0.000141  -0.000063  -0.000257
    22  H    0.412319   0.000018  -0.003131  -0.000602   0.000046  -0.000143
    23  H    0.409669  -0.000056   0.006140  -0.003579   0.000098  -0.000404
             13         14         15         16         17         18
     1  C   -0.040310  -0.039749  -0.039722   0.425021   0.436968  -0.000522
     2  C    0.433190   0.006525  -0.002287  -0.037364  -0.034561  -0.000860
     3  C   -0.035866  -0.000570   0.000990  -0.001319   0.005373  -0.004066
     4  N    0.004131   0.004330   0.004018   0.000446  -0.000705  -0.063461
     5  C   -0.000825  -0.037845  -0.036975  -0.000699   0.006165  -0.010347
     6  C    0.006906   0.435226   0.418127  -0.039841  -0.035707  -0.000271
     7  C   -0.001119   0.000200   0.000348  -0.001762  -0.000472   0.006448
     8  C   -0.000327  -0.000331  -0.000070  -0.000042   0.000060   0.413444
     9  H   -0.003734   0.000080  -0.000208  -0.000276  -0.000205  -0.000860
    10  H    0.000125  -0.000484   0.009350   0.001579  -0.000516   0.014702
    11  H    0.000086  -0.004797  -0.008279  -0.000128  -0.000234  -0.003184
    12  H   -0.028922   0.000011   0.002478   0.006500  -0.006234   0.000163
    13  H    0.576564  -0.000201   0.000009  -0.004705  -0.004938   0.000052
    14  H   -0.000201   0.575414  -0.029756  -0.005409  -0.004742   0.000083
    15  H    0.000009  -0.029756   0.593303   0.006815  -0.005691   0.000190
    16  H   -0.004705  -0.005409   0.006815   0.594257  -0.033176  -0.000008
    17  H   -0.004938  -0.004742  -0.005691  -0.033176   0.567007  -0.000014
    18  H    0.000052   0.000083   0.000190  -0.000008  -0.000014   0.696419
    19  H    0.000016  -0.000061  -0.000141   0.000006   0.000001  -0.052258
    20  H   -0.000055   0.000013  -0.000047   0.000006   0.000000  -0.051504
    21  H   -0.000049  -0.000006   0.000003   0.000094   0.000031  -0.005057
    22  H   -0.000086  -0.000018  -0.000018   0.000471  -0.000035  -0.000666
    23  H    0.000512   0.000047  -0.000085  -0.003587   0.000105   0.000035
             19         20         21         22         23
     1  C    0.000109   0.000120  -0.000145   0.000790   0.001061
     2  C   -0.000137   0.000841   0.006237  -0.004213  -0.002181
     3  C    0.005306  -0.004268  -0.031867  -0.027665  -0.029783
     4  N   -0.037058  -0.036702  -0.001110   0.005382   0.000211
     5  C   -0.006540   0.008192  -0.000017   0.000121   0.000976
     6  C    0.000315  -0.000314  -0.000029  -0.000133  -0.000877
     7  C   -0.000554  -0.004298   0.421502   0.412319   0.409669
     8  C    0.423805   0.417260  -0.001706   0.000018  -0.000056
     9  H    0.000095   0.003056  -0.004966  -0.003131   0.006140
    10  H   -0.002141  -0.000973   0.000141  -0.000602  -0.003579
    11  H    0.003795   0.000484  -0.000063   0.000046   0.000098
    12  H   -0.000069  -0.000155  -0.000257  -0.000143  -0.000404
    13  H    0.000016  -0.000055  -0.000049  -0.000086   0.000512
    14  H   -0.000061   0.000013  -0.000006  -0.000018   0.000047
    15  H   -0.000141  -0.000047   0.000003  -0.000018  -0.000085
    16  H    0.000006   0.000006   0.000094   0.000471  -0.003587
    17  H    0.000001   0.000000   0.000031  -0.000035   0.000105
    18  H   -0.052258  -0.051504  -0.005057  -0.000666   0.000035
    19  H    0.589147  -0.021861   0.000230   0.000051  -0.000045
    20  H   -0.021861   0.597181   0.000605   0.000086   0.000079
    21  H    0.000230   0.000605   0.572530  -0.028648  -0.032549
    22  H    0.000051   0.000086  -0.028648   0.573448  -0.030872
    23  H   -0.000045   0.000079  -0.032549  -0.030872   0.591522
 Mulliken atomic charges:
              1
     1  C   -0.211464
     2  C   -0.187265
     3  C    0.007875
     4  N   -0.240792
     5  C   -0.083584
     6  C   -0.179692
     7  C   -0.320020
     8  C   -0.198484
     9  H    0.104095
    10  H    0.064340
    11  H    0.099104
    12  H    0.098063
    13  H    0.099545
    14  H    0.102042
    15  H    0.087649
    16  H    0.093122
    17  H    0.111521
    18  H    0.061542
    19  H    0.097989
    20  H    0.092255
    21  H    0.105095
    22  H    0.103499
    23  H    0.093565
 Sum of Mulliken atomic charges =   0.00000
 Mulliken charges with hydrogens summed into heavy atoms:
              1
     1  C   -0.006822
     2  C    0.010342
     3  C    0.111970
     4  N   -0.240792
     5  C    0.079860
     6  C    0.010000
     7  C   -0.017860
     8  C    0.053302
 Sum of Mulliken charges with hydrogens summed into heavy atoms =   0.00000
 Electronic spatial extent (au):  <R**2>=           1015.3012
 Charge=              0.0000 electrons
 Dipole moment (field-independent basis, Debye):
    X=              0.0460    Y=              0.2424    Z=              0.4679  Tot=              0.5290
 Quadrupole moment (field-independent basis, Debye-Ang):
   XX=            -52.0791   YY=            -52.2376   ZZ=            -54.1381
   XY=              0.0712   XZ=             -0.1688   YZ=             -1.0714
 Traceless Quadrupole moment (field-independent basis, Debye-Ang):
   XX=              0.7392   YY=              0.5807   ZZ=             -1.3199
   XY=              0.0712   XZ=             -0.1688   YZ=             -1.0714
 Octapole moment (field-independent basis, Debye-Ang**2):
  XXX=              4.3598  YYY=             -2.8863  ZZZ=             -0.6704  XYY=              1.1983
  XXY=             -1.0183  XXZ=             -2.4427  XZZ=             -0.6835  YZZ=              0.2503
  YYZ=             -1.4004  XYZ=             -0.6620
 Hexadecapole moment (field-independent basis, Debye-Ang**3):
 XXXX=           -704.8282 YYYY=           -494.3794 ZZZZ=           -205.4488 XXXY=              0.0481
 XXXZ=             -2.6631 YYYX=             -7.8897 YYYZ=             -1.6268 ZZZX=             -2.2989
 ZZZY=             -2.0444 XXYY=           -202.5683 XXZZ=           -150.9636 YYZZ=           -122.4975
 XXYZ=             -0.4995 YYXZ=             -3.6807 ZZXY=              2.7636
 N-N= 4.199887758636D+02 E-N=-1.604367862445D+03  KE= 3.277602280112D+02
 1\1\GINC-ROCK\SP\RMP2-FC\CC-pVTZ\C7H15N1\STYLIANAKIS\20-Mar-2016\0\\# 
 mp2/cc-pVTZ\\N_2_dimethylpiperidine_eq_ax_single_point\\0,1\C\C,1,1.53
 6195\C,2,1.541607,1,112.424\N,3,1.476951,2,108.79,1,54.793,0\C,4,1.463
 442,3,114.302,2,-57.452,0\C,5,1.532164,4,111.182,3,58.211,0\C,3,1.5459
 ,4,115.319,5,69.535,0\C,4,1.454774,3,114.145,2,171.053,0\H,3,1.098705,
 4,105.572,5,-172.581,0\H,5,1.109379,4,112.154,3,-64.996,0\H,5,1.096524
 ,4,107.609,3,178.448,0\H,2,1.097203,3,108.073,4,-65.454,0\H,2,1.096951
 ,3,109.405,4,178.113,0\H,6,1.097036,5,109.496,4,-177.004,0\H,6,1.09781
 2,5,108.595,4,66.072,0\H,1,1.098573,2,110.15,3,67.389,0\H,1,1.096756,2
 ,110.03,3,-175.717,0\H,8,1.106626,4,114.188,3,72.169,0\H,8,1.09569,4,1
 09.409,3,-167.246,0\H,8,1.095478,4,109.66,3,-49.133,0\H,7,1.094649,3,1
 11.443,4,57.033,0\H,7,1.095807,3,109.795,4,175.964,0\H,7,1.09453,3,112
 .646,4,-64.192,0\\Version=EM64L-G09RevA.01\State=1-A\HF=-328.3594963\M
 P2=-329.7909981\RMSD=9.276e-09\PG=C01 [X(C7H15N1)]\\@



 IN THIS SHORT LIFE

 THAT ONLY LASTS AN HOUR

 HOW MUCH, HOW LITTLE, IS WITHIN OUR POWER....


 EMILY DICKINSON BOLTS OF MELODY NO. 521
 Job cpu time:  0 days  3 hours 19 minutes 32.9 seconds.
 File lengths (MBytes):  RWF=    112 Int=      0 D2E=      0 Chk=     10 Scr=      1
 Normal termination of Gaussian 09 at Sun Mar 20 23:15:24 2016.
