 Entering Gaussian System, Link 0=g09
 Input=N_4_dimethylpiperidine_eq_ax.gjf
 Output=N_4_dimethylpiperidine_eq_ax.out
 Initial command:
 /usr/local/g09/l1.exe /home/scratch/stylianakis/Gau-19288.inp -scrdir=/home/scratch/stylianakis/
 Entering Link 1 = /usr/local/g09/l1.exe PID=     19289.
  
 Copyright (c) 1988,1990,1992,1993,1995,1998,2003,2009, Gaussian, Inc.
                  All Rights Reserved.
  
 This is part of the Gaussian(R) 09 program.  It is based on
 the Gaussian(R) 03 system (copyright 2003, Gaussian, Inc.),
 the Gaussian(R) 98 system (copyright 1998, Gaussian, Inc.),
 the Gaussian(R) 94 system (copyright 1995, Gaussian, Inc.),
 the Gaussian 92(TM) system (copyright 1992, Gaussian, Inc.),
 the Gaussian 90(TM) system (copyright 1990, Gaussian, Inc.),
 the Gaussian 88(TM) system (copyright 1988, Gaussian, Inc.),
 the Gaussian 86(TM) system (copyright 1986, Carnegie Mellon
 University), and the Gaussian 82(TM) system (copyright 1983,
 Carnegie Mellon University). Gaussian is a federally registered
 trademark of Gaussian, Inc.
  
 This software contains proprietary and confidential information,
 including trade secrets, belonging to Gaussian, Inc.
  
 This software is provided under written license and may be
 used, copied, transmitted, or stored only in accord with that
 written license.
  
 The following legend is applicable only to US Government
 contracts under FAR:
  
                    RESTRICTED RIGHTS LEGEND
  
 Use, reproduction and disclosure by the US Government is
 subject to restrictions as set forth in subparagraphs (a)
 and (c) of the Commercial Computer Software - Restricted
 Rights clause in FAR 52.227-19.
  
 Gaussian, Inc.
 340 Quinnipiac St., Bldg. 40, Wallingford CT 06492
  
  
 ---------------------------------------------------------------
 Warning -- This program may not be used in any manner that
 competes with the business of Gaussian, Inc. or will provide
 assistance to any competitor of Gaussian, Inc.  The licensee
 of this program is prohibited from giving any competitor of
 Gaussian, Inc. access to this program.  By using this program,
 the user acknowledges that Gaussian, Inc. is engaged in the
 business of creating and licensing software in the field of
 computational chemistry and represents and warrants to the
 licensee that it is not a competitor of Gaussian, Inc. and that
 it will not use this program in any manner prohibited above.
 ---------------------------------------------------------------
  

 Cite this work as:
 Gaussian 09, Revision A.01,
 M. J. Frisch, G. W. Trucks, H. B. Schlegel, G. E. Scuseria, 
 M. A. Robb, J. R. Cheeseman, G. Scalmani, V. Barone, B. Mennucci, 
 G. A. Petersson, H. Nakatsuji, M. Caricato, X. Li, H. P. Hratchian, 
 A. F. Izmaylov, J. Bloino, G. Zheng, J. L. Sonnenberg, M. Hada, 
 M. Ehara, K. Toyota, R. Fukuda, J. Hasegawa, M. Ishida, T. Nakajima, 
 Y. Honda, O. Kitao, H. Nakai, T. Vreven, J. A. Montgomery, Jr., 
 J. E. Peralta, F. Ogliaro, M. Bearpark, J. J. Heyd, E. Brothers, 
 K. N. Kudin, V. N. Staroverov, R. Kobayashi, J. Normand, 
 K. Raghavachari, A. Rendell, J. C. Burant, S. S. Iyengar, J. Tomasi, 
 M. Cossi, N. Rega, J. M. Millam, M. Klene, J. E. Knox, J. B. Cross, 
 V. Bakken, C. Adamo, J. Jaramillo, R. Gomperts, R. E. Stratmann, 
 O. Yazyev, A. J. Austin, R. Cammi, C. Pomelli, J. W. Ochterski, 
 R. L. Martin, K. Morokuma, V. G. Zakrzewski, G. A. Voth, 
 P. Salvador, J. J. Dannenberg, S. Dapprich, A. D. Daniels, 
 O. Farkas, J. B. Foresman, J. V. Ortiz, J. Cioslowski, 
 and D. J. Fox, Gaussian, Inc., Wallingford CT, 2009.
 
 ******************************************
 Gaussian 09:  EM64L-G09RevA.01  8-May-2009
                21-Mar-2016 
 ******************************************
 %mem=16000Mb
 %nproc=8
 Will use up to    8 processors via shared memory.
 -------------
 # mp2/cc-pVTZ
 -------------
 1/38=1/1;
 2/12=2,17=6,18=5,40=1/2;
 3/5=16,6=1,11=9,16=1,25=1,30=1/1,2,3;
 4//1;
 5/5=2,38=5/2;
 8/10=1/1;
 9/16=-3/6;
 6/7=2,8=2,9=2,10=2/1;
 99/5=1,9=1/99;
 -----------------------------------------
 N_4_dimethylpiperidine_eq_ax_single_point
 -----------------------------------------
 Symbolic Z-matrix:
 Charge =  0 Multiplicity = 1
 c
 c                    1    cc2
 c                    2    cc3      1    ccc3
 n                    3    nc4      2    ncc4     1    dih4     0
 c                    4    cn5      3    cnc5     2    dih5     0
 c                    5    cc6      4    ccn6     3    dih6     0
 c                    4    cn7      3    cnc7     2    dih7     0
 c                    1    cc8      2    ccc8     3    dih8     0
 h                    3    hc9      4    hcn9     5    dih9     0
 h                    5    hc10     4    hcn10    3    dih10    0
 h                    5    hc11     4    hcn11    3    dih11    0
 h                    2    hc12     3    hcc12    4    dih12    0
 h                    6    hc13     5    hcc13    4    dih13    0
 h                    6    hc14     5    hcc14    4    dih14    0
 h                    1    hc15     2    hcc15    3    dih15    0
 h                    7    hc16     4    hcn16    3    dih16    0
 h                    7    hc17     4    hcn17    3    dih17    0
 h                    7    hc18     4    hcn18    3    dih18    0
 h                    3    hc19     4    hcn19    5    dih19    0
 h                    2    hc20     3    hcc20    4    dih20    0
 h                    8    hc21     1    hcc21    2    dih21    0
 h                    8    hc22     1    hcc22    2    dih22    0
 h                    8    hc23     1    hcc23    2    dih23    0
       Variables:
  cc2                   1.54404                  
  cc3                   1.53267                  
  ccc3                112.635                    
  nc4                   1.46416                  
  ncc4                111.126                    
  dih4                 55.687                    
  cn5                   1.46415                  
  cnc5                111.358                    
  dih5                -59.423                    
  cc6                   1.53266                  
  ccn6                111.126                    
  dih6                 59.423                    
  cn7                   1.45549                  
  cnc7                111.743                    
  dih7                174.832                    
  cc8                   1.5386                   
  ccc8                112.708                    
  dih8                 75.44                     
  hc9                   1.09623                  
  hcn9                108.156                    
  dih9               -179.778                    
  hc10                  1.11033                  
  hcn10               110.906                    
  dih10               -63.665                    
  hc11                  1.09623                  
  hcn11               108.156                    
  dih11               179.779                    
  hc12                  1.09719                  
  hcc12               108.056                    
  dih12               -64.833                    
  hc13                  1.09755                  
  hcc13               109.376                    
  dih13              -178.765                    
  hc14                  1.09719                  
  hcc14               108.056                    
  dih14                64.833                    
  hc15                  1.09869                  
  hcc15               107.698                    
  dih15              -166.791                    
  hc16                  1.10895                  
  hcn16               112.925                    
  dih16                62.766                    
  hc17                  1.09494                  
  hcn17               109.809                    
  dih17              -176.614                    
  hc18                  1.09494                  
  hcn18               109.81                     
  dih18               -57.854                    
  hc19                  1.11033                  
  hcn19               110.906                    
  dih19                63.665                    
  hc20                  1.09755                  
  hcc20               109.376                    
  dih20               178.764                    
  hc21                  1.09481                  
  hcc21               112.548                    
  dih21               -61.811                    
  hc22                  1.09626                  
  hcc22               110.75                     
  dih22                58.467                    
  hc23                  1.09626                  
  hcc23               110.75                     
  dih23               177.911                    
 
                          Input orientation:                          
 ---------------------------------------------------------------------
 Center     Atomic      Atomic             Coordinates (Angstroms)
 Number     Number       Type             X           Y           Z
 ---------------------------------------------------------------------
      1          6           0        0.000000    0.000000    0.000000
      2          6           0        0.000000    0.000000    1.544043
      3          6           0        1.414613    0.000000    2.133904
      4          7           0        2.197977    1.128069    1.626407
      5          6           0        2.313503    1.083612    0.167495
      6          6           0        0.933224    1.124991   -0.497450
      7          6           0        3.501666    1.211299    2.268211
      8          6           0        0.356811   -1.373751   -0.593953
      9          1           0        1.358166    0.086805    3.225231
     10          1           0        2.871394    0.180641   -0.158441
     11          1           0        2.903364    1.949513   -0.155001
     12          1           0       -0.517757    0.898629    1.902115
     13          1           0        1.052103    1.068041   -1.587054
     14          1           0        0.475636    2.096156   -0.271004
     15          1           0       -1.018998    0.239173   -0.334001
     16          1           0        4.137856    0.324765    2.070503
     17          1           0        4.035459    2.097839    1.910444
     18          1           0        3.376490    1.303442    3.352059
     19          1           0        1.922115   -0.963714    1.918197
     20          1           0       -0.553557   -0.867588    1.925457
     21          1           0        1.363099   -1.703006   -0.315404
     22          1           0       -0.346803   -2.140520   -0.249302
     23          1           0        0.311293   -1.347147   -1.688945
 ---------------------------------------------------------------------
                    Distance matrix (angstroms):
                    1          2          3          4          5
     1  C    0.000000
     2  C    1.544043   0.000000
     3  C    2.560210   1.532666   0.000000
     4  N    2.957845   2.471928   1.464156   0.000000
     5  C    2.560189   2.901964   2.418467   1.464154   0.000000
     6  C    1.544010   2.510818   2.901958   2.471918   1.532656
     7  C    4.344386   3.775358   2.416831   1.455487   2.416824
     8  C    1.538599   2.566229   3.232234   3.818245   3.232195
     9  H    3.500609   2.162994   1.096228   2.084647   3.355003
    10  H    2.881429   3.343050   2.722073   2.129975   1.110330
    11  H    3.500592   3.888042   3.355006   2.084647   1.096231
    12  H    2.166483   1.097188   2.143668   2.739319   3.325532
    13  H    2.183202   3.471512   3.888142   3.412179   2.160976
    14  H    2.166458   2.813271   3.325527   2.739310   2.143661
    15  H    1.098689   2.150026   3.474222   3.870694   3.474211
    16  H    4.638352   4.183836   2.743272   2.146077   2.743274
    17  H    4.933118   4.562906   3.364476   2.097015   2.651728
    18  H    4.933147   4.045808   2.651759   2.097027   3.364478
    19  H    2.881449   2.182490   1.110330   2.129976   2.722074
    20  H    2.183236   1.097548   2.160984   3.412187   3.888142
    21  H    2.204030   2.866324   2.983621   3.533078   2.983572
    22  H    2.182716   2.813927   3.655691   4.547292   4.200711
    23  H    2.182715   3.516237   4.200749   4.547289   3.655654
                    6          7          8          9         10
     6  C    0.000000
     7  C    3.775344   0.000000
     8  C    2.566179   4.976402   0.000000
     9  H    3.888027   2.602876   4.209762   0.000000
    10  H    2.182481   2.710745   2.988131   3.707815   0.000000
    11  H    2.162997   2.602860   4.209714   4.157317   1.769164
    12  H    2.813272   4.048153   3.486967   2.434908   4.030848
    13  H    1.097548   4.569896   2.726174   4.920831   2.477546
    14  H    1.097190   4.048140   3.486928   4.127955   3.069449
    15  H    2.150014   5.305934   2.135872   4.282786   3.894791
    16  H    4.183827   1.108949   4.927533   3.019387   2.567662
    17  H    4.045769   1.094937   5.644147   3.597336   3.051390
    18  H    4.562906   1.094936   5.644185   2.360069   3.720136
    19  H    3.343044   2.710751   2.988177   1.769171   2.554036
    20  H    3.471508   4.569911   2.726243   2.500992   4.143875
    21  H    2.866269   4.443164   1.094812   3.967309   2.418205
    22  H    3.516192   5.690630   1.096262   4.465453   3.968983
    23  H    2.813881   5.690625   1.096261   5.225063   3.351223
                   11         12         13         14         15
    11  H    0.000000
    12  H    4.127972   0.000000
    13  H    2.500987   3.829812   0.000000
    14  H    2.434917   2.672705   1.766726   0.000000
    15  H    4.282783   2.384605   2.558637   2.384593   0.000000
    16  H    3.019378   4.693869   4.842732   4.693861   5.690528
    17  H    2.360022   4.708498   4.710986   4.175052   5.834356
    18  H    3.597322   4.175089   5.463792   4.708496   5.834383
    19  H    3.707814   3.069455   4.143879   4.030844   3.894801
    20  H    4.920840   1.766734   4.320016   3.829812   2.558653
    21  H    3.967246   3.901732   3.064721   3.901691   3.073564
    22  H    5.225020   3.727499   3.747182   4.315819   2.474259
    23  H    4.465398   4.315848   2.528302   3.727452   2.474259
                   16         17         18         19         20
    16  H    0.000000
    17  H    1.783226   0.000000
    18  H    1.783219   1.773009   0.000000
    19  H    2.567661   3.720133   3.051420   0.000000
    20  H    4.842737   5.463795   4.711033   2.477548   0.000000
    21  H    4.183741   5.151925   5.151966   2.418269   3.064793
    22  H    5.618833   6.467798   6.220416   3.351255   2.528375
    23  H    5.618837   6.220366   6.467826   3.969035   3.747245
                   21         22         23
    21  H    0.000000
    22  H    1.766225   0.000000
    23  H    1.766224   1.770622   0.000000
 Stoichiometry    C7H15N
 Framework group  C1[X(C7H15N)]
 Deg. of freedom    63
 Full point group                 C1      NOp   1
 Largest Abelian subgroup         C1      NOp   1
 Largest concise Abelian subgroup C1      NOp   1
                         Standard orientation:                         
 ---------------------------------------------------------------------
 Center     Atomic      Atomic             Coordinates (Angstroms)
 Number     Number       Type             X           Y           Z
 ---------------------------------------------------------------------
      1          6           0       -1.600733    0.000011   -0.379424
      2          6           0       -0.739760    1.255439   -0.637680
      3          6           0        0.605371    1.209237    0.095501
      4          7           0        1.354351    0.000000   -0.251671
      5          6           0        0.605347   -1.209230    0.095461
      6          6           0       -0.739776   -1.255379   -0.637717
      7          6           0        2.683380   -0.000027    0.341730
      8          6           0       -2.247013   -0.000036    1.016861
      9          1           0        1.209461    2.078659   -0.188921
     10          1           0        0.448785   -1.277031    1.192604
     11          1           0        1.209429   -2.078657   -0.188973
     12          1           0       -0.538255    1.336397   -1.713163
     13          1           0       -1.285639   -2.159982   -0.340498
     14          1           0       -0.538272   -1.336307   -1.713204
     15          1           0       -2.419512    0.000038   -1.112035
     16          1           0        2.661406   -0.000037    1.450461
     17          1           0        3.236103   -0.886541    0.013893
     18          1           0        3.236148    0.886468    0.013920
     19          1           0        0.448811    1.277006    1.192647
     20          1           0       -1.285612    2.160034   -0.340418
     21          1           0       -1.505755   -0.000064    1.822559
     22          1           0       -2.879225    0.885271    1.152250
     23          1           0       -2.879224   -0.885351    1.152189
 ---------------------------------------------------------------------
 Rotational constants (GHZ):      3.4635462      1.5286967      1.3064038
 Standard basis: CC-pVTZ (5D, 7F)
 There are   450 symmetry adapted basis functions of A   symmetry.
 Integral buffers will be    131072 words long.
 Raffenetti 1 integral format.
 Two-electron integral symmetry is turned on.
   450 basis functions,   671 primitive gaussians,   505 cartesian basis functions
    32 alpha electrons       32 beta electrons
       nuclear repulsion energy       416.1890173269 Hartrees.
 NAtoms=   23 NActive=   23 NUniq=   23 SFac= 7.50D-01 NAtFMM=   80 NAOKFM=F Big=F
 One-electron integrals computed using PRISM.
 NBasis=   450 RedAO= T  NBF=   450
 NBsUse=   450 1.00D-06 NBFU=   450
 Harris functional with IExCor=  205 diagonalized for initial guess.
 ExpMin= 1.03D-01 ExpMax= 1.14D+04 ExpMxC= 3.89D+02 IAcc=1 IRadAn=         1 AccDes= 0.00D+00
 HarFok:  IExCor=  205 AccDes= 0.00D+00 IRadAn=         1 IDoV= 1
 ScaDFX=  1.000000  1.000000  1.000000  1.000000
 FoFCou: FMM=F IPFlag=           0 FMFlag=      100000 FMFlg1=           0
         NFxFlg=           0 DoJE=T BraDBF=F KetDBF=T FulRan=T
         Omega=  0.000000  0.000000  1.000000  0.000000  0.000000 ICntrl=     500 IOpCl=  0
         NMat0=    1 NMatS0=    1 NMatT0=    0 NMatD0=    1 NMtDS0=    0 NMtDT0=    0
         I1Cent=           4 NGrid=           0.
 Petite list used in FoFCou.
 Initial guess orbital symmetries:
       Occupied  (A) (A) (A) (A) (A) (A) (A) (A) (A) (A) (A) (A)
                 (A) (A) (A) (A) (A) (A) (A) (A) (A) (A) (A) (A)
                 (A) (A) (A) (A) (A) (A) (A) (A)
       Virtual   (A) (A) (A) (A) (A) (A) (A) (A) (A) (A) (A) (A)
                 (A) (A) (A) (A) (A) (A) (A) (A) (A) (A) (A) (A)
                 (A) (A) (A) (A) (A) (A) (A) (A) (A) (A) (A) (A)
                 (A) (A) (A) (A) (A) (A) (A) (A) (A) (A) (A) (A)
                 (A) (A) (A) (A) (A) (A) (A) (A) (A) (A) (A) (A)
                 (A) (A) (A) (A) (A) (A) (A) (A) (A) (A) (A) (A)
                 (A) (A) (A) (A) (A) (A) (A) (A) (A) (A) (A) (A)
                 (A) (A) (A) (A) (A) (A) (A) (A) (A) (A) (A) (A)
                 (A) (A) (A) (A) (A) (A) (A) (A) (A) (A) (A) (A)
                 (A) (A) (A) (A) (A) (A) (A) (A) (A) (A) (A) (A)
                 (A) (A) (A) (A) (A) (A) (A) (A) (A) (A) (A) (A)
                 (A) (A) (A) (A) (A) (A) (A) (A) (A) (A) (A) (A)
                 (A) (A) (A) (A) (A) (A) (A) (A) (A) (A) (A) (A)
                 (A) (A) (A) (A) (A) (A) (A) (A) (A) (A) (A) (A)
                 (A) (A) (A) (A) (A) (A) (A) (A) (A) (A) (A) (A)
                 (A) (A) (A) (A) (A) (A) (A) (A) (A) (A) (A) (A)
                 (A) (A) (A) (A) (A) (A) (A) (A) (A) (A) (A) (A)
                 (A) (A) (A) (A) (A) (A) (A) (A) (A) (A) (A) (A)
                 (A) (A) (A) (A) (A) (A) (A) (A) (A) (A) (A) (A)
                 (A) (A) (A) (A) (A) (A) (A) (A) (A) (A) (A) (A)
                 (A) (A) (A) (A) (A) (A) (A) (A) (A) (A) (A) (A)
                 (A) (A) (A) (A) (A) (A) (A) (A) (A) (A) (A) (A)
                 (A) (A) (A) (A) (A) (A) (A) (A) (A) (A) (A) (A)
                 (A) (A) (A) (A) (A) (A) (A) (A) (A) (A) (A) (A)
                 (A) (A) (A) (A) (A) (A) (A) (A) (A) (A) (A) (A)
                 (A) (A) (A) (A) (A) (A) (A) (A) (A) (A) (A) (A)
                 (A) (A) (A) (A) (A) (A) (A) (A) (A) (A) (A) (A)
                 (A) (A) (A) (A) (A) (A) (A) (A) (A) (A) (A) (A)
                 (A) (A) (A) (A) (A) (A) (A) (A) (A) (A) (A) (A)
                 (A) (A) (A) (A) (A) (A) (A) (A) (A) (A) (A) (A)
                 (A) (A) (A) (A) (A) (A) (A) (A) (A) (A) (A) (A)
                 (A) (A) (A) (A) (A) (A) (A) (A) (A) (A) (A) (A)
                 (A) (A) (A) (A) (A) (A) (A) (A) (A) (A) (A) (A)
                 (A) (A) (A) (A) (A) (A) (A) (A) (A) (A) (A) (A)
                 (A) (A) (A) (A) (A) (A) (A) (A) (A) (A)
 The electronic state of the initial guess is 1-A.
 Requested convergence on RMS density matrix=1.00D-08 within 128 cycles.
 Requested convergence on MAX density matrix=1.00D-06.
 Requested convergence on             energy=1.00D-06.
 No special actions if energy rises.
 Integral accuracy reduced to 1.0D-05 until final iterations.
 Initial convergence to 1.0D-05 achieved.  Increase integral accuracy.
 SCF Done:  E(RHF) =  -328.361215998     A.U. after   11 cycles
             Convg  =    0.8102D-08             -V/T =  2.0018
 ExpMin= 1.03D-01 ExpMax= 1.14D+04 ExpMxC= 3.89D+02 IAcc=1 IRadAn=         1 AccDes= 0.00D+00
 HarFok:  IExCor=  205 AccDes= 0.00D+00 IRadAn=         1 IDoV=-2
 ScaDFX=  1.000000  1.000000  1.000000  1.000000
 Range of M.O.s used for correlation:     9   450
 NBasis=   450 NAE=    32 NBE=    32 NFC=     8 NFV=     0
 NROrb=    442 NOA=    24 NOB=    24 NVA=   418 NVB=   418

 **** Warning!!: The largest alpha MO coefficient is  0.11022361D+02

 Fully direct method using O(OVN) memory.
 JobTyp=1 Pass  1:  I=   1 to  24 NPSUse=  8 ParTrn=T ParDer=T DoDerP=F.
 Spin components of T(2) and E(2):
     alpha-alpha T2 =       0.5447694378D-01 E2=     -0.1645790235D+00
     alpha-beta  T2 =       0.3304712902D+00 E2=     -0.1101739434D+01
     beta-beta   T2 =       0.5447694378D-01 E2=     -0.1645790235D+00
 ANorm=    0.1199760467D+01
 E2 =    -0.1430897481D+01 EUMP2 =    -0.32979211347889D+03

 **********************************************************************

            Population analysis using the SCF density.

 **********************************************************************

 Orbital symmetries:
       Occupied  (A) (A) (A) (A) (A) (A) (A) (A) (A) (A) (A) (A)
                 (A) (A) (A) (A) (A) (A) (A) (A) (A) (A) (A) (A)
                 (A) (A) (A) (A) (A) (A) (A) (A)
       Virtual   (A) (A) (A) (A) (A) (A) (A) (A) (A) (A) (A) (A)
                 (A) (A) (A) (A) (A) (A) (A) (A) (A) (A) (A) (A)
                 (A) (A) (A) (A) (A) (A) (A) (A) (A) (A) (A) (A)
                 (A) (A) (A) (A) (A) (A) (A) (A) (A) (A) (A) (A)
                 (A) (A) (A) (A) (A) (A) (A) (A) (A) (A) (A) (A)
                 (A) (A) (A) (A) (A) (A) (A) (A) (A) (A) (A) (A)
                 (A) (A) (A) (A) (A) (A) (A) (A) (A) (A) (A) (A)
                 (A) (A) (A) (A) (A) (A) (A) (A) (A) (A) (A) (A)
                 (A) (A) (A) (A) (A) (A) (A) (A) (A) (A) (A) (A)
                 (A) (A) (A) (A) (A) (A) (A) (A) (A) (A) (A) (A)
                 (A) (A) (A) (A) (A) (A) (A) (A) (A) (A) (A) (A)
                 (A) (A) (A) (A) (A) (A) (A) (A) (A) (A) (A) (A)
                 (A) (A) (A) (A) (A) (A) (A) (A) (A) (A) (A) (A)
                 (A) (A) (A) (A) (A) (A) (A) (A) (A) (A) (A) (A)
                 (A) (A) (A) (A) (A) (A) (A) (A) (A) (A) (A) (A)
                 (A) (A) (A) (A) (A) (A) (A) (A) (A) (A) (A) (A)
                 (A) (A) (A) (A) (A) (A) (A) (A) (A) (A) (A) (A)
                 (A) (A) (A) (A) (A) (A) (A) (A) (A) (A) (A) (A)
                 (A) (A) (A) (A) (A) (A) (A) (A) (A) (A) (A) (A)
                 (A) (A) (A) (A) (A) (A) (A) (A) (A) (A) (A) (A)
                 (A) (A) (A) (A) (A) (A) (A) (A) (A) (A) (A) (A)
                 (A) (A) (A) (A) (A) (A) (A) (A) (A) (A) (A) (A)
                 (A) (A) (A) (A) (A) (A) (A) (A) (A) (A) (A) (A)
                 (A) (A) (A) (A) (A) (A) (A) (A) (A) (A) (A) (A)
                 (A) (A) (A) (A) (A) (A) (A) (A) (A) (A) (A) (A)
                 (A) (A) (A) (A) (A) (A) (A) (A) (A) (A) (A) (A)
                 (A) (A) (A) (A) (A) (A) (A) (A) (A) (A) (A) (A)
                 (A) (A) (A) (A) (A) (A) (A) (A) (A) (A) (A) (A)
                 (A) (A) (A) (A) (A) (A) (A) (A) (A) (A) (A) (A)
                 (A) (A) (A) (A) (A) (A) (A) (A) (A) (A) (A) (A)
                 (A) (A) (A) (A) (A) (A) (A) (A) (A) (A) (A) (A)
                 (A) (A) (A) (A) (A) (A) (A) (A) (A) (A) (A) (A)
                 (A) (A) (A) (A) (A) (A) (A) (A) (A) (A) (A) (A)
                 (A) (A) (A) (A) (A) (A) (A) (A) (A) (A) (A) (A)
                 (A) (A) (A) (A) (A) (A) (A) (A) (A) (A)
 The electronic state is 1-A.
 Alpha  occ. eigenvalues --  -15.53883 -11.24190 -11.24189 -11.23837 -11.22395
 Alpha  occ. eigenvalues --  -11.21403 -11.21401 -11.21022  -1.22396  -1.08117
 Alpha  occ. eigenvalues --   -1.00811  -0.96126  -0.89952  -0.84412  -0.81384
 Alpha  occ. eigenvalues --   -0.72399  -0.65859  -0.62202  -0.62118  -0.60021
 Alpha  occ. eigenvalues --   -0.59546  -0.56396  -0.53632  -0.53114  -0.52516
 Alpha  occ. eigenvalues --   -0.50585  -0.49195  -0.48123  -0.45141  -0.43443
 Alpha  occ. eigenvalues --   -0.43205  -0.34795
 Alpha virt. eigenvalues --    0.13630   0.15352   0.16535   0.16813   0.19238
 Alpha virt. eigenvalues --    0.19836   0.20745   0.21748   0.21897   0.22895
 Alpha virt. eigenvalues --    0.23044   0.25512   0.26649   0.27006   0.27449
 Alpha virt. eigenvalues --    0.29129   0.32099   0.33819   0.33894   0.35991
 Alpha virt. eigenvalues --    0.36595   0.38984   0.39233   0.40689   0.42051
 Alpha virt. eigenvalues --    0.42473   0.46525   0.47395   0.47537   0.47843
 Alpha virt. eigenvalues --    0.51849   0.52197   0.52248   0.55695   0.56193
 Alpha virt. eigenvalues --    0.57126   0.58066   0.59231   0.59396   0.61559
 Alpha virt. eigenvalues --    0.61949   0.62669   0.63246   0.63676   0.63745
 Alpha virt. eigenvalues --    0.64970   0.65043   0.66148   0.66171   0.67123
 Alpha virt. eigenvalues --    0.69027   0.69060   0.70365   0.70640   0.71719
 Alpha virt. eigenvalues --    0.73006   0.73657   0.74920   0.75872   0.78895
 Alpha virt. eigenvalues --    0.79096   0.80353   0.85469   0.86444   0.88902
 Alpha virt. eigenvalues --    0.92635   0.93533   0.95695   0.98282   0.99495
 Alpha virt. eigenvalues --    1.00188   1.00812   1.02611   1.03668   1.06772
 Alpha virt. eigenvalues --    1.06972   1.07837   1.08498   1.11471   1.11473
 Alpha virt. eigenvalues --    1.13472   1.15741   1.16519   1.16876   1.19234
 Alpha virt. eigenvalues --    1.19492   1.20393   1.22032   1.23334   1.24247
 Alpha virt. eigenvalues --    1.25819   1.26159   1.27227   1.28160   1.31616
 Alpha virt. eigenvalues --    1.32664   1.32927   1.34215   1.37377   1.38084
 Alpha virt. eigenvalues --    1.38477   1.38726   1.38771   1.40764   1.41301
 Alpha virt. eigenvalues --    1.42474   1.44361   1.44715   1.45986   1.46887
 Alpha virt. eigenvalues --    1.48131   1.48299   1.50259   1.50687   1.52131
 Alpha virt. eigenvalues --    1.52825   1.53341   1.53766   1.56255   1.56955
 Alpha virt. eigenvalues --    1.57333   1.59818   1.59825   1.61051   1.62977
 Alpha virt. eigenvalues --    1.63073   1.63216   1.64067   1.65178   1.65368
 Alpha virt. eigenvalues --    1.67858   1.69125   1.72910   1.73364   1.73580
 Alpha virt. eigenvalues --    1.74492   1.78433   1.78559   1.79328   1.82086
 Alpha virt. eigenvalues --    1.83045   1.85388   1.88505   1.93618   1.95776
 Alpha virt. eigenvalues --    1.96128   1.98183   1.99599   2.02063   2.07832
 Alpha virt. eigenvalues --    2.15713   2.18726   2.19969   2.25267   2.29534
 Alpha virt. eigenvalues --    2.54183   2.56082   2.58006   2.61599   2.62353
 Alpha virt. eigenvalues --    2.68599   2.69460   2.69988   2.73004   2.75643
 Alpha virt. eigenvalues --    2.79270   2.79786   2.81042   2.81762   2.83894
 Alpha virt. eigenvalues --    2.87449   2.88257   2.90272   2.91754   2.94177
 Alpha virt. eigenvalues --    2.94179   2.94752   2.95591   2.98848   2.99055
 Alpha virt. eigenvalues --    3.00321   3.01329   3.01764   3.02883   3.03435
 Alpha virt. eigenvalues --    3.04656   3.04758   3.09855   3.10788   3.11785
 Alpha virt. eigenvalues --    3.12391   3.13019   3.13857   3.14994   3.17070
 Alpha virt. eigenvalues --    3.18231   3.19039   3.22762   3.24237   3.24268
 Alpha virt. eigenvalues --    3.26536   3.27076   3.29199   3.29547   3.30017
 Alpha virt. eigenvalues --    3.31023   3.32798   3.35546   3.35737   3.36616
 Alpha virt. eigenvalues --    3.37544   3.37984   3.39431   3.40504   3.41030
 Alpha virt. eigenvalues --    3.42398   3.43245   3.43775   3.44500   3.45108
 Alpha virt. eigenvalues --    3.46116   3.47595   3.47661   3.50464   3.50846
 Alpha virt. eigenvalues --    3.52798   3.54581   3.55816   3.57020   3.57972
 Alpha virt. eigenvalues --    3.59067   3.59397   3.61166   3.61577   3.63841
 Alpha virt. eigenvalues --    3.64301   3.66239   3.67303   3.68207   3.70284
 Alpha virt. eigenvalues --    3.70922   3.72341   3.72467   3.76037   3.76615
 Alpha virt. eigenvalues --    3.77773   3.78256   3.78339   3.80717   3.82077
 Alpha virt. eigenvalues --    3.83891   3.84541   3.84760   3.85841   3.86768
 Alpha virt. eigenvalues --    3.88439   3.89197   3.90954   3.91897   3.92968
 Alpha virt. eigenvalues --    3.96148   3.97614   3.98546   3.99901   4.01178
 Alpha virt. eigenvalues --    4.02040   4.02042   4.02792   4.03438   4.05605
 Alpha virt. eigenvalues --    4.05839   4.08351   4.09698   4.12504   4.13904
 Alpha virt. eigenvalues --    4.14449   4.16548   4.17224   4.18556   4.20189
 Alpha virt. eigenvalues --    4.20464   4.21930   4.22416   4.24528   4.26639
 Alpha virt. eigenvalues --    4.27440   4.28083   4.29695   4.30286   4.32259
 Alpha virt. eigenvalues --    4.33084   4.35069   4.35340   4.36692   4.37095
 Alpha virt. eigenvalues --    4.38494   4.39193   4.40383   4.41272   4.41672
 Alpha virt. eigenvalues --    4.45767   4.45871   4.46226   4.48181   4.49808
 Alpha virt. eigenvalues --    4.50587   4.50619   4.52148   4.53782   4.55738
 Alpha virt. eigenvalues --    4.55762   4.56576   4.57484   4.59578   4.60622
 Alpha virt. eigenvalues --    4.60727   4.61637   4.63443   4.66396   4.66894
 Alpha virt. eigenvalues --    4.68310   4.70567   4.71490   4.72183   4.75184
 Alpha virt. eigenvalues --    4.76144   4.77542   4.78140   4.81115   4.84315
 Alpha virt. eigenvalues --    4.86455   4.87740   4.88666   4.91281   4.95010
 Alpha virt. eigenvalues --    4.97604   5.00640   5.00834   5.06392   5.06744
 Alpha virt. eigenvalues --    5.07732   5.11995   5.12088   5.14707   5.15071
 Alpha virt. eigenvalues --    5.18317   5.18730   5.20435   5.23344   5.23454
 Alpha virt. eigenvalues --    5.25778   5.26814   5.30860   5.31321   5.31937
 Alpha virt. eigenvalues --    5.35045   5.36016   5.40753   5.41277   5.42115
 Alpha virt. eigenvalues --    5.42496   5.46098   5.47566   5.48969   5.52688
 Alpha virt. eigenvalues --    5.53482   5.54299   5.55009   5.57854   5.59293
 Alpha virt. eigenvalues --    5.59605   5.61919   5.62296   5.64979   5.66161
 Alpha virt. eigenvalues --    5.66253   5.68320   5.70422   5.73345   5.74956
 Alpha virt. eigenvalues --    5.75669   5.78046   5.79971   5.81254   5.81524
 Alpha virt. eigenvalues --    5.84295   5.86427   5.87237   5.91715   5.93102
 Alpha virt. eigenvalues --    5.96378   6.01914   6.02668   6.07465   6.11040
 Alpha virt. eigenvalues --    6.13347   6.22928   6.26227   6.29534   6.31740
 Alpha virt. eigenvalues --    6.33565   6.33891   6.35867   6.36900   6.40872
 Alpha virt. eigenvalues --    6.43144   6.47339   6.48391   6.50430   6.50877
 Alpha virt. eigenvalues --   10.89622  12.32348  13.25531  13.35132  13.64356
 Alpha virt. eigenvalues --   13.68897  14.21177  14.31481
          Condensed to atoms (all electrons):
              1          2          3          4          5          6
     1  C    4.917923   0.356432  -0.030794  -0.002236  -0.030792   0.356427
     2  C    0.356432   4.853060   0.360126  -0.041260  -0.008890  -0.038664
     3  C   -0.030794   0.360126   4.753504   0.335568  -0.043922  -0.008890
     4  N   -0.002236  -0.041260   0.335568   6.597256   0.335567  -0.041260
     5  C   -0.030792  -0.008890  -0.043922   0.335567   4.753504   0.360129
     6  C    0.356427  -0.038664  -0.008890  -0.041260   0.360129   4.853056
     7  C    0.000039   0.005162  -0.053364   0.354111  -0.053365   0.005162
     8  C    0.344297  -0.052491   0.000002   0.000676   0.000001  -0.052494
     9  H    0.006208  -0.026625   0.430760  -0.030772   0.006715  -0.000952
    10  H   -0.009690   0.001942  -0.006694  -0.062757   0.423507  -0.043571
    11  H    0.006208  -0.000952   0.006716  -0.030772   0.430761  -0.026625
    12  H   -0.041393   0.425159  -0.035948   0.004490  -0.000003  -0.001638
    13  H   -0.037414   0.006778  -0.000703   0.004362  -0.039188   0.432065
    14  H   -0.041395  -0.001638  -0.000003   0.004490  -0.035948   0.425160
    15  H    0.445743  -0.039529   0.006368  -0.000894   0.006368  -0.039530
    16  H   -0.000509  -0.000475  -0.009730  -0.062654  -0.009730  -0.000475
    17  H    0.000098  -0.000245   0.007942  -0.035531  -0.007025   0.000381
    18  H    0.000098   0.000381  -0.007024  -0.035530   0.007942  -0.000245
    19  H   -0.009690  -0.043571   0.423507  -0.062757  -0.006694   0.001943
    20  H   -0.037411   0.432062  -0.039187   0.004362  -0.000702   0.006778
    21  H   -0.029360  -0.002908   0.000647   0.000407   0.000647  -0.002908
    22  H   -0.037127  -0.004640  -0.000205  -0.000005  -0.000350   0.006737
    23  H   -0.037127   0.006737  -0.000350  -0.000005  -0.000205  -0.004641
              7          8          9         10         11         12
     1  C    0.000039   0.344297   0.006208  -0.009690   0.006208  -0.041393
     2  C    0.005162  -0.052491  -0.026625   0.001942  -0.000952   0.425159
     3  C   -0.053364   0.000002   0.430760  -0.006694   0.006716  -0.035948
     4  N    0.354111   0.000676  -0.030772  -0.062757  -0.030772   0.004490
     5  C   -0.053365   0.000001   0.006715   0.423507   0.430761  -0.000003
     6  C    0.005162  -0.052494  -0.000952  -0.043571  -0.026625  -0.001638
     7  C    4.700935  -0.000069  -0.008031  -0.006031  -0.008032  -0.000123
     8  C   -0.000069   4.854235  -0.000034  -0.003143  -0.000034   0.006497
     9  H   -0.008031  -0.000034   0.581720  -0.000506  -0.000272  -0.008768
    10  H   -0.006031  -0.003143  -0.000506   0.660721  -0.047112   0.000567
    11  H   -0.008032  -0.000034  -0.000272  -0.047112   0.581723  -0.000163
    12  H   -0.000123   0.006497  -0.008768   0.000567  -0.000163   0.577399
    13  H   -0.000317  -0.006844   0.000084   0.000037  -0.005025  -0.000037
    14  H   -0.000123   0.006497  -0.000163   0.009172  -0.008768   0.002232
    15  H    0.000056  -0.037295  -0.000198  -0.000736  -0.000198  -0.008771
    16  H    0.412257  -0.000084  -0.002139   0.015205  -0.002139   0.000208
    17  H    0.420989   0.000009   0.000263  -0.002355   0.003583  -0.000038
    18  H    0.420989   0.000009   0.003583  -0.000840   0.000263  -0.000141
    19  H   -0.006031  -0.003142  -0.047110   0.012359  -0.000506   0.009171
    20  H   -0.000317  -0.006842  -0.005025   0.000175   0.000084  -0.027491
    21  H    0.000007   0.414450   0.000120  -0.004489   0.000120  -0.000377
    22  H   -0.000002   0.423025  -0.000079   0.000116   0.000027   0.000103
    23  H   -0.000002   0.423026   0.000027   0.000674  -0.000079  -0.000235
             13         14         15         16         17         18
     1  C   -0.037414  -0.041395   0.445743  -0.000509   0.000098   0.000098
     2  C    0.006778  -0.001638  -0.039529  -0.000475  -0.000245   0.000381
     3  C   -0.000703  -0.000003   0.006368  -0.009730   0.007942  -0.007024
     4  N    0.004362   0.004490  -0.000894  -0.062654  -0.035531  -0.035530
     5  C   -0.039188  -0.035948   0.006368  -0.009730  -0.007025   0.007942
     6  C    0.432065   0.425160  -0.039530  -0.000475   0.000381  -0.000245
     7  C   -0.000317  -0.000123   0.000056   0.412257   0.420989   0.420989
     8  C   -0.006844   0.006497  -0.037295  -0.000084   0.000009   0.000009
     9  H    0.000084  -0.000163  -0.000198  -0.002139   0.000263   0.003583
    10  H    0.000037   0.009172  -0.000736   0.015205  -0.002355  -0.000840
    11  H   -0.005025  -0.008768  -0.000198  -0.002139   0.003583   0.000263
    12  H   -0.000037   0.002232  -0.008771   0.000208  -0.000038  -0.000141
    13  H    0.577719  -0.027491  -0.004013   0.000071  -0.000053   0.000014
    14  H   -0.027491   0.577404  -0.008772   0.000208  -0.000141  -0.000038
    15  H   -0.004013  -0.008772   0.581761  -0.000019   0.000000   0.000000
    16  H    0.000071   0.000208  -0.000019   0.687905  -0.048925  -0.048927
    17  H   -0.000053  -0.000141   0.000000  -0.048925   0.593178  -0.024390
    18  H    0.000014  -0.000038   0.000000  -0.048927  -0.024390   0.593176
    19  H    0.000175   0.000567  -0.000736   0.015205  -0.000840  -0.002355
    20  H   -0.000213  -0.000037  -0.004012   0.000071   0.000014  -0.000053
    21  H   -0.000038  -0.000377   0.006799  -0.000117   0.000003   0.000003
    22  H   -0.000003  -0.000235  -0.005657   0.000002   0.000000   0.000000
    23  H    0.002419   0.000103  -0.005657   0.000002   0.000000   0.000000
             19         20         21         22         23
     1  C   -0.009690  -0.037411  -0.029360  -0.037127  -0.037127
     2  C   -0.043571   0.432062  -0.002908  -0.004640   0.006737
     3  C    0.423507  -0.039187   0.000647  -0.000205  -0.000350
     4  N   -0.062757   0.004362   0.000407  -0.000005  -0.000005
     5  C   -0.006694  -0.000702   0.000647  -0.000350  -0.000205
     6  C    0.001943   0.006778  -0.002908   0.006737  -0.004641
     7  C   -0.006031  -0.000317   0.000007  -0.000002  -0.000002
     8  C   -0.003142  -0.006842   0.414450   0.423025   0.423026
     9  H   -0.047110  -0.005025   0.000120  -0.000079   0.000027
    10  H    0.012359   0.000175  -0.004489   0.000116   0.000674
    11  H   -0.000506   0.000084   0.000120   0.000027  -0.000079
    12  H    0.009171  -0.027491  -0.000377   0.000103  -0.000235
    13  H    0.000175  -0.000213  -0.000038  -0.000003   0.002419
    14  H    0.000567  -0.000037  -0.000377  -0.000235   0.000103
    15  H   -0.000736  -0.004012   0.006799  -0.005657  -0.005657
    16  H    0.015205   0.000071  -0.000117   0.000002   0.000002
    17  H   -0.000840   0.000014   0.000003   0.000000   0.000000
    18  H   -0.002355  -0.000053   0.000003   0.000000   0.000000
    19  H    0.660716   0.000037  -0.004488   0.000674   0.000116
    20  H    0.000037   0.577713  -0.000038   0.002419  -0.000003
    21  H   -0.004488  -0.000038   0.595063  -0.033142  -0.033143
    22  H    0.000674   0.002419  -0.033142   0.576363  -0.028010
    23  H    0.000116  -0.000003  -0.033143  -0.028010   0.576362
 Mulliken atomic charges:
              1
     1  C   -0.088538
     2  C   -0.185952
     3  C   -0.088326
     4  N   -0.234856
     5  C   -0.088327
     6  C   -0.185944
     7  C   -0.183901
     8  C   -0.310252
     9  H    0.101196
    10  H    0.063447
    11  H    0.101194
    12  H    0.099300
    13  H    0.097615
    14  H    0.099297
    15  H    0.108922
    16  H    0.054789
    17  H    0.093083
    18  H    0.093085
    19  H    0.063448
    20  H    0.097617
    21  H    0.093117
    22  H    0.099991
    23  H    0.099992
 Sum of Mulliken atomic charges =   0.00000
 Mulliken charges with hydrogens summed into heavy atoms:
              1
     1  C    0.020384
     2  C    0.010965
     3  C    0.076318
     4  N   -0.234856
     5  C    0.076314
     6  C    0.010968
     7  C    0.057057
     8  C   -0.017152
 Sum of Mulliken charges with hydrogens summed into heavy atoms =   0.00000
 Electronic spatial extent (au):  <R**2>=           1077.0650
 Charge=              0.0000 electrons
 Dipole moment (field-independent basis, Debye):
    X=             -0.1945    Y=              0.0000    Z=              0.4637  Tot=              0.5029
 Quadrupole moment (field-independent basis, Debye-Ang):
   XX=            -52.4474   YY=            -51.6430   ZZ=            -54.6465
   XY=              0.0000   XZ=              1.2527   YZ=              0.0000
 Traceless Quadrupole moment (field-independent basis, Debye-Ang):
   XX=              0.4649   YY=              1.2693   ZZ=             -1.7342
   XY=              0.0000   XZ=              1.2527   YZ=              0.0000
 Octapole moment (field-independent basis, Debye-Ang**2):
  XXX=              7.2853  YYY=              0.0001  ZZZ=             -1.9480  XYY=              2.5364
  XXY=              0.0000  XXZ=             -0.7714  XZZ=             -0.6952  YZZ=              0.0001
  YYZ=             -1.3021  XYZ=              0.0001
 Hexadecapole moment (field-independent basis, Debye-Ang**3):
 XXXX=           -903.4193 YYYY=           -370.2921 ZZZZ=           -213.3624 XXXY=              0.0007
 XXXZ=              1.0802 YYYX=              0.0000 YYYZ=              0.0003 ZZZX=              4.4615
 ZZZY=             -0.0003 XXYY=           -204.8684 XXZZ=           -197.0410 YYZZ=           -101.2186
 XXYZ=              0.0003 YYXZ=             -5.4799 ZZXY=             -0.0002
 N-N= 4.161890173269D+02 E-N=-1.596709971500D+03  KE= 3.277657236998D+02
 1\1\GINC-ROCK\SP\RMP2-FC\CC-pVTZ\C7H15N1\STYLIANAKIS\21-Mar-2016\0\\# 
 mp2/cc-pVTZ\\N_4_dimethylpiperidine_eq_ax_single_point\\0,1\C\C,1,1.54
 4043\C,2,1.532666,1,112.635\N,3,1.464156,2,111.126,1,55.687,0\C,4,1.46
 4154,3,111.358,2,-59.423,0\C,5,1.532656,4,111.126,3,59.423,0\C,4,1.455
 487,3,111.743,2,174.832,0\C,1,1.538599,2,112.708,3,75.44,0\H,3,1.09622
 8,4,108.156,5,-179.778,0\H,5,1.11033,4,110.906,3,-63.665,0\H,5,1.09623
 1,4,108.156,3,179.779,0\H,2,1.097188,3,108.056,4,-64.833,0\H,6,1.09754
 8,5,109.376,4,-178.765,0\H,6,1.09719,5,108.056,4,64.833,0\H,1,1.098689
 ,2,107.698,3,-166.791,0\H,7,1.108949,4,112.925,3,62.766,0\H,7,1.094937
 ,4,109.809,3,-176.614,0\H,7,1.094936,4,109.81,3,-57.854,0\H,3,1.11033,
 4,110.906,5,63.665,0\H,2,1.097548,3,109.376,4,178.764,0\H,8,1.094812,1
 ,112.548,2,-61.811,0\H,8,1.096262,1,110.75,2,58.467,0\H,8,1.096261,1,1
 10.75,2,177.911,0\\Version=EM64L-G09RevA.01\State=1-A\HF=-328.361216\M
 P2=-329.7921135\RMSD=8.102e-09\PG=C01 [X(C7H15N1)]\\@


 ONLY THE DAY DAWNS TO WHICH YOU ARE AWAKE.

                                 -- THOREAU
 Job cpu time:  0 days  3 hours 15 minutes 40.1 seconds.
 File lengths (MBytes):  RWF=    112 Int=      0 D2E=      0 Chk=     10 Scr=      1
 Normal termination of Gaussian 09 at Mon Mar 21 00:53:40 2016.
