 Entering Gaussian System, Link 0=g09
 Input=N_Ac_Gly_N_methylamide_aa.gjf
 Output=N_Ac_Gly_N_methylamide_aa.out
 Initial command:
 /usr/local/g09/l1.exe /home/scratch/stylianakis/Gau-22093.inp -scrdir=/home/scratch/stylianakis/
 Entering Link 1 = /usr/local/g09/l1.exe PID=     22094.
  
 Copyright (c) 1988,1990,1992,1993,1995,1998,2003,2009, Gaussian, Inc.
                  All Rights Reserved.
  
 This is part of the Gaussian(R) 09 program.  It is based on
 the Gaussian(R) 03 system (copyright 2003, Gaussian, Inc.),
 the Gaussian(R) 98 system (copyright 1998, Gaussian, Inc.),
 the Gaussian(R) 94 system (copyright 1995, Gaussian, Inc.),
 the Gaussian 92(TM) system (copyright 1992, Gaussian, Inc.),
 the Gaussian 90(TM) system (copyright 1990, Gaussian, Inc.),
 the Gaussian 88(TM) system (copyright 1988, Gaussian, Inc.),
 the Gaussian 86(TM) system (copyright 1986, Carnegie Mellon
 University), and the Gaussian 82(TM) system (copyright 1983,
 Carnegie Mellon University). Gaussian is a federally registered
 trademark of Gaussian, Inc.
  
 This software contains proprietary and confidential information,
 including trade secrets, belonging to Gaussian, Inc.
  
 This software is provided under written license and may be
 used, copied, transmitted, or stored only in accord with that
 written license.
  
 The following legend is applicable only to US Government
 contracts under FAR:
  
                    RESTRICTED RIGHTS LEGEND
  
 Use, reproduction and disclosure by the US Government is
 subject to restrictions as set forth in subparagraphs (a)
 and (c) of the Commercial Computer Software - Restricted
 Rights clause in FAR 52.227-19.
  
 Gaussian, Inc.
 340 Quinnipiac St., Bldg. 40, Wallingford CT 06492
  
  
 ---------------------------------------------------------------
 Warning -- This program may not be used in any manner that
 competes with the business of Gaussian, Inc. or will provide
 assistance to any competitor of Gaussian, Inc.  The licensee
 of this program is prohibited from giving any competitor of
 Gaussian, Inc. access to this program.  By using this program,
 the user acknowledges that Gaussian, Inc. is engaged in the
 business of creating and licensing software in the field of
 computational chemistry and represents and warrants to the
 licensee that it is not a competitor of Gaussian, Inc. and that
 it will not use this program in any manner prohibited above.
 ---------------------------------------------------------------
  

 Cite this work as:
 Gaussian 09, Revision A.01,
 M. J. Frisch, G. W. Trucks, H. B. Schlegel, G. E. Scuseria, 
 M. A. Robb, J. R. Cheeseman, G. Scalmani, V. Barone, B. Mennucci, 
 G. A. Petersson, H. Nakatsuji, M. Caricato, X. Li, H. P. Hratchian, 
 A. F. Izmaylov, J. Bloino, G. Zheng, J. L. Sonnenberg, M. Hada, 
 M. Ehara, K. Toyota, R. Fukuda, J. Hasegawa, M. Ishida, T. Nakajima, 
 Y. Honda, O. Kitao, H. Nakai, T. Vreven, J. A. Montgomery, Jr., 
 J. E. Peralta, F. Ogliaro, M. Bearpark, J. J. Heyd, E. Brothers, 
 K. N. Kudin, V. N. Staroverov, R. Kobayashi, J. Normand, 
 K. Raghavachari, A. Rendell, J. C. Burant, S. S. Iyengar, J. Tomasi, 
 M. Cossi, N. Rega, J. M. Millam, M. Klene, J. E. Knox, J. B. Cross, 
 V. Bakken, C. Adamo, J. Jaramillo, R. Gomperts, R. E. Stratmann, 
 O. Yazyev, A. J. Austin, R. Cammi, C. Pomelli, J. W. Ochterski, 
 R. L. Martin, K. Morokuma, V. G. Zakrzewski, G. A. Voth, 
 P. Salvador, J. J. Dannenberg, S. Dapprich, A. D. Daniels, 
 O. Farkas, J. B. Foresman, J. V. Ortiz, J. Cioslowski, 
 and D. J. Fox, Gaussian, Inc., Wallingford CT, 2009.
 
 ******************************************
 Gaussian 09:  EM64L-G09RevA.01  8-May-2009
                21-Mar-2016 
 ******************************************
 %mem=16000Mb
 %nproc=8
 Will use up to    8 processors via shared memory.
 -------------
 # mp2/cc-pVTZ
 -------------
 1/38=1/1;
 2/12=2,17=6,18=5,40=1/2;
 3/5=16,6=1,11=9,16=1,25=1,30=1/1,2,3;
 4//1;
 5/5=2,38=5/2;
 8/10=1/1;
 9/16=-3/6;
 6/7=2,8=2,9=2,10=2/1;
 99/5=1,9=1/99;
 --------------------------------------
 N_Ac_Gly_N_methylamide_aa_single_point
 --------------------------------------
 Symbolic Z-matrix:
 Charge =  0 Multiplicity = 1
 c
 c                    1    cc2
 n                    2    nc3      1    ncc3
 c                    3    cn4      2    cnc4     1    dih4     0
 c                    4    cc5      3    ccn5     2    dih5     0
 n                    5    nc6      4    ncc6     3    dih6     0
 c                    6    cn7      5    cnc7     4    dih7     0
 o                    2    oc8      3    ocn8     4    dih8     0
 o                    5    oc9      4    occ9     3    dih9     0
 h                    1    hc10     2    hcc10    8    dih10    0
 h                    1    hc11     2    hcc11    8    dih11    0
 h                    1    hc12     2    hcc12    8    dih12    0
 h                    4    hc13     3    hcn13    2    dih13    0
 h                    4    hc14     3    hcn14    2    dih14    0
 h                    3    hn15     2    hnc15    1    dih15    0
 h                    6    hn16     5    hnc16    4    dih16    0
 h                    7    hc17     6    hcn17    5    dih17    0
 h                    7    hc18     6    hcn18    5    dih18    0
 h                    7    hc19     6    hcn19    5    dih19    0
       Variables:
  cc2                   1.52042                  
  nc3                   1.36224                  
  ncc3                115.377                    
  cn4                   1.44296                  
  cnc4                121.764                    
  dih4                179.979                    
  cc5                   1.53029                  
  ccn5                108.854                    
  dih5               -179.925                    
  nc6                   1.35669                  
  ncc6                115.401                    
  dih6                179.982                    
  cn7                   1.45814                  
  cnc7                121.758                    
  dih7                179.991                    
  oc8                   1.2311                   
  ocn8                121.726                    
  dih8                 -0.022                    
  oc9                   1.23102                  
  occ9                121.974                    
  dih9                 -0.025                    
  hc10                  1.0955                   
  hcc10               110.938                    
  dih10               120.076                    
  hc11                  1.09549                  
  hcc11               110.938                    
  dih11              -120.09                     
  hc12                  1.08996                  
  hcc12               108.653                    
  dih12                -0.006                    
  hc13                  1.09838                  
  hcn13               110.743                    
  dih13               -58.849                    
  hc14                  1.09839                  
  hcn14               110.748                    
  dih14                59.007                    
  hn15                  1.01382                  
  hnc15               122.577                    
  dih15                 0.032                    
  hn16                  1.00936                  
  hnc16               119.1                      
  dih16                -0.007                    
  hc17                  1.09122                  
  hcn17               108.636                    
  dih17              -179.958                    
  hc18                  1.09399                  
  hcn18               110.753                    
  dih18               -59.978                    
  hc19                  1.094                    
  hcn19               110.757                    
  dih19                60.061                    
 
                          Input orientation:                          
 ---------------------------------------------------------------------
 Center     Atomic      Atomic             Coordinates (Angstroms)
 Number     Number       Type             X           Y           Z
 ---------------------------------------------------------------------
      1          6           0        0.000000    0.000000    0.000000
      2          6           0        0.000000    0.000000    1.520420
      3          7           0        1.230797    0.000000    2.104240
      4          6           0        1.391317    0.000450    3.538247
      5          6           0        2.885522    0.002220    3.868601
      6          7           0        3.189187    0.003198    5.190868
      7          6           0        4.569340    0.004720    5.661355
      8          8           0       -1.033694   -0.000018    2.189070
      9          8           0        3.747448    0.002587    2.989690
     10          1           0        0.512738    0.885410   -0.391483
     11          1           0        0.512985   -0.885265   -0.391483
     12          1           0       -1.032704   -0.000126   -0.348607
     13          1           0        0.906673    0.879742    3.983671
     14          1           0        0.908829   -0.879839    3.984077
     15          1           0        2.090131    0.000477    1.566308
     16          1           0        2.439492    0.002831    5.866703
     17          1           0        4.565760    0.004534    6.752565
     18          1           0        5.102219   -0.880731    5.302433
     19          1           0        5.100237    0.891497    5.302746
 ---------------------------------------------------------------------
                    Distance matrix (angstroms):
                    1          2          3          4          5
     1  C    0.000000
     2  C    1.520420   0.000000
     3  N    2.437762   1.362243   0.000000
     4  C    3.801967   2.450997   1.442963   0.000000
     5  C    4.826212   3.720242   2.418903   1.530290   0.000000
     6  N    6.092293   4.862418   3.655486   2.442028   1.356688
     7  C    7.275289   6.166541   4.878418   3.821968   2.459515
     8  O    2.420858   1.231104   2.266079   2.775060   4.263929
     9  O    4.793915   4.025187   2.667876   2.419147   1.231016
    10  H    1.095495   2.168461   2.743755   4.122843   4.955648
    11  H    1.095494   2.168461   2.743644   4.122952   4.956297
    12  H    1.089956   2.135355   3.337648   4.580776   5.756505
    13  H    4.179191   2.768322   2.100301   1.098379   2.167747
    14  H    4.180066   2.769421   2.100373   1.098393   2.167644
    15  H    2.611890   2.090635   1.013818   2.092100   2.435816
    16  H    6.353686   4.984105   3.951845   2.553504   2.047280
    17  H    8.151277   6.944172   5.720920   4.517626   3.337731
    18  H    7.411081   6.411860   5.098239   4.202336   2.783742
    19  H    7.411228   6.411956   5.098802   4.202799   2.784340
                    6          7          8          9         10
     6  N    0.000000
     7  C    1.458143   0.000000
     8  O    5.181074   6.591720   0.000000
     9  O    2.270867   2.795229   4.847713   0.000000
    10  H    6.253345   7.339515   3.136031   4.761834   0.000000
    11  H    6.254124   7.340500   3.136102   4.762601   1.770675
    12  H    6.964923   8.215994   2.537677   5.830445   1.781685
    13  H    2.726816   4.122549   2.785605   3.134868   4.392857
    14  H    2.726927   4.122504   2.787388   3.134524   4.734820
    15  H    3.787527   4.787055   3.185298   2.184655   2.665375
    16  H    1.009355   2.139725   5.058459   3.160372   6.607285
    17  H    2.081791   1.091216   7.223530   3.850826   8.260772
    18  H    2.110324   1.093987   6.936723   2.822133   7.523515
    19  H    2.110380   1.093996   6.936490   2.823195   7.312280
                   11         12         13         14         15
    11  H    0.000000
    12  H    1.781702   0.000000
    13  H    4.734154   4.827420   0.000000
    14  H    4.393432   4.828622   1.759582   0.000000
    15  H    2.665498   3.663195   2.831488   2.831260   0.000000
    16  H    6.607952   7.119426   2.581533   2.581921   4.314563
    17  H    8.261607   9.042647   4.671368   4.671165   5.746826
    18  H    7.313124   8.387312   4.737194   4.395746   4.879327
    19  H    7.524893   8.387238   4.396143   4.737555   4.880125
                   16         17         18         19
    16  H    0.000000
    17  H    2.303426   0.000000
    18  H    2.861678   1.781675   0.000000
    19  H    2.861353   1.781669   1.772229   0.000000
 Stoichiometry    C5H10N2O2
 Framework group  C1[X(C5H10N2O2)]
 Deg. of freedom    51
 Full point group                 C1      NOp   1
 Largest Abelian subgroup         C1      NOp   1
 Largest concise Abelian subgroup C1      NOp   1
                         Standard orientation:                         
 ---------------------------------------------------------------------
 Center     Atomic      Atomic             Coordinates (Angstroms)
 Number     Number       Type             X           Y           Z
 ---------------------------------------------------------------------
      1          6           0       -3.401364    0.925257    0.000530
      2          6           0       -2.348053   -0.171198    0.000091
      3          7           0       -1.056004    0.260446   -0.000871
      4          6           0        0.053201   -0.662487   -0.000939
      5          6           0        1.359614    0.134428   -0.000228
      6          7           0        2.494638   -0.608755    0.000172
      7          6           0        3.815882    0.008089    0.000668
      8          8           0       -2.630279   -1.369515    0.000547
      9          8           0        1.372305    1.365379   -0.000163
     10          1           0       -3.302223    1.563000    0.885722
     11          1           0       -3.303223    1.562748   -0.884953
     12          1           0       -4.387607    0.461223    0.001171
     13          1           0        0.012864   -1.319245    0.878537
     14          1           0        0.013529   -1.318464   -0.881045
     15          1           0       -0.808959    1.243704   -0.000793
     16          1           0        2.422196   -1.615507    0.000094
     17          1           0        4.569264   -0.781320    0.000169
     18          1           0        3.950928    0.635881   -0.885022
     19          1           0        3.950894    0.634705    0.887207
 ---------------------------------------------------------------------
 Rotational constants (GHZ):      5.0204149      0.6729649      0.6000751
 Standard basis: CC-pVTZ (5D, 7F)
 There are   410 symmetry adapted basis functions of A   symmetry.
 Integral buffers will be    131072 words long.
 Raffenetti 1 integral format.
 Two-electron integral symmetry is turned on.
   410 basis functions,   638 primitive gaussians,   465 cartesian basis functions
    35 alpha electrons       35 beta electrons
       nuclear repulsion energy       447.7475959238 Hartrees.
 NAtoms=   19 NActive=   19 NUniq=   19 SFac= 7.50D-01 NAtFMM=   80 NAOKFM=F Big=F
 One-electron integrals computed using PRISM.
 NBasis=   410 RedAO= T  NBF=   410
 NBsUse=   410 1.00D-06 NBFU=   410
 Harris functional with IExCor=  205 diagonalized for initial guess.
 ExpMin= 1.03D-01 ExpMax= 1.53D+04 ExpMxC= 5.22D+02 IAcc=1 IRadAn=         1 AccDes= 0.00D+00
 HarFok:  IExCor=  205 AccDes= 0.00D+00 IRadAn=         1 IDoV= 1
 ScaDFX=  1.000000  1.000000  1.000000  1.000000
 FoFCou: FMM=F IPFlag=           0 FMFlag=      100000 FMFlg1=           0
         NFxFlg=           0 DoJE=T BraDBF=F KetDBF=T FulRan=T
         Omega=  0.000000  0.000000  1.000000  0.000000  0.000000 ICntrl=     500 IOpCl=  0
         NMat0=    1 NMatS0=    1 NMatT0=    0 NMatD0=    1 NMtDS0=    0 NMtDT0=    0
         I1Cent=           4 NGrid=           0.
 Petite list used in FoFCou.
 Initial guess orbital symmetries:
       Occupied  (A) (A) (A) (A) (A) (A) (A) (A) (A) (A) (A) (A)
                 (A) (A) (A) (A) (A) (A) (A) (A) (A) (A) (A) (A)
                 (A) (A) (A) (A) (A) (A) (A) (A) (A) (A) (A)
       Virtual   (A) (A) (A) (A) (A) (A) (A) (A) (A) (A) (A) (A)
                 (A) (A) (A) (A) (A) (A) (A) (A) (A) (A) (A) (A)
                 (A) (A) (A) (A) (A) (A) (A) (A) (A) (A) (A) (A)
                 (A) (A) (A) (A) (A) (A) (A) (A) (A) (A) (A) (A)
                 (A) (A) (A) (A) (A) (A) (A) (A) (A) (A) (A) (A)
                 (A) (A) (A) (A) (A) (A) (A) (A) (A) (A) (A) (A)
                 (A) (A) (A) (A) (A) (A) (A) (A) (A) (A) (A) (A)
                 (A) (A) (A) (A) (A) (A) (A) (A) (A) (A) (A) (A)
                 (A) (A) (A) (A) (A) (A) (A) (A) (A) (A) (A) (A)
                 (A) (A) (A) (A) (A) (A) (A) (A) (A) (A) (A) (A)
                 (A) (A) (A) (A) (A) (A) (A) (A) (A) (A) (A) (A)
                 (A) (A) (A) (A) (A) (A) (A) (A) (A) (A) (A) (A)
                 (A) (A) (A) (A) (A) (A) (A) (A) (A) (A) (A) (A)
                 (A) (A) (A) (A) (A) (A) (A) (A) (A) (A) (A) (A)
                 (A) (A) (A) (A) (A) (A) (A) (A) (A) (A) (A) (A)
                 (A) (A) (A) (A) (A) (A) (A) (A) (A) (A) (A) (A)
                 (A) (A) (A) (A) (A) (A) (A) (A) (A) (A) (A) (A)
                 (A) (A) (A) (A) (A) (A) (A) (A) (A) (A) (A) (A)
                 (A) (A) (A) (A) (A) (A) (A) (A) (A) (A) (A) (A)
                 (A) (A) (A) (A) (A) (A) (A) (A) (A) (A) (A) (A)
                 (A) (A) (A) (A) (A) (A) (A) (A) (A) (A) (A) (A)
                 (A) (A) (A) (A) (A) (A) (A) (A) (A) (A) (A) (A)
                 (A) (A) (A) (A) (A) (A) (A) (A) (A) (A) (A) (A)
                 (A) (A) (A) (A) (A) (A) (A) (A) (A) (A) (A) (A)
                 (A) (A) (A) (A) (A) (A) (A) (A) (A) (A) (A) (A)
                 (A) (A) (A) (A) (A) (A) (A) (A) (A) (A) (A) (A)
                 (A) (A) (A) (A) (A) (A) (A) (A) (A) (A) (A) (A)
                 (A) (A) (A) (A) (A) (A) (A) (A) (A) (A) (A) (A)
                 (A) (A) (A) (A) (A) (A) (A) (A) (A) (A) (A) (A)
                 (A) (A) (A) (A) (A) (A) (A) (A) (A) (A) (A) (A)
                 (A) (A) (A) (A) (A) (A) (A) (A) (A) (A) (A) (A)
                 (A) (A) (A)
 The electronic state of the initial guess is 1-A.
 Requested convergence on RMS density matrix=1.00D-08 within 128 cycles.
 Requested convergence on MAX density matrix=1.00D-06.
 Requested convergence on             energy=1.00D-06.
 No special actions if energy rises.
 Integral accuracy reduced to 1.0D-05 until final iterations.
 Initial convergence to 1.0D-05 achieved.  Increase integral accuracy.
 SCF Done:  E(RHF) =  -453.989298498     A.U. after   14 cycles
             Convg  =    0.2951D-08             -V/T =  2.0019
 ExpMin= 1.03D-01 ExpMax= 1.53D+04 ExpMxC= 5.22D+02 IAcc=1 IRadAn=         1 AccDes= 0.00D+00
 HarFok:  IExCor=  205 AccDes= 0.00D+00 IRadAn=         1 IDoV=-2
 ScaDFX=  1.000000  1.000000  1.000000  1.000000
 Range of M.O.s used for correlation:    10   410
 NBasis=   410 NAE=    35 NBE=    35 NFC=     9 NFV=     0
 NROrb=    401 NOA=    26 NOB=    26 NVA=   375 NVB=   375

 **** Warning!!: The largest alpha MO coefficient is  0.15940127D+02

 Fully direct method using O(OVN) memory.
 JobTyp=1 Pass  1:  I=   1 to  26 NPSUse=  8 ParTrn=T ParDer=T DoDerP=F.
 Spin components of T(2) and E(2):
     alpha-alpha T2 =       0.6306341077D-01 E2=     -0.2114555707D+00
     alpha-beta  T2 =       0.3563038344D+00 E2=     -0.1282874980D+01
     beta-beta   T2 =       0.6306341077D-01 E2=     -0.2114555707D+00
 ANorm=    0.1217551090D+01
 E2 =    -0.1705786121D+01 EUMP2 =    -0.45569508461954D+03

 **********************************************************************

            Population analysis using the SCF density.

 **********************************************************************

 Orbital symmetries:
       Occupied  (A) (A) (A) (A) (A) (A) (A) (A) (A) (A) (A) (A)
                 (A) (A) (A) (A) (A) (A) (A) (A) (A) (A) (A) (A)
                 (A) (A) (A) (A) (A) (A) (A) (A) (A) (A) (A)
       Virtual   (A) (A) (A) (A) (A) (A) (A) (A) (A) (A) (A) (A)
                 (A) (A) (A) (A) (A) (A) (A) (A) (A) (A) (A) (A)
                 (A) (A) (A) (A) (A) (A) (A) (A) (A) (A) (A) (A)
                 (A) (A) (A) (A) (A) (A) (A) (A) (A) (A) (A) (A)
                 (A) (A) (A) (A) (A) (A) (A) (A) (A) (A) (A) (A)
                 (A) (A) (A) (A) (A) (A) (A) (A) (A) (A) (A) (A)
                 (A) (A) (A) (A) (A) (A) (A) (A) (A) (A) (A) (A)
                 (A) (A) (A) (A) (A) (A) (A) (A) (A) (A) (A) (A)
                 (A) (A) (A) (A) (A) (A) (A) (A) (A) (A) (A) (A)
                 (A) (A) (A) (A) (A) (A) (A) (A) (A) (A) (A) (A)
                 (A) (A) (A) (A) (A) (A) (A) (A) (A) (A) (A) (A)
                 (A) (A) (A) (A) (A) (A) (A) (A) (A) (A) (A) (A)
                 (A) (A) (A) (A) (A) (A) (A) (A) (A) (A) (A) (A)
                 (A) (A) (A) (A) (A) (A) (A) (A) (A) (A) (A) (A)
                 (A) (A) (A) (A) (A) (A) (A) (A) (A) (A) (A) (A)
                 (A) (A) (A) (A) (A) (A) (A) (A) (A) (A) (A) (A)
                 (A) (A) (A) (A) (A) (A) (A) (A) (A) (A) (A) (A)
                 (A) (A) (A) (A) (A) (A) (A) (A) (A) (A) (A) (A)
                 (A) (A) (A) (A) (A) (A) (A) (A) (A) (A) (A) (A)
                 (A) (A) (A) (A) (A) (A) (A) (A) (A) (A) (A) (A)
                 (A) (A) (A) (A) (A) (A) (A) (A) (A) (A) (A) (A)
                 (A) (A) (A) (A) (A) (A) (A) (A) (A) (A) (A) (A)
                 (A) (A) (A) (A) (A) (A) (A) (A) (A) (A) (A) (A)
                 (A) (A) (A) (A) (A) (A) (A) (A) (A) (A) (A) (A)
                 (A) (A) (A) (A) (A) (A) (A) (A) (A) (A) (A) (A)
                 (A) (A) (A) (A) (A) (A) (A) (A) (A) (A) (A) (A)
                 (A) (A) (A) (A) (A) (A) (A) (A) (A) (A) (A) (A)
                 (A) (A) (A) (A) (A) (A) (A) (A) (A) (A) (A) (A)
                 (A) (A) (A) (A) (A) (A) (A) (A) (A) (A) (A) (A)
                 (A) (A) (A) (A) (A) (A) (A) (A) (A) (A) (A) (A)
                 (A) (A) (A) (A) (A) (A) (A) (A) (A) (A) (A) (A)
                 (A) (A) (A)
 The electronic state is 1-A.
 Alpha  occ. eigenvalues --  -20.53144 -20.51059 -15.59832 -15.57846 -11.36390
 Alpha  occ. eigenvalues --  -11.34673 -11.28501 -11.27269 -11.23419  -1.39172
 Alpha  occ. eigenvalues --   -1.36813  -1.24076  -1.22675  -1.03024  -0.98401
 Alpha  occ. eigenvalues --   -0.92744  -0.80412  -0.78957  -0.72383  -0.66745
 Alpha  occ. eigenvalues --   -0.66195  -0.65772  -0.63158  -0.62248  -0.59048
 Alpha  occ. eigenvalues --   -0.58467  -0.56541  -0.56161  -0.55013  -0.52962
 Alpha  occ. eigenvalues --   -0.49761  -0.44222  -0.41911  -0.41118  -0.38736
 Alpha virt. eigenvalues --    0.12039   0.14268   0.15418   0.16611   0.17780
 Alpha virt. eigenvalues --    0.18296   0.20991   0.21192   0.21908   0.22546
 Alpha virt. eigenvalues --    0.23696   0.25016   0.27443   0.29840   0.32041
 Alpha virt. eigenvalues --    0.34890   0.36270   0.37705   0.38281   0.40496
 Alpha virt. eigenvalues --    0.41161   0.42892   0.44353   0.46978   0.47611
 Alpha virt. eigenvalues --    0.48584   0.51122   0.52449   0.54727   0.55905
 Alpha virt. eigenvalues --    0.56027   0.57203   0.58882   0.59341   0.60406
 Alpha virt. eigenvalues --    0.60861   0.61395   0.62266   0.62856   0.63741
 Alpha virt. eigenvalues --    0.64472   0.66081   0.68175   0.69476   0.69481
 Alpha virt. eigenvalues --    0.70828   0.71544   0.71668   0.74770   0.75144
 Alpha virt. eigenvalues --    0.76861   0.79153   0.82143   0.82355   0.82838
 Alpha virt. eigenvalues --    0.85351   0.86149   0.86435   0.88582   0.92388
 Alpha virt. eigenvalues --    0.92832   0.94955   0.97677   0.98087   1.00020
 Alpha virt. eigenvalues --    1.00199   1.03029   1.04687   1.06377   1.06759
 Alpha virt. eigenvalues --    1.06934   1.09962   1.10829   1.11477   1.13409
 Alpha virt. eigenvalues --    1.14865   1.15272   1.16812   1.17072   1.20198
 Alpha virt. eigenvalues --    1.20419   1.21824   1.23041   1.25787   1.26239
 Alpha virt. eigenvalues --    1.28125   1.30383   1.30694   1.31886   1.34842
 Alpha virt. eigenvalues --    1.36847   1.37759   1.38900   1.42513   1.44230
 Alpha virt. eigenvalues --    1.45115   1.46336   1.46462   1.48032   1.50088
 Alpha virt. eigenvalues --    1.51460   1.51671   1.51855   1.52742   1.53870
 Alpha virt. eigenvalues --    1.55668   1.56157   1.60929   1.60936   1.61563
 Alpha virt. eigenvalues --    1.66010   1.67698   1.69707   1.73477   1.73747
 Alpha virt. eigenvalues --    1.74654   1.76052   1.76682   1.79765   1.81699
 Alpha virt. eigenvalues --    1.85941   1.87307   1.89563   1.91591   1.96755
 Alpha virt. eigenvalues --    2.02388   2.05676   2.06319   2.10182   2.11419
 Alpha virt. eigenvalues --    2.13225   2.14122   2.20395   2.21701   2.29891
 Alpha virt. eigenvalues --    2.32521   2.40147   2.44456   2.47511   2.48647
 Alpha virt. eigenvalues --    2.50990   2.51714   2.54806   2.57445   2.61428
 Alpha virt. eigenvalues --    2.64737   2.64798   2.67781   2.68112   2.73378
 Alpha virt. eigenvalues --    2.77123   2.79040   2.83793   2.84281   2.87204
 Alpha virt. eigenvalues --    2.88613   2.89317   2.92135   2.94988   2.97146
 Alpha virt. eigenvalues --    2.97608   3.01083   3.03509   3.06580   3.07526
 Alpha virt. eigenvalues --    3.07979   3.09460   3.10393   3.11667   3.11903
 Alpha virt. eigenvalues --    3.12107   3.14985   3.15639   3.16079   3.16953
 Alpha virt. eigenvalues --    3.16996   3.23143   3.24128   3.25876   3.25946
 Alpha virt. eigenvalues --    3.28035   3.29076   3.30269   3.30557   3.31407
 Alpha virt. eigenvalues --    3.31751   3.33673   3.35230   3.37147   3.38400
 Alpha virt. eigenvalues --    3.40160   3.40766   3.43520   3.44130   3.44316
 Alpha virt. eigenvalues --    3.49113   3.50241   3.53538   3.54712   3.56591
 Alpha virt. eigenvalues --    3.57478   3.60129   3.60610   3.60804   3.63043
 Alpha virt. eigenvalues --    3.63749   3.64329   3.66353   3.67088   3.68390
 Alpha virt. eigenvalues --    3.70290   3.71092   3.71872   3.73177   3.75012
 Alpha virt. eigenvalues --    3.77914   3.78199   3.78895   3.80388   3.81501
 Alpha virt. eigenvalues --    3.81761   3.83080   3.85371   3.87091   3.88064
 Alpha virt. eigenvalues --    3.89277   3.91292   3.92874   3.93728   3.98397
 Alpha virt. eigenvalues --    3.99661   4.01969   4.04249   4.05020   4.05973
 Alpha virt. eigenvalues --    4.08821   4.09236   4.12064   4.12544   4.14122
 Alpha virt. eigenvalues --    4.15988   4.16200   4.16997   4.18084   4.21878
 Alpha virt. eigenvalues --    4.23368   4.23489   4.26374   4.29149   4.30912
 Alpha virt. eigenvalues --    4.32939   4.36603   4.37800   4.38076   4.38680
 Alpha virt. eigenvalues --    4.39219   4.40957   4.42770   4.43011   4.45738
 Alpha virt. eigenvalues --    4.47583   4.49611   4.49703   4.52200   4.53275
 Alpha virt. eigenvalues --    4.54919   4.56585   4.58191   4.58760   4.60720
 Alpha virt. eigenvalues --    4.65028   4.66546   4.67008   4.69240   4.69757
 Alpha virt. eigenvalues --    4.72210   4.78465   4.79498   4.85256   4.88799
 Alpha virt. eigenvalues --    4.89346   4.92616   4.96069   4.96460   5.00979
 Alpha virt. eigenvalues --    5.05359   5.10057   5.10673   5.12884   5.14948
 Alpha virt. eigenvalues --    5.15164   5.21661   5.23260   5.24747   5.26946
 Alpha virt. eigenvalues --    5.27065   5.28797   5.29971   5.31200   5.31904
 Alpha virt. eigenvalues --    5.38290   5.39485   5.41080   5.42128   5.46115
 Alpha virt. eigenvalues --    5.48728   5.50565   5.53994   5.54641   5.57110
 Alpha virt. eigenvalues --    5.57409   5.58624   5.60292   5.60779   5.61349
 Alpha virt. eigenvalues --    5.63561   5.64014   5.65487   5.67251   5.69222
 Alpha virt. eigenvalues --    5.70975   5.73333   5.75405   5.76914   5.77832
 Alpha virt. eigenvalues --    5.78918   5.80592   5.88612   5.91222   5.98131
 Alpha virt. eigenvalues --    6.01500   6.03169   6.04157   6.15061   6.18333
 Alpha virt. eigenvalues --    6.18415   6.19668   6.23087   6.23284   6.24244
 Alpha virt. eigenvalues --    6.24833   6.31266   6.34097   6.35443   6.42192
 Alpha virt. eigenvalues --    6.47035   6.50089   6.51593   6.67361   6.72179
 Alpha virt. eigenvalues --    6.83595   6.84291   6.92074   6.94085   6.94268
 Alpha virt. eigenvalues --    6.99548   7.10688   7.16447   7.30960   7.35999
 Alpha virt. eigenvalues --    7.36962   7.39016   7.57481   7.59142   7.61433
 Alpha virt. eigenvalues --    7.64751   9.82645  10.17499  12.68214  12.84512
 Alpha virt. eigenvalues --   13.68267  13.89142  14.05633  14.22119  14.43065
          Condensed to atoms (all electrons):
              1          2          3          4          5          6
     1  C    4.840186   0.368148  -0.079888   0.005240   0.001055  -0.000004
     2  C    0.368148   4.351601   0.418427  -0.043215   0.004103  -0.000263
     3  N   -0.079888   0.418427   6.449414   0.331158  -0.027693   0.002030
     4  C    0.005240  -0.043215   0.331158   4.769153   0.288101  -0.078020
     5  C    0.001055   0.004103  -0.027693   0.288101   4.408418   0.486556
     6  N   -0.000004  -0.000263   0.002030  -0.078020   0.486556   6.333463
     7  C    0.000001   0.000016  -0.000146   0.006166  -0.045135   0.321497
     8  O   -0.055901   0.705921  -0.123440   0.008265   0.003252  -0.000002
     9  O   -0.000429  -0.001009  -0.023581  -0.045824   0.666934  -0.104235
    10  H    0.402735  -0.032737   0.004537   0.000055  -0.000160   0.000000
    11  H    0.402744  -0.032757   0.004548   0.000056  -0.000160   0.000000
    12  H    0.416961  -0.042450   0.005233  -0.000356  -0.000020   0.000000
    13  H    0.000286  -0.002858  -0.046072   0.423878  -0.030649   0.001023
    14  H    0.000284  -0.002826  -0.046020   0.423753  -0.030570   0.001015
    15  H   -0.004801  -0.021829   0.377013  -0.034051  -0.015860   0.001614
    16  H    0.000001   0.000005   0.000179  -0.000306  -0.028780   0.391036
    17  H    0.000000   0.000000   0.000006   0.000179   0.005407  -0.028240
    18  H    0.000000   0.000000  -0.000005   0.000117  -0.005470  -0.047909
    19  H    0.000000   0.000000  -0.000005   0.000118  -0.005462  -0.047921
              7          8          9         10         11         12
     1  C    0.000001  -0.055901  -0.000429   0.402735   0.402744   0.416961
     2  C    0.000016   0.705921  -0.001009  -0.032737  -0.032757  -0.042450
     3  N   -0.000146  -0.123440  -0.023581   0.004537   0.004548   0.005233
     4  C    0.006166   0.008265  -0.045824   0.000055   0.000056  -0.000356
     5  C   -0.045135   0.003252   0.666934  -0.000160  -0.000160  -0.000020
     6  N    0.321497  -0.000002  -0.104235   0.000000   0.000000   0.000000
     7  C    4.633092   0.000001   0.004033   0.000000   0.000000   0.000000
     8  O    0.000001   7.903692  -0.000022   0.001026   0.001026   0.005659
     9  O    0.004033  -0.000022   7.929202  -0.000003  -0.000003  -0.000004
    10  H    0.000000   0.001026  -0.000003   0.575130  -0.034080  -0.020610
    11  H    0.000000   0.001026  -0.000003  -0.034080   0.575122  -0.020609
    12  H    0.000000   0.005659  -0.000004  -0.020610  -0.020609   0.525904
    13  H   -0.000306   0.005017   0.000800  -0.000221   0.000071  -0.000021
    14  H   -0.000306   0.004976   0.000796   0.000071  -0.000221  -0.000020
    15  H   -0.000165   0.002921   0.031305  -0.000169  -0.000171  -0.000090
    16  H   -0.030611  -0.000020   0.003528   0.000000   0.000000   0.000000
    17  H    0.416619   0.000000   0.000704   0.000000   0.000000   0.000000
    18  H    0.419927   0.000000   0.004191   0.000000   0.000000   0.000000
    19  H    0.419940   0.000000   0.004177   0.000000   0.000000   0.000000
             13         14         15         16         17         18
     1  C    0.000286   0.000284  -0.004801   0.000001   0.000000   0.000000
     2  C   -0.002858  -0.002826  -0.021829   0.000005   0.000000   0.000000
     3  N   -0.046072  -0.046020   0.377013   0.000179   0.000006  -0.000005
     4  C    0.423878   0.423753  -0.034051  -0.000306   0.000179   0.000117
     5  C   -0.030649  -0.030570  -0.015860  -0.028780   0.005407  -0.005470
     6  N    0.001023   0.001015   0.001614   0.391036  -0.028240  -0.047909
     7  C   -0.000306  -0.000306  -0.000165  -0.030611   0.416619   0.419927
     8  O    0.005017   0.004976   0.002921  -0.000020   0.000000   0.000000
     9  O    0.000800   0.000796   0.031305   0.003528   0.000704   0.004191
    10  H   -0.000221   0.000071  -0.000169   0.000000   0.000000   0.000000
    11  H    0.000071  -0.000221  -0.000171   0.000000   0.000000   0.000000
    12  H   -0.000021  -0.000020  -0.000090   0.000000   0.000000   0.000000
    13  H    0.591101  -0.055789   0.003486  -0.000048  -0.000017   0.000029
    14  H   -0.055789   0.591168   0.003483  -0.000046  -0.000017  -0.000112
    15  H    0.003486   0.003483   0.453762  -0.000135  -0.000003  -0.000019
    16  H   -0.000048  -0.000046  -0.000135   0.484461  -0.009401   0.003184
    17  H   -0.000017  -0.000017  -0.000003  -0.009401   0.583631  -0.031200
    18  H    0.000029  -0.000112  -0.000019   0.003184  -0.031200   0.604968
    19  H   -0.000112   0.000029  -0.000019   0.003178  -0.031228  -0.051234
             19
     1  C    0.000000
     2  C    0.000000
     3  N   -0.000005
     4  C    0.000118
     5  C   -0.005462
     6  N   -0.047921
     7  C    0.419940
     8  O    0.000000
     9  O    0.004177
    10  H    0.000000
    11  H    0.000000
    12  H    0.000000
    13  H   -0.000112
    14  H    0.000029
    15  H   -0.000019
    16  H    0.003178
    17  H   -0.031228
    18  H   -0.051234
    19  H    0.605055
 Mulliken atomic charges:
              1
     1  C   -0.296617
     2  C    0.331722
     3  N   -0.245693
     4  C   -0.054465
     5  C    0.326134
     6  N   -0.231641
     7  C   -0.144621
     8  O   -0.462374
     9  O   -0.470560
    10  H    0.104426
    11  H    0.104434
    12  H    0.130423
    13  H    0.110401
    14  H    0.110353
    15  H    0.203727
    16  H    0.183774
    17  H    0.093560
    18  H    0.103533
    19  H    0.103483
 Sum of Mulliken atomic charges =   0.00000
 Mulliken charges with hydrogens summed into heavy atoms:
              1
     1  C    0.042667
     2  C    0.331722
     3  N   -0.041966
     4  C    0.166290
     5  C    0.326134
     6  N   -0.047867
     7  C    0.155954
     8  O   -0.462374
     9  O   -0.470560
 Sum of Mulliken charges with hydrogens summed into heavy atoms =   0.00000
 Electronic spatial extent (au):  <R**2>=           1841.9780
 Charge=              0.0000 electrons
 Dipole moment (field-independent basis, Debye):
    X=              2.9868    Y=             -0.1497    Z=             -0.0007  Tot=              2.9906
 Quadrupole moment (field-independent basis, Debye-Ang):
   XX=            -48.5896   YY=            -58.4335   ZZ=            -53.8347
   XY=            -16.9666   XZ=              0.0028   YZ=              0.0029
 Traceless Quadrupole moment (field-independent basis, Debye-Ang):
   XX=              5.0297   YY=             -4.8142   ZZ=             -0.2154
   XY=            -16.9666   XZ=              0.0028   YZ=              0.0029
 Octapole moment (field-independent basis, Debye-Ang**2):
  XXX=             44.9063  YYY=             -3.9416  ZZZ=              0.0005  XYY=             11.8372
  XXY=             17.5019  XXZ=              0.0014  XZZ=             -1.0875  YZZ=              0.6255
  YYZ=             -0.0040  XYZ=             -0.0052
 Hexadecapole moment (field-independent basis, Debye-Ang**3):
 XXXX=          -1855.7670 YYYY=           -296.9673 ZZZZ=            -70.1025 XXXY=            -91.9622
 XXXZ=              0.0273 YYYX=            -40.4249 YYYZ=             -0.0027 ZZZX=              0.0031
 ZZZY=              0.0047 XXYY=           -409.4328 XXZZ=           -350.7973 YYZZ=            -58.0717
 XXYZ=              0.0129 YYXZ=              0.0056 ZZXY=              4.4706
 N-N= 4.477475959238D+02 E-N=-1.960629778079D+03  KE= 4.531330010862D+02
 1\1\GINC-ROCK\SP\RMP2-FC\CC-pVTZ\C5H10N2O2\STYLIANAKIS\21-Mar-2016\0\\
 # mp2/cc-pVTZ\\N_Ac_Gly_N_methylamide_aa_single_point\\0,1\C\C,1,1.520
 42\N,2,1.362243,1,115.377\C,3,1.442963,2,121.764,1,179.979,0\C,4,1.530
 29,3,108.854,2,-179.925,0\N,5,1.356688,4,115.401,3,179.982,0\C,6,1.458
 143,5,121.758,4,179.991,0\O,2,1.231104,3,121.726,4,-0.022,0\O,5,1.2310
 16,4,121.974,3,-0.025,0\H,1,1.095495,2,110.938,8,120.076,0\H,1,1.09549
 4,2,110.938,8,-120.09,0\H,1,1.089956,2,108.653,8,-0.006,0\H,4,1.098379
 ,3,110.743,2,-58.849,0\H,4,1.098393,3,110.748,2,59.007,0\H,3,1.013818,
 2,122.577,1,0.032,0\H,6,1.009355,5,119.1,4,-0.007,0\H,7,1.091216,6,108
 .636,5,-179.958,0\H,7,1.093987,6,110.753,5,-59.978,0\H,7,1.093996,6,11
 0.757,5,60.061,0\\Version=EM64L-G09RevA.01\State=1-A\HF=-453.9892985\M
 P2=-455.6950846\RMSD=2.951e-09\PG=C01 [X(C5H10N2O2)]\\@


 EVERYTHING'S GOT A MORAL, IF ONLY YOU CAN FIND IT.

                                    -- LEWIS CARROL, ALICE IN WONDERLAND
 Job cpu time:  0 days  1 hours 56 minutes 42.4 seconds.
 File lengths (MBytes):  RWF=     94 Int=      0 D2E=      0 Chk=      8 Scr=      1
 Normal termination of Gaussian 09 at Mon Mar 21 04:25:29 2016.
