 Entering Gaussian System, Link 0=g09
 Input=N_Ac_Ala_N_Me_g_plus_g_.gjf
 Output=N_Ac_Ala_N_Me_g_plus_g_.out
 Initial command:
 /usr/local/g09/l1.exe /home/scratch/stylianakis/Gau-20331.inp -scrdir=/home/scratch/stylianakis/
 Entering Link 1 = /usr/local/g09/l1.exe PID=     20332.
  
 Copyright (c) 1988,1990,1992,1993,1995,1998,2003,2009, Gaussian, Inc.
                  All Rights Reserved.
  
 This is part of the Gaussian(R) 09 program.  It is based on
 the Gaussian(R) 03 system (copyright 2003, Gaussian, Inc.),
 the Gaussian(R) 98 system (copyright 1998, Gaussian, Inc.),
 the Gaussian(R) 94 system (copyright 1995, Gaussian, Inc.),
 the Gaussian 92(TM) system (copyright 1992, Gaussian, Inc.),
 the Gaussian 90(TM) system (copyright 1990, Gaussian, Inc.),
 the Gaussian 88(TM) system (copyright 1988, Gaussian, Inc.),
 the Gaussian 86(TM) system (copyright 1986, Carnegie Mellon
 University), and the Gaussian 82(TM) system (copyright 1983,
 Carnegie Mellon University). Gaussian is a federally registered
 trademark of Gaussian, Inc.
  
 This software contains proprietary and confidential information,
 including trade secrets, belonging to Gaussian, Inc.
  
 This software is provided under written license and may be
 used, copied, transmitted, or stored only in accord with that
 written license.
  
 The following legend is applicable only to US Government
 contracts under FAR:
  
                    RESTRICTED RIGHTS LEGEND
  
 Use, reproduction and disclosure by the US Government is
 subject to restrictions as set forth in subparagraphs (a)
 and (c) of the Commercial Computer Software - Restricted
 Rights clause in FAR 52.227-19.
  
 Gaussian, Inc.
 340 Quinnipiac St., Bldg. 40, Wallingford CT 06492
  
  
 ---------------------------------------------------------------
 Warning -- This program may not be used in any manner that
 competes with the business of Gaussian, Inc. or will provide
 assistance to any competitor of Gaussian, Inc.  The licensee
 of this program is prohibited from giving any competitor of
 Gaussian, Inc. access to this program.  By using this program,
 the user acknowledges that Gaussian, Inc. is engaged in the
 business of creating and licensing software in the field of
 computational chemistry and represents and warrants to the
 licensee that it is not a competitor of Gaussian, Inc. and that
 it will not use this program in any manner prohibited above.
 ---------------------------------------------------------------
  

 Cite this work as:
 Gaussian 09, Revision A.01,
 M. J. Frisch, G. W. Trucks, H. B. Schlegel, G. E. Scuseria, 
 M. A. Robb, J. R. Cheeseman, G. Scalmani, V. Barone, B. Mennucci, 
 G. A. Petersson, H. Nakatsuji, M. Caricato, X. Li, H. P. Hratchian, 
 A. F. Izmaylov, J. Bloino, G. Zheng, J. L. Sonnenberg, M. Hada, 
 M. Ehara, K. Toyota, R. Fukuda, J. Hasegawa, M. Ishida, T. Nakajima, 
 Y. Honda, O. Kitao, H. Nakai, T. Vreven, J. A. Montgomery, Jr., 
 J. E. Peralta, F. Ogliaro, M. Bearpark, J. J. Heyd, E. Brothers, 
 K. N. Kudin, V. N. Staroverov, R. Kobayashi, J. Normand, 
 K. Raghavachari, A. Rendell, J. C. Burant, S. S. Iyengar, J. Tomasi, 
 M. Cossi, N. Rega, J. M. Millam, M. Klene, J. E. Knox, J. B. Cross, 
 V. Bakken, C. Adamo, J. Jaramillo, R. Gomperts, R. E. Stratmann, 
 O. Yazyev, A. J. Austin, R. Cammi, C. Pomelli, J. W. Ochterski, 
 R. L. Martin, K. Morokuma, V. G. Zakrzewski, G. A. Voth, 
 P. Salvador, J. J. Dannenberg, S. Dapprich, A. D. Daniels, 
 O. Farkas, J. B. Foresman, J. V. Ortiz, J. Cioslowski, 
 and D. J. Fox, Gaussian, Inc., Wallingford CT, 2009.
 
 ******************************************
 Gaussian 09:  EM64L-G09RevA.01  8-May-2009
                21-Mar-2016 
 ******************************************
 %mem=16000Mb
 %nproc=8
 Will use up to    8 processors via shared memory.
 -------------
 # mp2/cc-pVTZ
 -------------
 1/38=1/1;
 2/12=2,17=6,18=5,40=1/2;
 3/5=16,6=1,11=9,16=1,25=1,30=1/1,2,3;
 4//1;
 5/5=2,38=5/2;
 8/10=1/1;
 9/16=-3/6;
 6/7=2,8=2,9=2,10=2/1;
 99/5=1,9=1/99;
 ------------------------------------
 N_Ac_Ala_N_Me_g_plus_g__single_point
 ------------------------------------
 Symbolic Z-matrix:
 Charge =  0 Multiplicity = 1
 c
 c                    1    cc2
 n                    2    nc3      1    ncc3
 c                    3    cn4      2    cnc4     1    dih4     0
 c                    4    cc5      3    ccn5     2    dih5     0
 o                    2    oc6      3    ocn6     4    dih6     0
 c                    4    cc7      3    ccn7     2    dih7     0
 n                    7    nc8      4    ncc8     3    dih8     0
 c                    8    cn9      7    cnc9     4    dih9     0
 o                    7    oc10     4    occ10    3    dih10    0
 h                    1    hc11     2    hcc11    6    dih11    0
 h                    1    hc12     2    hcc12    6    dih12    0
 h                    1    hc13     2    hcc13    6    dih13    0
 h                    4    hc14     3    hcn14    2    dih14    0
 h                    3    hn15     2    hnc15    1    dih15    0
 h                    8    hn16     7    hnc16    4    dih16    0
 h                    9    hc17     8    hcn17    7    dih17    0
 h                    9    hc18     8    hcn18    7    dih18    0
 h                    9    hc19     8    hcn19    7    dih19    0
 h                    5    hc20     4    hcc20    3    dih20    0
 h                    5    hc21     4    hcc21    3    dih21    0
 h                    5    hc22     4    hcc22    3    dih22    0
       Variables:
  cc2                   1.51627                  
  nc3                   1.36115                  
  ncc3                116.525                    
  cn4                   1.46902                  
  cnc4                123.119                    
  dih4               -177.751                    
  cc5                   1.52474                  
  ccn5                110.216                    
  dih5                153.086                    
  oc6                   1.23618                  
  ocn6                121.976                    
  dih6                  1.902                    
  cc7                   1.55119                  
  ccn7                110.289                    
  dih7                -83.364                    
  nc8                   1.35688                  
  ncc8                114.081                    
  dih8                 75.275                    
  cn9                   1.45507                  
  cnc9                121.741                    
  dih9               -175.502                    
  oc10                  1.23042                  
  occ10               122.098                    
  dih10              -104.813                    
  hc11                  1.09372                  
  hcc11               108.526                    
  dih11               -58.914                    
  hc12                  1.09343                  
  hcc12               113.672                    
  dih12               179.592                    
  hc13                  1.09352                  
  hcc13               108.784                    
  dih13                57.729                    
  hc14                  1.09487                  
  hcn14               106.048                    
  dih14                33.704                    
  hn15                  1.0105                   
  hnc15               119.197                    
  dih15                 5.562                    
  hn16                  1.01678                  
  hnc16               117.214                    
  dih16                -9.107                    
  hc17                  1.0973                   
  hcn17               111.948                    
  dih17                76.598                    
  hc18                  1.0919                   
  hcn18               109.468                    
  dih18               -43.169                    
  hc19                  1.09208                  
  hcn19               108.937                    
  dih19              -162.741                    
  hc20                  1.09402                  
  hcc20               110.973                    
  dih20                64.104                    
  hc21                  1.09428                  
  hcc21               110.227                    
  dih21               -57.653                    
  hc22                  1.09253                  
  hcc22               110.096                    
  dih22              -177.644                    
 
                          Input orientation:                          
 ---------------------------------------------------------------------
 Center     Atomic      Atomic             Coordinates (Angstroms)
 Number     Number       Type             X           Y           Z
 ---------------------------------------------------------------------
      1          6           0        0.000000    0.000000    0.000000
      2          6           0        0.000000    0.000000    1.516273
      3          7           0        1.217877    0.000000    2.124148
      4          6           0        1.386992   -0.048282    3.582605
      5          6           0        2.726155   -0.685406    3.936937
      6          8           0       -1.054018   -0.006351    2.162139
      7          6           0        1.256595    1.374516    4.186605
      8          7           0       -0.017931    1.836278    4.245571
      9          6           0       -0.322819    3.187038    4.692480
     10          8           0        2.234717    2.012327    4.574421
     11          1           0       -0.530089   -0.891326   -0.347513
     12          1           0        1.001339    0.013164   -0.439012
     13          1           0       -0.558025    0.872016   -0.352115
     14          1           0        0.562680   -0.660419    3.962784
     15          1           0        2.051010    0.085497    1.558743
     16          1           0       -0.732777    1.290076    3.771751
     17          1           0       -0.104060    3.934101    3.919099
     18          1           0        0.279753    3.424185    5.571633
     19          1           0       -1.381892    3.243621    4.952854
     20          1           0        3.558419   -0.074338    3.575261
     21          1           0        2.792300   -1.690113    3.508419
     22          1           0        2.831755   -0.758416    5.021898
 ---------------------------------------------------------------------
                    Distance matrix (angstroms):
                    1          2          3          4          5
     1  C    0.000000
     2  C    1.516273   0.000000
     3  N    2.448515   1.361152   0.000000
     4  C    3.842022   2.489137   1.469023   0.000000
     5  C    4.837476   3.709625   2.455787   1.524741   0.000000
     6  O    2.405377   1.236178   2.272221   2.824537   4.230926
     7  C    4.582138   3.255611   2.478815   1.551185   2.542679
     8  N    4.625702   3.289576   3.065873   2.442315   3.739539
     9  C    5.681619   4.511066   4.373475   3.823948   4.986272
    10  O    5.474372   4.289019   3.329754   2.438944   2.815255
    11  H    1.093719   2.132874   3.155780   4.453285   5.385354
    12  H    1.093428   2.196814   2.572323   4.040532   4.755199
    13  H    1.093521   2.136043   3.169561   4.484647   5.622043
    14  H    4.056651   2.595800   2.060587   1.094869   2.163774
    15  H    2.577524   2.053231   1.010497   2.134206   2.589579
    16  H    4.053068   2.699711   2.860759   2.514041   3.986731
    17  H    5.554035   4.611025   4.521782   4.265658   5.417590
    18  H    6.545716   5.315003   4.948765   4.152137   5.054291
    19  H    6.079594   4.923494   5.028067   4.514525   5.774547
    20  H    5.044835   4.111849   2.754885   2.171595   1.094018
    21  H    4.791912   3.823881   2.692860   2.162406   1.094275
    22  H    5.814936   4.569840   3.402463   2.159443   1.092530
                    6          7          8          9         10
     6  O    0.000000
     7  C    3.368114   0.000000
     8  N    2.968072   1.356878   0.000000
     9  C    4.139446   2.456765   1.455073   0.000000
    10  O    4.550818   1.230417   2.283322   2.816891   0.000000
    11  H    2.712201   5.374431   5.366428   6.486720   6.348290
    12  H    3.315246   4.828537   5.129130   6.177303   5.536459
    13  H    2.709060   4.913791   4.728660   5.555411   5.776718
    14  H    2.506759   2.161613   2.578870   4.014908   3.211445
    15  H    3.164446   3.032875   3.816386   5.007488   3.583397
    16  H    2.091595   2.033921   1.016783   2.148086   3.157839
    17  H    4.417746   2.911085   2.124821   1.097304   3.097183
    18  H    5.017188   2.659637   2.090097   1.091898   2.609533
    19  H    4.296267   3.322997   2.083568   1.092077   3.839161
    20  H    4.824532   2.787707   4.109750   5.191219   2.665460
    21  H    4.409272   3.494320   4.569050   5.906993   3.892983
    22  H    4.882935   2.779971   3.931390   5.062258   2.869443
                   11         12         13         14         15
    11  H    0.000000
    12  H    1.780940   0.000000
    13  H    1.763569   1.782356   0.000000
    14  H    4.452653   4.474589   4.714095   0.000000
    15  H    3.354112   2.257889   3.328221   2.924198   0.000000
    16  H    4.665611   4.729501   4.148684   2.349283   3.754715
    17  H    6.455247   5.965633   5.275009   4.642850   5.002735
    18  H    7.369923   6.948640   6.504325   4.399140   5.512485
    19  H    6.776227   6.722192   5.869069   4.472485   5.768757
    20  H    5.724641   4.760325   5.767580   3.077030   2.522731
    21  H    5.152139   4.657349   5.717771   2.497583   2.739259
    22  H    6.336421   5.810963   6.559644   2.505998   3.648999
                   16         17         18         19         20
    16  H    0.000000
    17  H    2.721739   0.000000
    18  H    2.969716   1.771496   0.000000
    19  H    2.373330   1.782769   1.782289   0.000000
    20  H    4.507171   5.440548   5.193729   6.108460   0.000000
    21  H    4.623530   6.339506   6.060180   6.622084   1.789451
    22  H    4.297100   5.644013   4.930423   5.811702   1.757487
                   21         22
    21  H    0.000000
    22  H    1.777704   0.000000
 Stoichiometry    C6H12N2O2
 Framework group  C1[X(C6H12N2O2)]
 Deg. of freedom    60
 Full point group                 C1      NOp   1
 Largest Abelian subgroup         C1      NOp   1
 Largest concise Abelian subgroup C1      NOp   1
                         Standard orientation:                         
 ---------------------------------------------------------------------
 Center     Atomic      Atomic             Coordinates (Angstroms)
 Number     Number       Type             X           Y           Z
 ---------------------------------------------------------------------
      1          6           0       -3.119645   -0.623058    0.745662
      2          6           0       -1.857216   -0.405975   -0.065653
      3          7           0       -1.106108    0.682017    0.258145
      4          6           0        0.117288    1.056439   -0.463755
      5          6           0        0.352898    2.559099   -0.357287
      6          8           0       -1.534790   -1.176294   -0.977127
      7          6           0        1.328206    0.251270    0.076206
      8          7           0        1.359206   -1.042407   -0.331908
      9          6           0        2.367052   -1.973762    0.151895
     10          8           0        2.177020    0.759041    0.808058
     11          1           0       -3.975605   -0.617047    0.064841
     12          1           0       -3.276927    0.129823    1.522847
     13          1           0       -3.075046   -1.612900    1.208278
     14          1           0       -0.047912    0.770880   -1.507739
     15          1           0       -1.365133    1.238675    1.060729
     16          1           0        0.539025   -1.396617   -0.817382
     17          1           0        2.152690   -2.316590    1.171990
     18          1           0        3.342627   -1.483399    0.158067
     19          1           0        2.399983   -2.838126   -0.514756
     20          1           0        0.534552    2.854432    0.680334
     21          1           0       -0.509074    3.106066   -0.751329
     22          1           0        1.239787    2.841478   -0.929398
 ---------------------------------------------------------------------
 Rotational constants (GHZ):      1.6933983      0.9754807      0.7063722
 Standard basis: CC-pVTZ (5D, 7F)
 There are   468 symmetry adapted basis functions of A   symmetry.
 Integral buffers will be    131072 words long.
 Raffenetti 1 integral format.
 Two-electron integral symmetry is turned on.
   468 basis functions,   724 primitive gaussians,   530 cartesian basis functions
    39 alpha electrons       39 beta electrons
       nuclear repulsion energy       559.6305162460 Hartrees.
 NAtoms=   22 NActive=   22 NUniq=   22 SFac= 7.50D-01 NAtFMM=   80 NAOKFM=F Big=F
 One-electron integrals computed using PRISM.
 NBasis=   468 RedAO= T  NBF=   468
 NBsUse=   468 1.00D-06 NBFU=   468
 Harris functional with IExCor=  205 diagonalized for initial guess.
 ExpMin= 1.03D-01 ExpMax= 1.53D+04 ExpMxC= 5.22D+02 IAcc=1 IRadAn=         1 AccDes= 0.00D+00
 HarFok:  IExCor=  205 AccDes= 0.00D+00 IRadAn=         1 IDoV= 1
 ScaDFX=  1.000000  1.000000  1.000000  1.000000
 FoFCou: FMM=F IPFlag=           0 FMFlag=      100000 FMFlg1=           0
         NFxFlg=           0 DoJE=T BraDBF=F KetDBF=T FulRan=T
         Omega=  0.000000  0.000000  1.000000  0.000000  0.000000 ICntrl=     500 IOpCl=  0
         NMat0=    1 NMatS0=    1 NMatT0=    0 NMatD0=    1 NMtDS0=    0 NMtDT0=    0
         I1Cent=           4 NGrid=           0.
 Petite list used in FoFCou.
 Initial guess orbital symmetries:
       Occupied  (A) (A) (A) (A) (A) (A) (A) (A) (A) (A) (A) (A)
                 (A) (A) (A) (A) (A) (A) (A) (A) (A) (A) (A) (A)
                 (A) (A) (A) (A) (A) (A) (A) (A) (A) (A) (A) (A)
                 (A) (A) (A)
       Virtual   (A) (A) (A) (A) (A) (A) (A) (A) (A) (A) (A) (A)
                 (A) (A) (A) (A) (A) (A) (A) (A) (A) (A) (A) (A)
                 (A) (A) (A) (A) (A) (A) (A) (A) (A) (A) (A) (A)
                 (A) (A) (A) (A) (A) (A) (A) (A) (A) (A) (A) (A)
                 (A) (A) (A) (A) (A) (A) (A) (A) (A) (A) (A) (A)
                 (A) (A) (A) (A) (A) (A) (A) (A) (A) (A) (A) (A)
                 (A) (A) (A) (A) (A) (A) (A) (A) (A) (A) (A) (A)
                 (A) (A) (A) (A) (A) (A) (A) (A) (A) (A) (A) (A)
                 (A) (A) (A) (A) (A) (A) (A) (A) (A) (A) (A) (A)
                 (A) (A) (A) (A) (A) (A) (A) (A) (A) (A) (A) (A)
                 (A) (A) (A) (A) (A) (A) (A) (A) (A) (A) (A) (A)
                 (A) (A) (A) (A) (A) (A) (A) (A) (A) (A) (A) (A)
                 (A) (A) (A) (A) (A) (A) (A) (A) (A) (A) (A) (A)
                 (A) (A) (A) (A) (A) (A) (A) (A) (A) (A) (A) (A)
                 (A) (A) (A) (A) (A) (A) (A) (A) (A) (A) (A) (A)
                 (A) (A) (A) (A) (A) (A) (A) (A) (A) (A) (A) (A)
                 (A) (A) (A) (A) (A) (A) (A) (A) (A) (A) (A) (A)
                 (A) (A) (A) (A) (A) (A) (A) (A) (A) (A) (A) (A)
                 (A) (A) (A) (A) (A) (A) (A) (A) (A) (A) (A) (A)
                 (A) (A) (A) (A) (A) (A) (A) (A) (A) (A) (A) (A)
                 (A) (A) (A) (A) (A) (A) (A) (A) (A) (A) (A) (A)
                 (A) (A) (A) (A) (A) (A) (A) (A) (A) (A) (A) (A)
                 (A) (A) (A) (A) (A) (A) (A) (A) (A) (A) (A) (A)
                 (A) (A) (A) (A) (A) (A) (A) (A) (A) (A) (A) (A)
                 (A) (A) (A) (A) (A) (A) (A) (A) (A) (A) (A) (A)
                 (A) (A) (A) (A) (A) (A) (A) (A) (A) (A) (A) (A)
                 (A) (A) (A) (A) (A) (A) (A) (A) (A) (A) (A) (A)
                 (A) (A) (A) (A) (A) (A) (A) (A) (A) (A) (A) (A)
                 (A) (A) (A) (A) (A) (A) (A) (A) (A) (A) (A) (A)
                 (A) (A) (A) (A) (A) (A) (A) (A) (A) (A) (A) (A)
                 (A) (A) (A) (A) (A) (A) (A) (A) (A) (A) (A) (A)
                 (A) (A) (A) (A) (A) (A) (A) (A) (A) (A) (A) (A)
                 (A) (A) (A) (A) (A) (A) (A) (A) (A) (A) (A) (A)
                 (A) (A) (A) (A) (A) (A) (A) (A) (A) (A) (A) (A)
                 (A) (A) (A) (A) (A) (A) (A) (A) (A) (A) (A) (A)
                 (A) (A) (A) (A) (A) (A) (A) (A) (A)
 The electronic state of the initial guess is 1-A.
 Requested convergence on RMS density matrix=1.00D-08 within 128 cycles.
 Requested convergence on MAX density matrix=1.00D-06.
 Requested convergence on             energy=1.00D-06.
 No special actions if energy rises.
 Integral accuracy reduced to 1.0D-05 until final iterations.
 Initial convergence to 1.0D-05 achieved.  Increase integral accuracy.
 SCF Done:  E(RHF) =  -493.038244694     A.U. after   13 cycles
             Convg  =    0.9829D-08             -V/T =  2.0019
 ExpMin= 1.03D-01 ExpMax= 1.53D+04 ExpMxC= 5.22D+02 IAcc=1 IRadAn=         1 AccDes= 0.00D+00
 HarFok:  IExCor=  205 AccDes= 0.00D+00 IRadAn=         1 IDoV=-2
 ScaDFX=  1.000000  1.000000  1.000000  1.000000
 Range of M.O.s used for correlation:    11   468
 NBasis=   468 NAE=    39 NBE=    39 NFC=    10 NFV=     0
 NROrb=    458 NOA=    29 NOB=    29 NVA=   429 NVB=   429
 Fully direct method using O(OVN) memory.
 JobTyp=1 Pass  1:  I=   1 to  29 NPSUse=  8 ParTrn=T ParDer=T DoDerP=F.
 Spin components of T(2) and E(2):
     alpha-alpha T2 =       0.7051288115D-01 E2=     -0.2326919585D+00
     alpha-beta  T2 =       0.3996696624D+00 E2=     -0.1421923999D+01
     beta-beta   T2 =       0.7051288115D-01 E2=     -0.2326919585D+00
 ANorm=    0.1241247528D+01
 E2 =    -0.1887307916D+01 EUMP2 =    -0.49492555260938D+03

 **********************************************************************

            Population analysis using the SCF density.

 **********************************************************************

 Orbital symmetries:
       Occupied  (A) (A) (A) (A) (A) (A) (A) (A) (A) (A) (A) (A)
                 (A) (A) (A) (A) (A) (A) (A) (A) (A) (A) (A) (A)
                 (A) (A) (A) (A) (A) (A) (A) (A) (A) (A) (A) (A)
                 (A) (A) (A)
       Virtual   (A) (A) (A) (A) (A) (A) (A) (A) (A) (A) (A) (A)
                 (A) (A) (A) (A) (A) (A) (A) (A) (A) (A) (A) (A)
                 (A) (A) (A) (A) (A) (A) (A) (A) (A) (A) (A) (A)
                 (A) (A) (A) (A) (A) (A) (A) (A) (A) (A) (A) (A)
                 (A) (A) (A) (A) (A) (A) (A) (A) (A) (A) (A) (A)
                 (A) (A) (A) (A) (A) (A) (A) (A) (A) (A) (A) (A)
                 (A) (A) (A) (A) (A) (A) (A) (A) (A) (A) (A) (A)
                 (A) (A) (A) (A) (A) (A) (A) (A) (A) (A) (A) (A)
                 (A) (A) (A) (A) (A) (A) (A) (A) (A) (A) (A) (A)
                 (A) (A) (A) (A) (A) (A) (A) (A) (A) (A) (A) (A)
                 (A) (A) (A) (A) (A) (A) (A) (A) (A) (A) (A) (A)
                 (A) (A) (A) (A) (A) (A) (A) (A) (A) (A) (A) (A)
                 (A) (A) (A) (A) (A) (A) (A) (A) (A) (A) (A) (A)
                 (A) (A) (A) (A) (A) (A) (A) (A) (A) (A) (A) (A)
                 (A) (A) (A) (A) (A) (A) (A) (A) (A) (A) (A) (A)
                 (A) (A) (A) (A) (A) (A) (A) (A) (A) (A) (A) (A)
                 (A) (A) (A) (A) (A) (A) (A) (A) (A) (A) (A) (A)
                 (A) (A) (A) (A) (A) (A) (A) (A) (A) (A) (A) (A)
                 (A) (A) (A) (A) (A) (A) (A) (A) (A) (A) (A) (A)
                 (A) (A) (A) (A) (A) (A) (A) (A) (A) (A) (A) (A)
                 (A) (A) (A) (A) (A) (A) (A) (A) (A) (A) (A) (A)
                 (A) (A) (A) (A) (A) (A) (A) (A) (A) (A) (A) (A)
                 (A) (A) (A) (A) (A) (A) (A) (A) (A) (A) (A) (A)
                 (A) (A) (A) (A) (A) (A) (A) (A) (A) (A) (A) (A)
                 (A) (A) (A) (A) (A) (A) (A) (A) (A) (A) (A) (A)
                 (A) (A) (A) (A) (A) (A) (A) (A) (A) (A) (A) (A)
                 (A) (A) (A) (A) (A) (A) (A) (A) (A) (A) (A) (A)
                 (A) (A) (A) (A) (A) (A) (A) (A) (A) (A) (A) (A)
                 (A) (A) (A) (A) (A) (A) (A) (A) (A) (A) (A) (A)
                 (A) (A) (A) (A) (A) (A) (A) (A) (A) (A) (A) (A)
                 (A) (A) (A) (A) (A) (A) (A) (A) (A) (A) (A) (A)
                 (A) (A) (A) (A) (A) (A) (A) (A) (A) (A) (A) (A)
                 (A) (A) (A) (A) (A) (A) (A) (A) (A) (A) (A) (A)
                 (A) (A) (A) (A) (A) (A) (A) (A) (A) (A) (A) (A)
                 (A) (A) (A) (A) (A) (A) (A) (A) (A) (A) (A) (A)
                 (A) (A) (A) (A) (A) (A) (A) (A) (A)
 The electronic state is 1-A.
 Alpha  occ. eigenvalues --  -20.52787 -20.51033 -15.60276 -15.57031 -11.36794
 Alpha  occ. eigenvalues --  -11.34027 -11.28866 -11.25245 -11.25085 -11.22837
 Alpha  occ. eigenvalues --   -1.38838  -1.36664  -1.24632  -1.21508  -1.05749
 Alpha  occ. eigenvalues --   -0.99891  -0.95343  -0.87019  -0.80998  -0.77315
 Alpha  occ. eigenvalues --   -0.71978  -0.68762  -0.67098  -0.63611  -0.61950
 Alpha  occ. eigenvalues --   -0.60971  -0.59822  -0.59015  -0.57946  -0.54989
 Alpha  occ. eigenvalues --   -0.54281  -0.53361  -0.52449  -0.51671  -0.50909
 Alpha  occ. eigenvalues --   -0.44380  -0.43498  -0.39227  -0.38079
 Alpha virt. eigenvalues --    0.12115   0.15075   0.15529   0.16052   0.16878
 Alpha virt. eigenvalues --    0.18829   0.19828   0.20902   0.21423   0.22370
 Alpha virt. eigenvalues --    0.22705   0.24025   0.24339   0.25626   0.29245
 Alpha virt. eigenvalues --    0.30420   0.32887   0.33273   0.35163   0.36572
 Alpha virt. eigenvalues --    0.37097   0.37949   0.39423   0.40112   0.42323
 Alpha virt. eigenvalues --    0.43171   0.44705   0.46101   0.48271   0.49673
 Alpha virt. eigenvalues --    0.50970   0.52734   0.53068   0.55148   0.56268
 Alpha virt. eigenvalues --    0.57720   0.58651   0.59631   0.59827   0.60696
 Alpha virt. eigenvalues --    0.61474   0.62219   0.62811   0.63476   0.63872
 Alpha virt. eigenvalues --    0.64583   0.64900   0.65647   0.66699   0.68493
 Alpha virt. eigenvalues --    0.69136   0.70007   0.71434   0.72059   0.73487
 Alpha virt. eigenvalues --    0.73629   0.74728   0.77700   0.78305   0.80246
 Alpha virt. eigenvalues --    0.81005   0.83008   0.84754   0.86332   0.86667
 Alpha virt. eigenvalues --    0.88398   0.91257   0.92703   0.93436   0.95082
 Alpha virt. eigenvalues --    0.98048   0.98822   0.99550   1.00234   1.02062
 Alpha virt. eigenvalues --    1.02309   1.03671   1.05237   1.08089   1.08626
 Alpha virt. eigenvalues --    1.09801   1.11627   1.12936   1.13347   1.14312
 Alpha virt. eigenvalues --    1.15715   1.16343   1.17159   1.18597   1.19894
 Alpha virt. eigenvalues --    1.20472   1.21456   1.22541   1.22868   1.23937
 Alpha virt. eigenvalues --    1.24793   1.26027   1.27353   1.29197   1.30952
 Alpha virt. eigenvalues --    1.31918   1.35388   1.35987   1.36820   1.37842
 Alpha virt. eigenvalues --    1.40137   1.41801   1.42110   1.43845   1.44829
 Alpha virt. eigenvalues --    1.46982   1.47296   1.48788   1.49118   1.50192
 Alpha virt. eigenvalues --    1.51384   1.52308   1.53049   1.54042   1.54452
 Alpha virt. eigenvalues --    1.55391   1.57399   1.58204   1.60131   1.61529
 Alpha virt. eigenvalues --    1.62094   1.64850   1.66351   1.68897   1.70968
 Alpha virt. eigenvalues --    1.72179   1.72774   1.75754   1.77427   1.79210
 Alpha virt. eigenvalues --    1.80097   1.83253   1.84165   1.86888   1.88319
 Alpha virt. eigenvalues --    1.90708   1.90909   1.94377   1.97320   2.00241
 Alpha virt. eigenvalues --    2.01428   2.03965   2.07027   2.11248   2.13484
 Alpha virt. eigenvalues --    2.18672   2.22413   2.23498   2.32946   2.35274
 Alpha virt. eigenvalues --    2.38091   2.40936   2.44152   2.46898   2.49647
 Alpha virt. eigenvalues --    2.50911   2.53693   2.57887   2.59823   2.61287
 Alpha virt. eigenvalues --    2.61959   2.63056   2.64761   2.65295   2.69836
 Alpha virt. eigenvalues --    2.72283   2.74502   2.77257   2.80521   2.82132
 Alpha virt. eigenvalues --    2.83624   2.84715   2.88519   2.89574   2.91144
 Alpha virt. eigenvalues --    2.91561   2.95143   2.97105   2.98278   3.01642
 Alpha virt. eigenvalues --    3.02542   3.03788   3.05193   3.06730   3.07439
 Alpha virt. eigenvalues --    3.08002   3.10599   3.11252   3.11732   3.12868
 Alpha virt. eigenvalues --    3.13429   3.14151   3.15608   3.16521   3.19140
 Alpha virt. eigenvalues --    3.20384   3.20556   3.22402   3.23540   3.24932
 Alpha virt. eigenvalues --    3.27145   3.28769   3.29231   3.30246   3.32165
 Alpha virt. eigenvalues --    3.32659   3.33745   3.34160   3.35560   3.37334
 Alpha virt. eigenvalues --    3.38608   3.39033   3.39757   3.40602   3.42640
 Alpha virt. eigenvalues --    3.43376   3.46314   3.47464   3.48563   3.51306
 Alpha virt. eigenvalues --    3.51929   3.52629   3.54678   3.55738   3.56266
 Alpha virt. eigenvalues --    3.57274   3.58018   3.59991   3.61013   3.61412
 Alpha virt. eigenvalues --    3.63016   3.63348   3.63689   3.65007   3.67084
 Alpha virt. eigenvalues --    3.67708   3.70224   3.70624   3.72617   3.72841
 Alpha virt. eigenvalues --    3.73994   3.75781   3.76165   3.77297   3.78976
 Alpha virt. eigenvalues --    3.79455   3.80225   3.81785   3.82243   3.83967
 Alpha virt. eigenvalues --    3.85482   3.89207   3.90180   3.91409   3.92117
 Alpha virt. eigenvalues --    3.93632   3.94421   3.95816   3.99693   4.01068
 Alpha virt. eigenvalues --    4.03059   4.03180   4.04954   4.06467   4.07648
 Alpha virt. eigenvalues --    4.07891   4.09620   4.10327   4.14459   4.14841
 Alpha virt. eigenvalues --    4.15570   4.16304   4.18673   4.19581   4.20768
 Alpha virt. eigenvalues --    4.21539   4.22815   4.24198   4.25809   4.27706
 Alpha virt. eigenvalues --    4.29976   4.31155   4.32908   4.33511   4.34594
 Alpha virt. eigenvalues --    4.36129   4.36872   4.38844   4.39292   4.39950
 Alpha virt. eigenvalues --    4.41283   4.42376   4.42773   4.44745   4.45928
 Alpha virt. eigenvalues --    4.47108   4.48455   4.49987   4.52036   4.53629
 Alpha virt. eigenvalues --    4.54168   4.55563   4.56968   4.58882   4.60353
 Alpha virt. eigenvalues --    4.62251   4.62820   4.63432   4.64238   4.65408
 Alpha virt. eigenvalues --    4.67870   4.69710   4.70986   4.74603   4.75204
 Alpha virt. eigenvalues --    4.80896   4.82615   4.86473   4.88978   4.91502
 Alpha virt. eigenvalues --    4.93266   4.97343   4.99047   5.05099   5.07265
 Alpha virt. eigenvalues --    5.07766   5.11120   5.12073   5.14732   5.17322
 Alpha virt. eigenvalues --    5.17932   5.20048   5.21019   5.22390   5.24373
 Alpha virt. eigenvalues --    5.24961   5.28075   5.28126   5.31381   5.31785
 Alpha virt. eigenvalues --    5.35605   5.36751   5.37234   5.37903   5.42815
 Alpha virt. eigenvalues --    5.46422   5.47952   5.49821   5.51248   5.51978
 Alpha virt. eigenvalues --    5.53789   5.55349   5.56796   5.57878   5.59344
 Alpha virt. eigenvalues --    5.59642   5.60594   5.61101   5.61933   5.63322
 Alpha virt. eigenvalues --    5.63657   5.66090   5.67150   5.69195   5.70103
 Alpha virt. eigenvalues --    5.70751   5.73989   5.74288   5.75975   5.78297
 Alpha virt. eigenvalues --    5.81216   5.81817   5.84349   5.89081   5.91805
 Alpha virt. eigenvalues --    5.95968   5.98662   6.01122   6.04171   6.10190
 Alpha virt. eigenvalues --    6.14857   6.15743   6.20035   6.20821   6.21629
 Alpha virt. eigenvalues --    6.22968   6.23800   6.25769   6.28870   6.29491
 Alpha virt. eigenvalues --    6.38468   6.40565   6.45243   6.47828   6.51133
 Alpha virt. eigenvalues --    6.52855   6.64541   6.73345   6.82881   6.87125
 Alpha virt. eigenvalues --    6.90418   6.96520   6.98271   7.08226   7.09426
 Alpha virt. eigenvalues --    7.14058   7.31287   7.34361   7.38477   7.39776
 Alpha virt. eigenvalues --    7.59987   7.60710   7.61366   7.64680   9.88542
 Alpha virt. eigenvalues --   10.36057  12.46475  12.89710  13.15688  13.74711
 Alpha virt. eigenvalues --   14.00198  14.24294  14.32677  14.37808
          Condensed to atoms (all electrons):
              1          2          3          4          5          6
     1  C    4.773455   0.346816  -0.041643   0.006084  -0.000167  -0.047734
     2  C    0.346816   4.432707   0.403393  -0.043082   0.005331   0.651479
     3  N   -0.041643   0.403393   6.478839   0.262675  -0.044192  -0.120620
     4  C    0.006084  -0.043082   0.262675   4.966376   0.346031   0.016625
     5  C   -0.000167   0.005331  -0.044192   0.346031   4.796022   0.000979
     6  O   -0.047734   0.651479  -0.120620   0.016625   0.000979   7.974532
     7  C   -0.000747   0.002717  -0.028763   0.314197  -0.057215  -0.008115
     8  N    0.000003   0.007833  -0.000562  -0.085044   0.004710  -0.015762
     9  C   -0.000044   0.000059  -0.000710   0.008482  -0.000505   0.000321
    10  O   -0.000001  -0.000495   0.002237  -0.080771   0.007807   0.000025
    11  H    0.403937  -0.023268  -0.000712  -0.000351   0.000024   0.001675
    12  H    0.427568  -0.055490   0.007708   0.000292  -0.000043   0.003163
    13  H    0.402217  -0.026262  -0.000026  -0.000255   0.000001   0.002259
    14  H    0.000242  -0.011953  -0.033508   0.422726  -0.020375   0.009872
    15  H   -0.002975  -0.021336   0.368821  -0.030813  -0.001527   0.003656
    16  H    0.000728  -0.003892  -0.002809  -0.001222  -0.000136   0.022020
    17  H    0.000006  -0.000481   0.000292   0.000140  -0.000039   0.000030
    18  H   -0.000001   0.000108  -0.000098   0.000167  -0.000011  -0.000035
    19  H   -0.000001   0.000089  -0.000024   0.000281   0.000011  -0.000002
    20  H   -0.000056  -0.000471  -0.005232  -0.023027   0.409899  -0.000032
    21  H   -0.000003   0.000267   0.004793  -0.052861   0.430699  -0.000060
    22  H    0.000019  -0.000050   0.004131  -0.032932   0.412690   0.000017
              7          8          9         10         11         12
     1  C   -0.000747   0.000003  -0.000044  -0.000001   0.403937   0.427568
     2  C    0.002717   0.007833   0.000059  -0.000495  -0.023268  -0.055490
     3  N   -0.028763  -0.000562  -0.000710   0.002237  -0.000712   0.007708
     4  C    0.314197  -0.085044   0.008482  -0.080771  -0.000351   0.000292
     5  C   -0.057215   0.004710  -0.000505   0.007807   0.000024  -0.000043
     6  O   -0.008115  -0.015762   0.000321   0.000025   0.001675   0.003163
     7  C    4.379364   0.477875  -0.050542   0.715959  -0.000029   0.000094
     8  N    0.477875   6.381286   0.327055  -0.111418   0.000005   0.000028
     9  C   -0.050542   0.327055   4.645784   0.001526  -0.000001   0.000001
    10  O    0.715959  -0.111418   0.001526   7.901846   0.000000  -0.000005
    11  H   -0.000029   0.000005  -0.000001   0.000000   0.548150  -0.028799
    12  H    0.000094   0.000028   0.000001  -0.000005  -0.028799   0.585183
    13  H    0.000191   0.000080   0.000017  -0.000002  -0.022811  -0.027427
    14  H   -0.044199   0.005978  -0.000534   0.002124   0.000119  -0.000183
    15  H    0.000518  -0.000319   0.000008   0.000546   0.000430  -0.002446
    16  H   -0.022103   0.376400  -0.028962   0.002871  -0.000023  -0.000087
    17  H   -0.000835  -0.053786   0.418000   0.001723   0.000000  -0.000002
    18  H   -0.010836  -0.038218   0.417885   0.009305   0.000000   0.000000
    19  H    0.005068  -0.030664   0.419054   0.000644   0.000000   0.000000
    20  H   -0.008773   0.000403  -0.000038   0.008266   0.000005  -0.000008
    21  H    0.008864  -0.000079   0.000020   0.000420  -0.000023   0.000019
    22  H    0.002698  -0.000230   0.000003   0.000968  -0.000002   0.000000
             13         14         15         16         17         18
     1  C    0.402217   0.000242  -0.002975   0.000728   0.000006  -0.000001
     2  C   -0.026262  -0.011953  -0.021336  -0.003892  -0.000481   0.000108
     3  N   -0.000026  -0.033508   0.368821  -0.002809   0.000292  -0.000098
     4  C   -0.000255   0.422726  -0.030813  -0.001222   0.000140   0.000167
     5  C    0.000001  -0.020375  -0.001527  -0.000136  -0.000039  -0.000011
     6  O    0.002259   0.009872   0.003656   0.022020   0.000030  -0.000035
     7  C    0.000191  -0.044199   0.000518  -0.022103  -0.000835  -0.010836
     8  N    0.000080   0.005978  -0.000319   0.376400  -0.053786  -0.038218
     9  C    0.000017  -0.000534   0.000008  -0.028962   0.418000   0.417885
    10  O   -0.000002   0.002124   0.000546   0.002871   0.001723   0.009305
    11  H   -0.022811   0.000119   0.000430  -0.000023   0.000000   0.000000
    12  H   -0.027427  -0.000183  -0.002446  -0.000087  -0.000002   0.000000
    13  H    0.553186  -0.000164  -0.000100  -0.000026  -0.000019   0.000001
    14  H   -0.000164   0.525703   0.005093  -0.000939   0.000195  -0.000365
    15  H   -0.000100   0.005093   0.486060  -0.000147   0.000006  -0.000004
    16  H   -0.000026  -0.000939  -0.000147   0.438193   0.002086   0.003862
    17  H   -0.000019   0.000195   0.000006   0.002086   0.641753  -0.050140
    18  H    0.000001  -0.000365  -0.000004   0.003862  -0.050140   0.578463
    19  H    0.000002  -0.000095   0.000000  -0.008382  -0.039201  -0.024600
    20  H   -0.000003   0.006119   0.004090  -0.000079   0.000009  -0.000029
    21  H    0.000010  -0.007487  -0.000881  -0.000025  -0.000002   0.000002
    22  H    0.000000  -0.005215  -0.000073   0.000036  -0.000007   0.000025
             19         20         21         22
     1  C   -0.000001  -0.000056  -0.000003   0.000019
     2  C    0.000089  -0.000471   0.000267  -0.000050
     3  N   -0.000024  -0.005232   0.004793   0.004131
     4  C    0.000281  -0.023027  -0.052861  -0.032932
     5  C    0.000011   0.409899   0.430699   0.412690
     6  O   -0.000002  -0.000032  -0.000060   0.000017
     7  C    0.005068  -0.008773   0.008864   0.002698
     8  N   -0.030664   0.000403  -0.000079  -0.000230
     9  C    0.419054  -0.000038   0.000020   0.000003
    10  O    0.000644   0.008266   0.000420   0.000968
    11  H    0.000000   0.000005  -0.000023  -0.000002
    12  H    0.000000  -0.000008   0.000019   0.000000
    13  H    0.000002  -0.000003   0.000010   0.000000
    14  H   -0.000095   0.006119  -0.007487  -0.005215
    15  H    0.000000   0.004090  -0.000881  -0.000073
    16  H   -0.008382  -0.000079  -0.000025   0.000036
    17  H   -0.039201   0.000009  -0.000002  -0.000007
    18  H   -0.024600  -0.000029   0.000002   0.000025
    19  H    0.582088  -0.000001   0.000000   0.000000
    20  H   -0.000001   0.558627  -0.035032  -0.023355
    21  H    0.000000  -0.035032   0.573538  -0.025028
    22  H    0.000000  -0.023355  -0.025028   0.555365
 Mulliken atomic charges:
              1
     1  C   -0.267703
     2  C    0.335980
     3  N   -0.253990
     4  C    0.006281
     5  C   -0.289994
     6  O   -0.494294
     7  C    0.324614
     8  N   -0.245574
     9  C   -0.156879
    10  O   -0.463577
    11  H    0.121676
    12  H    0.090431
    13  H    0.119130
    14  H    0.146844
    15  H    0.191392
    16  H    0.222638
    17  H    0.080273
    18  H    0.114516
    19  H    0.095732
    20  H    0.108717
    21  H    0.102849
    22  H    0.110939
 Sum of Mulliken atomic charges =   0.00000
 Mulliken charges with hydrogens summed into heavy atoms:
              1
     1  C    0.063534
     2  C    0.335980
     3  N   -0.062598
     4  C    0.153124
     5  C    0.032511
     6  O   -0.494294
     7  C    0.324614
     8  N   -0.022936
     9  C    0.133641
    10  O   -0.463577
 Sum of Mulliken charges with hydrogens summed into heavy atoms =   0.00000
 Electronic spatial extent (au):  <R**2>=           1719.1190
 Charge=              0.0000 electrons
 Dipole moment (field-independent basis, Debye):
    X=             -3.2303    Y=              0.4721    Z=              0.7653  Tot=              3.3531
 Quadrupole moment (field-independent basis, Debye-Ang):
   XX=            -61.4616   YY=            -58.4336   ZZ=            -62.3988
   XY=             -8.0609   XZ=             -9.7908   YZ=             -3.7744
 Traceless Quadrupole moment (field-independent basis, Debye-Ang):
   XX=             -0.6969   YY=              2.3311   ZZ=             -1.6341
   XY=             -8.0609   XZ=             -9.7908   YZ=             -3.7744
 Octapole moment (field-independent basis, Debye-Ang**2):
  XXX=            -34.3485  YYY=             -2.9403  ZZZ=              2.2164  XYY=              6.9169
  XXY=            -13.4863  XXZ=              0.6174  XZZ=             -3.2158  YZZ=              2.7829
  YYZ=              2.9959  XYZ=             -0.6074
 Hexadecapole moment (field-independent basis, Debye-Ang**3):
 XXXX=          -1242.3409 YYYY=           -747.2194 ZZZZ=           -196.5255 XXXY=            -21.8189
 XXXZ=            -28.7119 YYYX=            -13.4203 YYYZ=              4.9771 ZZZX=             -4.7097
 ZZZY=              4.2322 XXYY=           -337.8659 XXZZ=           -258.8055 YYZZ=           -155.0364
 XXYZ=            -17.2139 YYXZ=            -15.7890 ZZXY=             -8.6375
 N-N= 5.596305162460D+02 E-N=-2.275128599589D+03  KE= 4.921097793683D+02
 1\1\GINC-ROCK\SP\RMP2-FC\CC-pVTZ\C6H12N2O2\STYLIANAKIS\21-Mar-2016\0\\
 # mp2/cc-pVTZ\\N_Ac_Ala_N_Me_g_plus_g__single_point\\0,1\C\C,1,1.51627
 3\N,2,1.361152,1,116.525\C,3,1.469023,2,123.119,1,-177.751,0\C,4,1.524
 741,3,110.216,2,153.086,0\O,2,1.236178,3,121.976,4,1.902,0\C,4,1.55118
 5,3,110.289,2,-83.364,0\N,7,1.356878,4,114.081,3,75.275,0\C,8,1.455073
 ,7,121.741,4,-175.502,0\O,7,1.230417,4,122.098,3,-104.813,0\H,1,1.0937
 19,2,108.526,6,-58.914,0\H,1,1.093428,2,113.672,6,179.592,0\H,1,1.0935
 21,2,108.784,6,57.729,0\H,4,1.094869,3,106.048,2,33.704,0\H,3,1.010497
 ,2,119.197,1,5.562,0\H,8,1.016783,7,117.214,4,-9.107,0\H,9,1.097304,8,
 111.948,7,76.598,0\H,9,1.091898,8,109.468,7,-43.169,0\H,9,1.092077,8,1
 08.937,7,-162.741,0\H,5,1.094018,4,110.973,3,64.104,0\H,5,1.094275,4,1
 10.227,3,-57.653,0\H,5,1.09253,4,110.096,3,-177.644,0\\Version=EM64L-G
 09RevA.01\State=1-A\HF=-493.0382447\MP2=-494.9255526\RMSD=9.829e-09\PG
 =C01 [X(C6H12N2O2)]\\@


 The mind is not a vessel to be filled but a fire to be kindled.
                                  -- Plutarch
 Job cpu time:  0 days  3 hours 51 minutes 47.4 seconds.
 File lengths (MBytes):  RWF=    120 Int=      0 D2E=      0 Chk=     10 Scr=      1
 Normal termination of Gaussian 09 at Mon Mar 21 02:43:14 2016.
