 Entering Gaussian System, Link 0=g09
 Input=N_methylacetamide_E.gjf
 Output=N_methylacetamide_E.out
 Initial command:
 /usr/local/g09/l1.exe /home/scratch/stylianakis/Gau-23547.inp -scrdir=/home/scratch/stylianakis/
 Entering Link 1 = /usr/local/g09/l1.exe PID=     23548.
  
 Copyright (c) 1988,1990,1992,1993,1995,1998,2003,2009, Gaussian, Inc.
                  All Rights Reserved.
  
 This is part of the Gaussian(R) 09 program.  It is based on
 the Gaussian(R) 03 system (copyright 2003, Gaussian, Inc.),
 the Gaussian(R) 98 system (copyright 1998, Gaussian, Inc.),
 the Gaussian(R) 94 system (copyright 1995, Gaussian, Inc.),
 the Gaussian 92(TM) system (copyright 1992, Gaussian, Inc.),
 the Gaussian 90(TM) system (copyright 1990, Gaussian, Inc.),
 the Gaussian 88(TM) system (copyright 1988, Gaussian, Inc.),
 the Gaussian 86(TM) system (copyright 1986, Carnegie Mellon
 University), and the Gaussian 82(TM) system (copyright 1983,
 Carnegie Mellon University). Gaussian is a federally registered
 trademark of Gaussian, Inc.
  
 This software contains proprietary and confidential information,
 including trade secrets, belonging to Gaussian, Inc.
  
 This software is provided under written license and may be
 used, copied, transmitted, or stored only in accord with that
 written license.
  
 The following legend is applicable only to US Government
 contracts under FAR:
  
                    RESTRICTED RIGHTS LEGEND
  
 Use, reproduction and disclosure by the US Government is
 subject to restrictions as set forth in subparagraphs (a)
 and (c) of the Commercial Computer Software - Restricted
 Rights clause in FAR 52.227-19.
  
 Gaussian, Inc.
 340 Quinnipiac St., Bldg. 40, Wallingford CT 06492
  
  
 ---------------------------------------------------------------
 Warning -- This program may not be used in any manner that
 competes with the business of Gaussian, Inc. or will provide
 assistance to any competitor of Gaussian, Inc.  The licensee
 of this program is prohibited from giving any competitor of
 Gaussian, Inc. access to this program.  By using this program,
 the user acknowledges that Gaussian, Inc. is engaged in the
 business of creating and licensing software in the field of
 computational chemistry and represents and warrants to the
 licensee that it is not a competitor of Gaussian, Inc. and that
 it will not use this program in any manner prohibited above.
 ---------------------------------------------------------------
  

 Cite this work as:
 Gaussian 09, Revision A.01,
 M. J. Frisch, G. W. Trucks, H. B. Schlegel, G. E. Scuseria, 
 M. A. Robb, J. R. Cheeseman, G. Scalmani, V. Barone, B. Mennucci, 
 G. A. Petersson, H. Nakatsuji, M. Caricato, X. Li, H. P. Hratchian, 
 A. F. Izmaylov, J. Bloino, G. Zheng, J. L. Sonnenberg, M. Hada, 
 M. Ehara, K. Toyota, R. Fukuda, J. Hasegawa, M. Ishida, T. Nakajima, 
 Y. Honda, O. Kitao, H. Nakai, T. Vreven, J. A. Montgomery, Jr., 
 J. E. Peralta, F. Ogliaro, M. Bearpark, J. J. Heyd, E. Brothers, 
 K. N. Kudin, V. N. Staroverov, R. Kobayashi, J. Normand, 
 K. Raghavachari, A. Rendell, J. C. Burant, S. S. Iyengar, J. Tomasi, 
 M. Cossi, N. Rega, J. M. Millam, M. Klene, J. E. Knox, J. B. Cross, 
 V. Bakken, C. Adamo, J. Jaramillo, R. Gomperts, R. E. Stratmann, 
 O. Yazyev, A. J. Austin, R. Cammi, C. Pomelli, J. W. Ochterski, 
 R. L. Martin, K. Morokuma, V. G. Zakrzewski, G. A. Voth, 
 P. Salvador, J. J. Dannenberg, S. Dapprich, A. D. Daniels, 
 O. Farkas, J. B. Foresman, J. V. Ortiz, J. Cioslowski, 
 and D. J. Fox, Gaussian, Inc., Wallingford CT, 2009.
 
 ******************************************
 Gaussian 09:  EM64L-G09RevA.01  8-May-2009
                21-Mar-2016 
 ******************************************
 %mem=16000Mb
 %nproc=8
 Will use up to    8 processors via shared memory.
 -------------
 # mp2/cc-pVTZ
 -------------
 1/38=1/1;
 2/12=2,17=6,18=5,40=1/2;
 3/5=16,6=1,11=9,16=1,25=1,30=1/1,2,3;
 4//1;
 5/5=2,38=5/2;
 8/10=1/1;
 9/16=-3/6;
 6/7=2,8=2,9=2,10=2/1;
 99/5=1,9=1/99;
 --------------------------------
 N_methylacetamide_E_single_point
 --------------------------------
 Symbolic Z-matrix:
 Charge =  0 Multiplicity = 1
 c
 c                    1    cc2
 n                    2    nc3      1    ncc3
 c                    3    cn4      2    cnc4     1    dih4     0
 o                    2    oc5      3    ocn5     4    dih5     0
 h                    3    hn6      2    hnc6     1    dih6     0
 h                    1    hc7      2    hcc7     5    dih7     0
 h                    1    hc8      2    hcc8     5    dih8     0
 h                    1    hc9      2    hcc9     5    dih9     0
 h                    4    hc10     3    hcn10    2    dih10    0
 h                    4    hc11     3    hcn11    2    dih11    0
 h                    4    hc12     3    hcn12    2    dih12    0
       Variables:
  cc2                   1.51914                  
  nc3                   1.36995                  
  ncc3                116.53                     
  cn4                   1.45515                  
  cnc4                127.095                    
  dih4                  0.032                    
  oc5                   1.22894                  
  ocn5                121.099                    
  dih5               -179.972                    
  hn6                   1.01111                  
  hnc6                114.024                    
  dih6                179.986                    
  hc7                   1.09573                  
  hcc7                111.241                    
  dih7               -120.104                    
  hc8                   1.08964                  
  hcc8                108.27                     
  dih8                 -0.014                    
  hc9                   1.09573                  
  hcc9                111.239                    
  dih9                120.073                    
  hc10                  1.09168                  
  hcn10               108.417                    
  dih10               179.998                    
  hc11                  1.09641                  
  hcn11               112.082                    
  dih11               -61.142                    
  hc12                  1.09642                  
  hcn12               112.086                    
  dih12                61.135                    
 
                          Input orientation:                          
 ---------------------------------------------------------------------
 Center     Atomic      Atomic             Coordinates (Angstroms)
 Number     Number       Type             X           Y           Z
 ---------------------------------------------------------------------
      1          6           0        0.000000    0.000000    0.000000
      2          6           0        0.000000    0.000000    1.519139
      3          7           0        1.225699    0.000000    2.131051
      4          6           0        2.529378    0.000648    1.484609
      5          8           0       -1.037961   -0.000073    2.177112
      6          1           0        1.181489    0.000226    3.141194
      7          1           0        0.512310   -0.883496   -0.396972
      8          1           0       -1.034716   -0.000326   -0.341599
      9          1           0        0.511716    0.883860   -0.396937
     10          1           0        3.298505    0.000489    2.259341
     11          1           0        2.681033   -0.888819    0.861746
     12          1           0        2.680612    0.890734    0.862514
 ---------------------------------------------------------------------
                    Distance matrix (angstroms):
                    1          2          3          4          5
     1  C    0.000000
     2  C    1.519139   0.000000
     3  N    2.458397   1.369954   0.000000
     4  C    2.932885   2.529613   1.455152   0.000000
     5  O    2.411883   1.228939   2.264128   3.633932   0.000000
     6  H    3.356042   2.006734   1.011110   2.135669   2.419796
     7  H    1.095725   2.171292   2.771352   2.896656   3.132042
     8  H    1.089645   2.129080   3.350145   4.004721   2.518713
     9  H    1.095728   2.171269   2.771589   2.896763   3.131863
    10  H    3.998094   3.380538   2.076773   1.091681   4.337245
    11  H    2.953057   2.900018   2.125825   1.096407   4.043633
    12  H    2.953476   2.900042   2.125880   1.096415   4.043450
                    6          7          8          9         10
     6  H    0.000000
     7  H    3.707747   0.000000
     8  H    4.128124   1.782230   0.000000
     9  H    3.707800   1.767355   1.782217   0.000000
    10  H    2.293343   3.949722   5.053879   3.949981   0.000000
    11  H    2.869654   2.507540   4.005527   3.071256   1.767883
    12  H    2.869278   3.071763   4.005937   2.508062   1.767895
                   11         12
    11  H    0.000000
    12  H    1.779553   0.000000
 Stoichiometry    C3H7NO
 Framework group  C1[X(C3H7NO)]
 Deg. of freedom    30
 Full point group                 C1      NOp   1
 Largest Abelian subgroup         C1      NOp   1
 Largest concise Abelian subgroup C1      NOp   1
                         Standard orientation:                         
 ---------------------------------------------------------------------
 Center     Atomic      Atomic             Coordinates (Angstroms)
 Number     Number       Type             X           Y           Z
 ---------------------------------------------------------------------
      1          6           0       -0.742304    1.353814   -0.000038
      2          6           0       -0.621274   -0.160496   -0.000021
      3          7           0        0.649280   -0.672811   -0.000260
      4          6           0        1.897313    0.075442    0.000120
      5          8           0       -1.603514   -0.899072    0.000120
      6          1           0        0.685690   -1.683265   -0.000015
      7          1           0       -0.263425    1.790317   -0.883641
      8          1           0       -1.800946    1.611891   -0.000161
      9          1           0       -0.263664    1.790282    0.883715
     10          1           0        2.725719   -0.635550   -0.000185
     11          1           0        1.998686    0.708383   -0.889384
     12          1           0        1.998680    0.707632    0.890169
 ---------------------------------------------------------------------
 Rotational constants (GHZ):      8.7556761      4.0785787      2.8830834
 Standard basis: CC-pVTZ (5D, 7F)
 There are   248 symmetry adapted basis functions of A   symmetry.
 Integral buffers will be    131072 words long.
 Raffenetti 1 integral format.
 Two-electron integral symmetry is turned on.
   248 basis functions,   379 primitive gaussians,   280 cartesian basis functions
    20 alpha electrons       20 beta electrons
       nuclear repulsion energy       179.4016858883 Hartrees.
 NAtoms=   12 NActive=   12 NUniq=   12 SFac= 7.50D-01 NAtFMM=   80 NAOKFM=F Big=F
 One-electron integrals computed using PRISM.
 NBasis=   248 RedAO= T  NBF=   248
 NBsUse=   248 1.00D-06 NBFU=   248
 Harris functional with IExCor=  205 diagonalized for initial guess.
 ExpMin= 1.03D-01 ExpMax= 1.53D+04 ExpMxC= 5.22D+02 IAcc=1 IRadAn=         1 AccDes= 0.00D+00
 HarFok:  IExCor=  205 AccDes= 0.00D+00 IRadAn=         1 IDoV= 1
 ScaDFX=  1.000000  1.000000  1.000000  1.000000
 FoFCou: FMM=F IPFlag=           0 FMFlag=      100000 FMFlg1=           0
         NFxFlg=           0 DoJE=T BraDBF=F KetDBF=T FulRan=T
         Omega=  0.000000  0.000000  1.000000  0.000000  0.000000 ICntrl=     500 IOpCl=  0
         NMat0=    1 NMatS0=    1 NMatT0=    0 NMatD0=    1 NMtDS0=    0 NMtDT0=    0
         I1Cent=           4 NGrid=           0.
 Petite list used in FoFCou.
 Initial guess orbital symmetries:
       Occupied  (A) (A) (A) (A) (A) (A) (A) (A) (A) (A) (A) (A)
                 (A) (A) (A) (A) (A) (A) (A) (A)
       Virtual   (A) (A) (A) (A) (A) (A) (A) (A) (A) (A) (A) (A)
                 (A) (A) (A) (A) (A) (A) (A) (A) (A) (A) (A) (A)
                 (A) (A) (A) (A) (A) (A) (A) (A) (A) (A) (A) (A)
                 (A) (A) (A) (A) (A) (A) (A) (A) (A) (A) (A) (A)
                 (A) (A) (A) (A) (A) (A) (A) (A) (A) (A) (A) (A)
                 (A) (A) (A) (A) (A) (A) (A) (A) (A) (A) (A) (A)
                 (A) (A) (A) (A) (A) (A) (A) (A) (A) (A) (A) (A)
                 (A) (A) (A) (A) (A) (A) (A) (A) (A) (A) (A) (A)
                 (A) (A) (A) (A) (A) (A) (A) (A) (A) (A) (A) (A)
                 (A) (A) (A) (A) (A) (A) (A) (A) (A) (A) (A) (A)
                 (A) (A) (A) (A) (A) (A) (A) (A) (A) (A) (A) (A)
                 (A) (A) (A) (A) (A) (A) (A) (A) (A) (A) (A) (A)
                 (A) (A) (A) (A) (A) (A) (A) (A) (A) (A) (A) (A)
                 (A) (A) (A) (A) (A) (A) (A) (A) (A) (A) (A) (A)
                 (A) (A) (A) (A) (A) (A) (A) (A) (A) (A) (A) (A)
                 (A) (A) (A) (A) (A) (A) (A) (A) (A) (A) (A) (A)
                 (A) (A) (A) (A) (A) (A) (A) (A) (A) (A) (A) (A)
                 (A) (A) (A) (A) (A) (A) (A) (A) (A) (A) (A) (A)
                 (A) (A) (A) (A) (A) (A) (A) (A) (A) (A) (A) (A)
 The electronic state of the initial guess is 1-A.
 Requested convergence on RMS density matrix=1.00D-08 within 128 cycles.
 Requested convergence on MAX density matrix=1.00D-06.
 Requested convergence on             energy=1.00D-06.
 No special actions if energy rises.
 Keep R1 ints in memory in canonical form, NReq=785188994.
 SCF Done:  E(RHF) =  -247.094056083     A.U. after   12 cycles
             Convg  =    0.8656D-08             -V/T =  2.0019
 ExpMin= 1.03D-01 ExpMax= 1.53D+04 ExpMxC= 5.22D+02 IAcc=1 IRadAn=         1 AccDes= 0.00D+00
 HarFok:  IExCor=  205 AccDes= 0.00D+00 IRadAn=         1 IDoV=-2
 ScaDFX=  1.000000  1.000000  1.000000  1.000000
 Range of M.O.s used for correlation:     6   248
 NBasis=   248 NAE=    20 NBE=    20 NFC=     5 NFV=     0
 NROrb=    243 NOA=    15 NOB=    15 NVA=   228 NVB=   228

 **** Warning!!: The largest alpha MO coefficient is  0.11909793D+02

 Fully in-core method, ICMem=  1600730249.
 JobTyp=1 Pass  1 fully in-core, NPsUse=  8.
 Spin components of T(2) and E(2):
     alpha-alpha T2 =       0.3451807558D-01 E2=     -0.1144546928D+00
     alpha-beta  T2 =       0.2028286620D+00 E2=     -0.7223504368D+00
     beta-beta   T2 =       0.3451807558D-01 E2=     -0.1144546928D+00
 ANorm=    0.1127769841D+01
 E2 =    -0.9512598225D+00 EUMP2 =    -0.24804531590562D+03

 **********************************************************************

            Population analysis using the SCF density.

 **********************************************************************

 Orbital symmetries:
       Occupied  (A) (A) (A) (A) (A) (A) (A) (A) (A) (A) (A) (A)
                 (A) (A) (A) (A) (A) (A) (A) (A)
       Virtual   (A) (A) (A) (A) (A) (A) (A) (A) (A) (A) (A) (A)
                 (A) (A) (A) (A) (A) (A) (A) (A) (A) (A) (A) (A)
                 (A) (A) (A) (A) (A) (A) (A) (A) (A) (A) (A) (A)
                 (A) (A) (A) (A) (A) (A) (A) (A) (A) (A) (A) (A)
                 (A) (A) (A) (A) (A) (A) (A) (A) (A) (A) (A) (A)
                 (A) (A) (A) (A) (A) (A) (A) (A) (A) (A) (A) (A)
                 (A) (A) (A) (A) (A) (A) (A) (A) (A) (A) (A) (A)
                 (A) (A) (A) (A) (A) (A) (A) (A) (A) (A) (A) (A)
                 (A) (A) (A) (A) (A) (A) (A) (A) (A) (A) (A) (A)
                 (A) (A) (A) (A) (A) (A) (A) (A) (A) (A) (A) (A)
                 (A) (A) (A) (A) (A) (A) (A) (A) (A) (A) (A) (A)
                 (A) (A) (A) (A) (A) (A) (A) (A) (A) (A) (A) (A)
                 (A) (A) (A) (A) (A) (A) (A) (A) (A) (A) (A) (A)
                 (A) (A) (A) (A) (A) (A) (A) (A) (A) (A) (A) (A)
                 (A) (A) (A) (A) (A) (A) (A) (A) (A) (A) (A) (A)
                 (A) (A) (A) (A) (A) (A) (A) (A) (A) (A) (A) (A)
                 (A) (A) (A) (A) (A) (A) (A) (A) (A) (A) (A) (A)
                 (A) (A) (A) (A) (A) (A) (A) (A) (A) (A) (A) (A)
                 (A) (A) (A) (A) (A) (A) (A) (A) (A) (A) (A) (A)
 The electronic state is 1-A.
 Alpha  occ. eigenvalues --  -20.50735 -15.58064 -11.34686 -11.27739 -11.23670
 Alpha  occ. eigenvalues --   -1.36607  -1.22337  -1.00372  -0.95363  -0.77997
 Alpha  occ. eigenvalues --   -0.67167  -0.66280  -0.63864  -0.58031  -0.57502
 Alpha  occ. eigenvalues --   -0.55995  -0.55386  -0.51066  -0.41609  -0.38623
 Alpha virt. eigenvalues --    0.12437   0.15713   0.17559   0.18414   0.18929
 Alpha virt. eigenvalues --    0.21391   0.23737   0.27166   0.28233   0.30619
 Alpha virt. eigenvalues --    0.34779   0.37925   0.38426   0.40899   0.42991
 Alpha virt. eigenvalues --    0.49245   0.49344   0.51733   0.54592   0.57787
 Alpha virt. eigenvalues --    0.60219   0.60389   0.60885   0.61831   0.63302
 Alpha virt. eigenvalues --    0.64104   0.65074   0.66966   0.69000   0.70794
 Alpha virt. eigenvalues --    0.73843   0.76832   0.78892   0.81213   0.83929
 Alpha virt. eigenvalues --    0.87582   0.91446   0.94020   0.96367   0.99322
 Alpha virt. eigenvalues --    1.00844   1.02223   1.06924   1.09792   1.10978
 Alpha virt. eigenvalues --    1.13258   1.14987   1.16724   1.18205   1.19594
 Alpha virt. eigenvalues --    1.23441   1.24550   1.26721   1.30865   1.31967
 Alpha virt. eigenvalues --    1.35180   1.37069   1.41195   1.41510   1.44536
 Alpha virt. eigenvalues --    1.47211   1.47750   1.48954   1.51873   1.52659
 Alpha virt. eigenvalues --    1.54576   1.54970   1.58514   1.61598   1.66936
 Alpha virt. eigenvalues --    1.69038   1.72984   1.75821   1.78006   1.79604
 Alpha virt. eigenvalues --    1.86678   1.93308   2.01811   2.06823   2.12280
 Alpha virt. eigenvalues --    2.16828   2.23893   2.33511   2.42766   2.43018
 Alpha virt. eigenvalues --    2.48133   2.53482   2.56524   2.63393   2.63758
 Alpha virt. eigenvalues --    2.72366   2.76310   2.84157   2.84505   2.87944
 Alpha virt. eigenvalues --    2.92200   2.96094   2.99004   2.99813   3.04995
 Alpha virt. eigenvalues --    3.07896   3.08007   3.10663   3.11716   3.13998
 Alpha virt. eigenvalues --    3.16404   3.16886   3.19016   3.22720   3.23920
 Alpha virt. eigenvalues --    3.28480   3.30153   3.30907   3.32181   3.33449
 Alpha virt. eigenvalues --    3.34823   3.38721   3.40821   3.42017   3.43919
 Alpha virt. eigenvalues --    3.47867   3.56649   3.56725   3.57701   3.61572
 Alpha virt. eigenvalues --    3.62397   3.62436   3.65025   3.67880   3.70959
 Alpha virt. eigenvalues --    3.72147   3.72935   3.76270   3.76983   3.79574
 Alpha virt. eigenvalues --    3.80361   3.86347   3.86778   3.90953   3.91665
 Alpha virt. eigenvalues --    3.92198   4.01436   4.01953   4.06367   4.07650
 Alpha virt. eigenvalues --    4.11333   4.11503   4.13508   4.14901   4.16443
 Alpha virt. eigenvalues --    4.20653   4.25556   4.26530   4.30254   4.33241
 Alpha virt. eigenvalues --    4.33399   4.36715   4.38968   4.41738   4.42742
 Alpha virt. eigenvalues --    4.44305   4.47210   4.53578   4.54249   4.56317
 Alpha virt. eigenvalues --    4.56804   4.59009   4.63289   4.66434   4.69111
 Alpha virt. eigenvalues --    4.72611   4.79846   4.87263   4.92228   4.95007
 Alpha virt. eigenvalues --    5.03165   5.08213   5.12827   5.14040   5.14992
 Alpha virt. eigenvalues --    5.20536   5.22566   5.22966   5.31232   5.33954
 Alpha virt. eigenvalues --    5.37660   5.42325   5.46962   5.50897   5.52004
 Alpha virt. eigenvalues --    5.54224   5.55319   5.56837   5.61222   5.61835
 Alpha virt. eigenvalues --    5.64047   5.65674   5.69737   5.70244   5.76251
 Alpha virt. eigenvalues --    5.78128   5.83084   5.90094   6.08045   6.08173
 Alpha virt. eigenvalues --    6.12363   6.18941   6.19596   6.21955   6.27273
 Alpha virt. eigenvalues --    6.31601   6.38028   6.45974   6.52134   6.71074
 Alpha virt. eigenvalues --    6.71468   6.94301   6.96322   7.04232   7.32569
 Alpha virt. eigenvalues --    7.39051   7.58431   7.63290   9.55328  12.89270
 Alpha virt. eigenvalues --   13.51412  14.10629  14.36174
          Condensed to atoms (all electrons):
              1          2          3          4          5          6
     1  C    4.965727   0.323588  -0.100680  -0.008642  -0.076759   0.012133
     2  C    0.323588   4.307745   0.421729  -0.031195   0.769150  -0.025473
     3  N   -0.100680   0.421729   6.465606   0.346564  -0.139793   0.350673
     4  C   -0.008642  -0.031195   0.346564   4.630881   0.000983  -0.031087
     5  O   -0.076759   0.769150  -0.139793   0.000983   7.866903   0.013995
     6  H    0.012133  -0.025473   0.350673  -0.031087   0.013995   0.501878
     7  H    0.392178  -0.023736   0.002768  -0.002031   0.001323  -0.000590
     8  H    0.409515  -0.031203   0.004910   0.000224   0.005963  -0.000514
     9  H    0.392159  -0.023716   0.002757  -0.002024   0.001322  -0.000590
    10  H   -0.000598   0.003357  -0.025767   0.422689  -0.000272  -0.011240
    11  H   -0.000647  -0.003826  -0.052222   0.416945   0.000180   0.003042
    12  H   -0.000654  -0.003815  -0.052240   0.416947   0.000181   0.003036
              7          8          9         10         11         12
     1  C    0.392178   0.409515   0.392159  -0.000598  -0.000647  -0.000654
     2  C   -0.023736  -0.031203  -0.023716   0.003357  -0.003826  -0.003815
     3  N    0.002768   0.004910   0.002757  -0.025767  -0.052222  -0.052240
     4  C   -0.002031   0.000224  -0.002024   0.422689   0.416945   0.416947
     5  O    0.001323   0.005963   0.001322  -0.000272   0.000180   0.000181
     6  H   -0.000590  -0.000514  -0.000590  -0.011240   0.003042   0.003036
     7  H    0.583749  -0.019400  -0.034408   0.000255  -0.001787   0.000074
     8  H   -0.019400   0.508712  -0.019391   0.000041   0.000026   0.000025
     9  H   -0.034408  -0.019391   0.583749   0.000255   0.000070  -0.001782
    10  H    0.000255   0.000041   0.000255   0.555320  -0.028431  -0.028446
    11  H   -0.001787   0.000026   0.000070  -0.028431   0.641886  -0.063140
    12  H    0.000074   0.000025  -0.001782  -0.028446  -0.063140   0.641923
 Mulliken atomic charges:
              1
     1  C   -0.307321
     2  C    0.317395
     3  N   -0.224305
     4  C   -0.160254
     5  O   -0.443177
     6  H    0.184736
     7  H    0.101604
     8  H    0.141092
     9  H    0.101598
    10  H    0.112838
    11  H    0.087903
    12  H    0.087891
 Sum of Mulliken atomic charges =   0.00000
 Mulliken charges with hydrogens summed into heavy atoms:
              1
     1  C    0.036973
     2  C    0.317395
     3  N   -0.039568
     4  C    0.128378
     5  O   -0.443177
 Sum of Mulliken charges with hydrogens summed into heavy atoms =   0.00000
 Electronic spatial extent (au):  <R**2>=            453.4653
 Charge=              0.0000 electrons
 Dipole moment (field-independent basis, Debye):
    X=              3.9887    Y=              1.9203    Z=              0.0004  Tot=              4.4269
 Quadrupole moment (field-independent basis, Debye-Ang):
   XX=            -34.0228   YY=            -29.6729   ZZ=            -31.1937
   XY=             -5.2881   XZ=              0.0011   YZ=             -0.0005
 Traceless Quadrupole moment (field-independent basis, Debye-Ang):
   XX=             -2.3930   YY=              1.9569   ZZ=              0.4361
   XY=             -5.2881   XZ=              0.0011   YZ=             -0.0005
 Octapole moment (field-independent basis, Debye-Ang**2):
  XXX=             13.3633  YYY=             -7.2645  ZZZ=              0.0019  XYY=              4.7895
  XXY=              4.5482  XXZ=             -0.0016  XZZ=             -0.7982  YZZ=              0.6756
  YYZ=             -0.0003  XYZ=             -0.0011
 Hexadecapole moment (field-independent basis, Debye-Ang**3):
 XXXX=           -356.4641 YYYY=           -178.1812 ZZZZ=            -43.2431 XXXY=            -16.3739
 XXXZ=             -0.0004 YYYX=             -7.4667 YYYZ=             -0.0015 ZZZX=              0.0012
 ZZZY=             -0.0002 XXYY=            -90.8179 XXZZ=            -67.6181 YYZZ=            -37.1242
 XXYZ=              0.0002 YYXZ=             -0.0009 ZZXY=              2.7476
 N-N= 1.794016858883D+02 E-N=-9.379553575899D+02  KE= 2.466257490318D+02
 1\1\GINC-ROCK\SP\RMP2-FC\CC-pVTZ\C3H7N1O1\STYLIANAKIS\21-Mar-2016\0\\#
  mp2/cc-pVTZ\\N_methylacetamide_E_single_point\\0,1\C\C,1,1.519139\N,2
 ,1.369954,1,116.53\C,3,1.455152,2,127.095,1,0.032,0\O,2,1.228939,3,121
 .099,4,-179.972,0\H,3,1.01111,2,114.024,1,179.986,0\H,1,1.095725,2,111
 .241,5,-120.104,0\H,1,1.089645,2,108.27,5,-0.014,0\H,1,1.095728,2,111.
 239,5,120.073,0\H,4,1.091681,3,108.417,2,179.998,0\H,4,1.096407,3,112.
 082,2,-61.142,0\H,4,1.096415,3,112.086,2,61.135,0\\Version=EM64L-G09Re
 vA.01\State=1-A\HF=-247.0940561\MP2=-248.0453159\RMSD=8.656e-09\PG=C01
  [X(C3H7N1O1)]\\@


 ... IT CAN BE VERY DIFFICULT, IN THESE COMPLEX TIMES,
 TO UNDERSTAND JUST HOW SCIENTISTS DO WHAT THEY DO.

                     DON MOSER IN THE FEBRUARY 1979 SMITHSONIAN
 Job cpu time:  0 days  0 hours 31 minutes 28.8 seconds.
 File lengths (MBytes):  RWF=     27 Int=      0 D2E=      0 Chk=      4 Scr=      1
 Normal termination of Gaussian 09 at Mon Mar 21 05:59:56 2016.
