 Entering Gaussian System, Link 0=g09
 Input=N_methyl_piperidinium_eq.gjf
 Output=N_methyl_piperidinium_eq.out
 Initial command:
 /usr/local/g09/l1.exe /home/scratch/stylianakis/Gau-24197.inp -scrdir=/home/scratch/stylianakis/
 Entering Link 1 = /usr/local/g09/l1.exe PID=     24198.
  
 Copyright (c) 1988,1990,1992,1993,1995,1998,2003,2009, Gaussian, Inc.
                  All Rights Reserved.
  
 This is part of the Gaussian(R) 09 program.  It is based on
 the Gaussian(R) 03 system (copyright 2003, Gaussian, Inc.),
 the Gaussian(R) 98 system (copyright 1998, Gaussian, Inc.),
 the Gaussian(R) 94 system (copyright 1995, Gaussian, Inc.),
 the Gaussian 92(TM) system (copyright 1992, Gaussian, Inc.),
 the Gaussian 90(TM) system (copyright 1990, Gaussian, Inc.),
 the Gaussian 88(TM) system (copyright 1988, Gaussian, Inc.),
 the Gaussian 86(TM) system (copyright 1986, Carnegie Mellon
 University), and the Gaussian 82(TM) system (copyright 1983,
 Carnegie Mellon University). Gaussian is a federally registered
 trademark of Gaussian, Inc.
  
 This software contains proprietary and confidential information,
 including trade secrets, belonging to Gaussian, Inc.
  
 This software is provided under written license and may be
 used, copied, transmitted, or stored only in accord with that
 written license.
  
 The following legend is applicable only to US Government
 contracts under FAR:
  
                    RESTRICTED RIGHTS LEGEND
  
 Use, reproduction and disclosure by the US Government is
 subject to restrictions as set forth in subparagraphs (a)
 and (c) of the Commercial Computer Software - Restricted
 Rights clause in FAR 52.227-19.
  
 Gaussian, Inc.
 340 Quinnipiac St., Bldg. 40, Wallingford CT 06492
  
  
 ---------------------------------------------------------------
 Warning -- This program may not be used in any manner that
 competes with the business of Gaussian, Inc. or will provide
 assistance to any competitor of Gaussian, Inc.  The licensee
 of this program is prohibited from giving any competitor of
 Gaussian, Inc. access to this program.  By using this program,
 the user acknowledges that Gaussian, Inc. is engaged in the
 business of creating and licensing software in the field of
 computational chemistry and represents and warrants to the
 licensee that it is not a competitor of Gaussian, Inc. and that
 it will not use this program in any manner prohibited above.
 ---------------------------------------------------------------
  

 Cite this work as:
 Gaussian 09, Revision A.01,
 M. J. Frisch, G. W. Trucks, H. B. Schlegel, G. E. Scuseria, 
 M. A. Robb, J. R. Cheeseman, G. Scalmani, V. Barone, B. Mennucci, 
 G. A. Petersson, H. Nakatsuji, M. Caricato, X. Li, H. P. Hratchian, 
 A. F. Izmaylov, J. Bloino, G. Zheng, J. L. Sonnenberg, M. Hada, 
 M. Ehara, K. Toyota, R. Fukuda, J. Hasegawa, M. Ishida, T. Nakajima, 
 Y. Honda, O. Kitao, H. Nakai, T. Vreven, J. A. Montgomery, Jr., 
 J. E. Peralta, F. Ogliaro, M. Bearpark, J. J. Heyd, E. Brothers, 
 K. N. Kudin, V. N. Staroverov, R. Kobayashi, J. Normand, 
 K. Raghavachari, A. Rendell, J. C. Burant, S. S. Iyengar, J. Tomasi, 
 M. Cossi, N. Rega, J. M. Millam, M. Klene, J. E. Knox, J. B. Cross, 
 V. Bakken, C. Adamo, J. Jaramillo, R. Gomperts, R. E. Stratmann, 
 O. Yazyev, A. J. Austin, R. Cammi, C. Pomelli, J. W. Ochterski, 
 R. L. Martin, K. Morokuma, V. G. Zakrzewski, G. A. Voth, 
 P. Salvador, J. J. Dannenberg, S. Dapprich, A. D. Daniels, 
 O. Farkas, J. B. Foresman, J. V. Ortiz, J. Cioslowski, 
 and D. J. Fox, Gaussian, Inc., Wallingford CT, 2009.
 
 ******************************************
 Gaussian 09:  EM64L-G09RevA.01  8-May-2009
                21-Mar-2016 
 ******************************************
 %mem=16000Mb
 %nproc=8
 Will use up to    8 processors via shared memory.
 -------------
 # mp2/cc-pVTZ
 -------------
 1/38=1/1;
 2/12=2,17=6,18=5,40=1/2;
 3/5=16,6=1,11=9,16=1,25=1,30=1/1,2,3;
 4//1;
 5/5=2,38=5/2;
 8/10=1/1;
 9/16=-3/6;
 6/7=2,8=2,9=2,10=2/1;
 99/5=1,9=1/99;
 -------------------------------------
 N_methyl_piperidinium_eq_single_point
 -------------------------------------
 Symbolic Z-matrix:
 Charge =  1 Multiplicity = 1
 c
 c                    1    cc2
 c                    2    cc3      1    ccc3
 n                    3    nc4      2    ncc4     1    dih4     0
 c                    4    cn5      3    cnc5     2    dih5     0
 c                    5    cc6      4    ccn6     3    dih6     0
 c                    4    cn7      3    cnc7     2    dih7     0
 h                    3    hc8      4    hcn8     5    dih8     0
 h                    3    hc9      4    hcn9     5    dih9     0
 h                    5    hc10     4    hcn10    3    dih10    0
 h                    5    hc11     4    hcn11    3    dih11    0
 h                    2    hc12     3    hcc12    4    dih12    0
 h                    2    hc13     3    hcc13    4    dih13    0
 h                    6    hc14     5    hcc14    4    dih14    0
 h                    6    hc15     5    hcc15    4    dih15    0
 h                    1    hc16     2    hcc16    3    dih16    0
 h                    1    hc17     2    hcc17    3    dih17    0
 h                    7    hc18     4    hcn18    3    dih18    0
 h                    7    hc19     4    hcn19    3    dih19    0
 h                    7    hc20     4    hcn20    3    dih20    0
 h                    4    hn21     3    hnc21    2    dih21    0
       Variables:
  cc2                   1.53513                  
  cc3                   1.52721                  
  ccc3                111.768                    
  nc4                   1.52197                  
  ncc4                110.927                    
  dih4                 55.52                     
  cn5                   1.52196                  
  cnc5                111.381                    
  dih5                -56.358                    
  cc6                   1.52721                  
  ccn6                110.927                    
  dih6                 56.358                    
  cn7                   1.50301                  
  cnc7                112.087                    
  dih7                177.154                    
  hc8                   1.0927                   
  hcn8                106.806                    
  dih8               -179.18                     
  hc9                   1.09424                  
  hcn9                105.823                    
  dih9                 65.192                    
  hc10                  1.09423                  
  hcn10               105.823                    
  dih10               -65.192                    
  hc11                  1.0927                   
  hcn11               106.807                    
  dih11               179.179                    
  hc12                  1.09865                  
  hcc12               109.574                    
  dih12               -67.138                    
  hc13                  1.09461                  
  hcc13               107.585                    
  dih13               177.781                    
  hc14                  1.09461                  
  hcc14               107.586                    
  dih14              -177.781                    
  hc15                  1.09865                  
  hcc15               109.574                    
  dih15                67.138                    
  hc16                  1.0976                   
  hcc16               109.762                    
  dih16                66.953                    
  hc17                  1.09346                  
  hcc17               109.973                    
  dih17              -175.992                    
  hc18                  1.09062                  
  hcn18               109.019                    
  dih18              -177.094                    
  hc19                  1.09062                  
  hcn19               109.019                    
  dih19               -56.801                    
  hc20                  1.09048                  
  hcn20               108.557                    
  dih20                63.053                    
  hn21                  1.02594                  
  hnc21               106.778                    
  dih21                59.862                    
 
                          Input orientation:                          
 ---------------------------------------------------------------------
 Center     Atomic      Atomic             Coordinates (Angstroms)
 Number     Number       Type             X           Y           Z
 ---------------------------------------------------------------------
      1          6           0        0.000000    0.000000    0.000000
      2          6           0        0.000000    0.000000    1.535134
      3          6           0        1.418308    0.000000    2.101498
      4          7           0        2.221609    1.171834    1.555705
      5          6           0        2.252966    1.162279    0.034095
      6          6           0        0.838064    1.167022   -0.540705
      7          6           0        3.601044    1.236570    2.149003
      8          1           0        1.432135    0.087451    3.190606
      9          1           0        1.971616   -0.899809    1.815933
     10          1           0        2.804590    0.260129   -0.247302
     11          1           0        2.831455    2.036064   -0.275497
     12          1           0       -0.548982    0.871505    1.917397
     13          1           0       -0.513677   -0.882378    1.929752
     14          1           0        0.923825    1.119402   -1.630914
     15          1           0        0.351287    2.125151   -0.312521
     16          1           0        0.404388   -0.950511   -0.371114
     17          1           0       -1.025174    0.071831   -0.373499
     18          1           0        4.112261    2.119852    1.764403
     19          1           0        3.518542    1.293078    3.235025
     20          1           0        4.144809    0.335904    1.862173
     21          1           0        1.727413    2.025974    1.836375
 ---------------------------------------------------------------------
                    Distance matrix (angstroms):
                    1          2          3          4          5
     1  C    0.000000
     2  C    1.535134   0.000000
     3  C    2.535329   1.527209   0.000000
     4  N    2.954482   2.511805   1.521965   0.000000
     5  C    2.535333   2.946161   2.514299   1.521963   0.000000
     6  C    1.535139   2.524559   2.946161   2.511804   1.527209
     7  C    4.372051   3.856612   2.509122   1.503008   2.509117
     8  H    3.498375   2.190719   1.092701   2.114724   3.434033
     9  H    2.827462   2.185354   1.094236   2.102837   2.739765
    10  H    2.827464   3.333237   2.739764   2.102833   1.094234
    11  H    3.498369   3.929513   3.434042   2.114735   1.092701
    12  H    2.176537   1.098648   2.159547   2.810194   3.388552
    13  H    2.183208   1.094613   2.130881   3.441146   3.927907
    14  H    2.183207   3.482868   3.927910   3.441153   2.130895
    15  H    2.176543   2.837869   3.388553   2.810194   2.159549
    16  H    1.097600   2.168128   2.836426   3.394005   2.836427
    17  H    1.093455   2.167723   3.478704   3.933629   3.478709
    18  H    4.951523   4.632173   3.444530   2.125290   2.714385
    19  H    4.951522   4.116044   2.714390   2.125288   3.444523
    20  H    4.556311   4.171239   2.757520   2.119293   2.757505
    21  H    3.234316   2.679416   2.066496   1.025943   2.066491
                    6          7          8          9         10
     6  C    0.000000
     7  C    3.856608   0.000000
     8  H    3.929514   2.666378   0.000000
     9  H    3.333238   2.707413   1.776358   0.000000
    10  H    2.185353   2.707407   3.705761   2.509231   0.000000
    11  H    2.190702   2.666394   4.215336   3.705773   1.776362
    12  H    2.837868   4.172484   2.482061   3.082411   4.038087
    13  H    3.482872   4.633458   2.513267   2.487959   4.129865
    14  H    1.094613   4.633465   4.956850   4.129871   2.487973
    15  H    1.098650   4.172481   4.194324   4.038090   3.082411
    16  H    2.168128   4.620921   3.849608   2.691087   2.691087
    17  H    2.167731   5.396437   4.329141   3.836463   3.836467
    18  H    4.116039   1.090618   3.653461   3.701806   3.035709
    19  H    4.632169   1.090616   2.410104   3.035713   3.701798
    20  H    4.171229   1.090482   3.030687   2.500379   2.500363
    21  H    2.679412   2.057034   2.383065   2.936027   2.936022
                   11         12         13         14         15
    11  H    0.000000
    12  H    4.194321   0.000000
    13  H    4.956846   1.754282   0.000000
    14  H    2.513260   3.849821   4.330343   0.000000
    15  H    2.482044   2.711945   3.849829   1.754278   0.000000
    16  H    3.849600   3.076677   2.478199   2.478195   3.076678
    17  H    4.329134   2.472741   2.545017   2.545013   2.472749
    18  H    2.410120   4.827935   5.517248   4.763948   4.296344
    19  H    3.653475   4.296349   4.763941   5.517253   4.827933
    20  H    3.030689   4.724573   4.815628   4.815628   4.724565
    21  H    2.383068   2.553690   3.672834   3.672835   2.553686
                   16         17         18         19         20
    16  H    0.000000
    17  H    1.757509   0.000000
    18  H    5.266486   5.929440   0.000000
    19  H    5.266486   5.929439   1.788515   0.000000
    20  H    4.542377   5.638856   1.786921   1.786929   0.000000
    21  H    3.934826   4.034719   2.387780   2.387782   2.949713
                   21
    21  H    0.000000
 Stoichiometry    C6H14N(1+)
 Framework group  C1[X(C6H14N)]
 Deg. of freedom    57
 Full point group                 C1      NOp   1
 Largest Abelian subgroup         C1      NOp   1
 Largest concise Abelian subgroup C1      NOp   1
                         Standard orientation:                         
 ---------------------------------------------------------------------
 Center     Atomic      Atomic             Coordinates (Angstroms)
 Number     Number       Type             X           Y           Z
 ---------------------------------------------------------------------
      1          6           0        1.922633    0.000000    0.261238
      2          6           0        1.190231   -1.262277   -0.215079
      3          6           0       -0.278321   -1.257151    0.204084
      4          7           0       -0.980095   -0.000002   -0.289339
      5          6           0       -0.278328    1.257148    0.204086
      6          6           0        1.190224    1.262282   -0.215077
      7          6           0       -2.444310   -0.000002    0.049936
      8          1           0       -0.830763   -2.107665   -0.202647
      9          1           0       -0.391923   -1.254619    1.292404
     10          1           0       -0.391929    1.254612    1.292404
     11          1           0       -0.830751    2.107671   -0.202650
     12          1           0        1.260890   -1.355969   -1.307442
     13          1           0        1.649408   -2.165171    0.199790
     14          1           0        1.649413    2.165172    0.199786
     15          1           0        1.260883    1.355976   -1.307442
     16          1           0        1.987933    0.000003    1.356894
     17          1           0        2.949632    0.000000   -0.114151
     18          1           0       -2.906406    0.894256   -0.369846
     19          1           0       -2.906406   -0.894259   -0.369844
     20          1           0       -2.549039    0.000008    1.135377
     21          1           0       -0.903054    0.000002   -1.312385
 ---------------------------------------------------------------------
 Rotational constants (GHZ):      4.2344816      2.2051905      1.5995135
 Standard basis: CC-pVTZ (5D, 7F)
 There are   406 symmetry adapted basis functions of A   symmetry.
 Integral buffers will be    131072 words long.
 Raffenetti 1 integral format.
 Two-electron integral symmetry is turned on.
   406 basis functions,   602 primitive gaussians,   455 cartesian basis functions
    28 alpha electrons       28 beta electrons
       nuclear repulsion energy       343.8933489360 Hartrees.
 NAtoms=   21 NActive=   21 NUniq=   21 SFac= 7.50D-01 NAtFMM=   80 NAOKFM=F Big=F
 One-electron integrals computed using PRISM.
 NBasis=   406 RedAO= T  NBF=   406
 NBsUse=   406 1.00D-06 NBFU=   406
 Harris functional with IExCor=  205 diagonalized for initial guess.
 ExpMin= 1.03D-01 ExpMax= 1.14D+04 ExpMxC= 3.89D+02 IAcc=1 IRadAn=         1 AccDes= 0.00D+00
 HarFok:  IExCor=  205 AccDes= 0.00D+00 IRadAn=         1 IDoV= 1
 ScaDFX=  1.000000  1.000000  1.000000  1.000000
 FoFCou: FMM=F IPFlag=           0 FMFlag=      100000 FMFlg1=           0
         NFxFlg=           0 DoJE=T BraDBF=F KetDBF=T FulRan=T
         Omega=  0.000000  0.000000  1.000000  0.000000  0.000000 ICntrl=     500 IOpCl=  0
         NMat0=    1 NMatS0=    1 NMatT0=    0 NMatD0=    1 NMtDS0=    0 NMtDT0=    0
         I1Cent=           4 NGrid=           0.
 Petite list used in FoFCou.
 Initial guess orbital symmetries:
       Occupied  (A) (A) (A) (A) (A) (A) (A) (A) (A) (A) (A) (A)
                 (A) (A) (A) (A) (A) (A) (A) (A) (A) (A) (A) (A)
                 (A) (A) (A) (A)
       Virtual   (A) (A) (A) (A) (A) (A) (A) (A) (A) (A) (A) (A)
                 (A) (A) (A) (A) (A) (A) (A) (A) (A) (A) (A) (A)
                 (A) (A) (A) (A) (A) (A) (A) (A) (A) (A) (A) (A)
                 (A) (A) (A) (A) (A) (A) (A) (A) (A) (A) (A) (A)
                 (A) (A) (A) (A) (A) (A) (A) (A) (A) (A) (A) (A)
                 (A) (A) (A) (A) (A) (A) (A) (A) (A) (A) (A) (A)
                 (A) (A) (A) (A) (A) (A) (A) (A) (A) (A) (A) (A)
                 (A) (A) (A) (A) (A) (A) (A) (A) (A) (A) (A) (A)
                 (A) (A) (A) (A) (A) (A) (A) (A) (A) (A) (A) (A)
                 (A) (A) (A) (A) (A) (A) (A) (A) (A) (A) (A) (A)
                 (A) (A) (A) (A) (A) (A) (A) (A) (A) (A) (A) (A)
                 (A) (A) (A) (A) (A) (A) (A) (A) (A) (A) (A) (A)
                 (A) (A) (A) (A) (A) (A) (A) (A) (A) (A) (A) (A)
                 (A) (A) (A) (A) (A) (A) (A) (A) (A) (A) (A) (A)
                 (A) (A) (A) (A) (A) (A) (A) (A) (A) (A) (A) (A)
                 (A) (A) (A) (A) (A) (A) (A) (A) (A) (A) (A) (A)
                 (A) (A) (A) (A) (A) (A) (A) (A) (A) (A) (A) (A)
                 (A) (A) (A) (A) (A) (A) (A) (A) (A) (A) (A) (A)
                 (A) (A) (A) (A) (A) (A) (A) (A) (A) (A) (A) (A)
                 (A) (A) (A) (A) (A) (A) (A) (A) (A) (A) (A) (A)
                 (A) (A) (A) (A) (A) (A) (A) (A) (A) (A) (A) (A)
                 (A) (A) (A) (A) (A) (A) (A) (A) (A) (A) (A) (A)
                 (A) (A) (A) (A) (A) (A) (A) (A) (A) (A) (A) (A)
                 (A) (A) (A) (A) (A) (A) (A) (A) (A) (A) (A) (A)
                 (A) (A) (A) (A) (A) (A) (A) (A) (A) (A) (A) (A)
                 (A) (A) (A) (A) (A) (A) (A) (A) (A) (A) (A) (A)
                 (A) (A) (A) (A) (A) (A) (A) (A) (A) (A) (A) (A)
                 (A) (A) (A) (A) (A) (A) (A) (A) (A) (A) (A) (A)
                 (A) (A) (A) (A) (A) (A) (A) (A) (A) (A) (A) (A)
                 (A) (A) (A) (A) (A) (A) (A) (A) (A) (A) (A) (A)
                 (A) (A) (A) (A) (A) (A) (A) (A) (A) (A) (A) (A)
                 (A) (A) (A) (A) (A) (A)
 The electronic state of the initial guess is 1-A.
 Requested convergence on RMS density matrix=1.00D-08 within 128 cycles.
 Requested convergence on MAX density matrix=1.00D-06.
 Requested convergence on             energy=1.00D-06.
 No special actions if energy rises.
 Integral accuracy reduced to 1.0D-05 until final iterations.
 Initial convergence to 1.0D-05 achieved.  Increase integral accuracy.
 SCF Done:  E(RHF) =  -289.708934449     A.U. after   11 cycles
             Convg  =    0.5343D-08             -V/T =  2.0020
 ExpMin= 1.03D-01 ExpMax= 1.14D+04 ExpMxC= 3.89D+02 IAcc=1 IRadAn=         1 AccDes= 0.00D+00
 HarFok:  IExCor=  205 AccDes= 0.00D+00 IRadAn=         1 IDoV=-2
 ScaDFX=  1.000000  1.000000  1.000000  1.000000
 Range of M.O.s used for correlation:     8   406
 NBasis=   406 NAE=    28 NBE=    28 NFC=     7 NFV=     0
 NROrb=    399 NOA=    21 NOB=    21 NVA=   378 NVB=   378

 **** Warning!!: The largest alpha MO coefficient is  0.11674003D+02

 Fully direct method using O(OVN) memory.
 JobTyp=1 Pass  1:  I=   1 to  21 NPSUse=  8 ParTrn=T ParDer=T DoDerP=F.
 Spin components of T(2) and E(2):
     alpha-alpha T2 =       0.4542151865D-01 E2=     -0.1405534510D+00
     alpha-beta  T2 =       0.2831988134D+00 E2=     -0.9619707137D+00
     beta-beta   T2 =       0.4542151865D-01 E2=     -0.1405534510D+00
 ANorm=    0.1172195313D+01
 E2 =    -0.1243077616D+01 EUMP2 =    -0.29095201206503D+03

 **********************************************************************

            Population analysis using the SCF density.

 **********************************************************************

 Orbital symmetries:
       Occupied  (A) (A) (A) (A) (A) (A) (A) (A) (A) (A) (A) (A)
                 (A) (A) (A) (A) (A) (A) (A) (A) (A) (A) (A) (A)
                 (A) (A) (A) (A)
       Virtual   (A) (A) (A) (A) (A) (A) (A) (A) (A) (A) (A) (A)
                 (A) (A) (A) (A) (A) (A) (A) (A) (A) (A) (A) (A)
                 (A) (A) (A) (A) (A) (A) (A) (A) (A) (A) (A) (A)
                 (A) (A) (A) (A) (A) (A) (A) (A) (A) (A) (A) (A)
                 (A) (A) (A) (A) (A) (A) (A) (A) (A) (A) (A) (A)
                 (A) (A) (A) (A) (A) (A) (A) (A) (A) (A) (A) (A)
                 (A) (A) (A) (A) (A) (A) (A) (A) (A) (A) (A) (A)
                 (A) (A) (A) (A) (A) (A) (A) (A) (A) (A) (A) (A)
                 (A) (A) (A) (A) (A) (A) (A) (A) (A) (A) (A) (A)
                 (A) (A) (A) (A) (A) (A) (A) (A) (A) (A) (A) (A)
                 (A) (A) (A) (A) (A) (A) (A) (A) (A) (A) (A) (A)
                 (A) (A) (A) (A) (A) (A) (A) (A) (A) (A) (A) (A)
                 (A) (A) (A) (A) (A) (A) (A) (A) (A) (A) (A) (A)
                 (A) (A) (A) (A) (A) (A) (A) (A) (A) (A) (A) (A)
                 (A) (A) (A) (A) (A) (A) (A) (A) (A) (A) (A) (A)
                 (A) (A) (A) (A) (A) (A) (A) (A) (A) (A) (A) (A)
                 (A) (A) (A) (A) (A) (A) (A) (A) (A) (A) (A) (A)
                 (A) (A) (A) (A) (A) (A) (A) (A) (A) (A) (A) (A)
                 (A) (A) (A) (A) (A) (A) (A) (A) (A) (A) (A) (A)
                 (A) (A) (A) (A) (A) (A) (A) (A) (A) (A) (A) (A)
                 (A) (A) (A) (A) (A) (A) (A) (A) (A) (A) (A) (A)
                 (A) (A) (A) (A) (A) (A) (A) (A) (A) (A) (A) (A)
                 (A) (A) (A) (A) (A) (A) (A) (A) (A) (A) (A) (A)
                 (A) (A) (A) (A) (A) (A) (A) (A) (A) (A) (A) (A)
                 (A) (A) (A) (A) (A) (A) (A) (A) (A) (A) (A) (A)
                 (A) (A) (A) (A) (A) (A) (A) (A) (A) (A) (A) (A)
                 (A) (A) (A) (A) (A) (A) (A) (A) (A) (A) (A) (A)
                 (A) (A) (A) (A) (A) (A) (A) (A) (A) (A) (A) (A)
                 (A) (A) (A) (A) (A) (A) (A) (A) (A) (A) (A) (A)
                 (A) (A) (A) (A) (A) (A) (A) (A) (A) (A) (A) (A)
                 (A) (A) (A) (A) (A) (A) (A) (A) (A) (A) (A) (A)
                 (A) (A) (A) (A) (A) (A)
 The electronic state is 1-A.
 Alpha  occ. eigenvalues --  -15.85756 -11.45249 -11.45248 -11.45086 -11.38895
 Alpha  occ. eigenvalues --  -11.38895 -11.37585  -1.48941  -1.25078  -1.20805
 Alpha  occ. eigenvalues --   -1.13815  -1.06423  -1.03723  -0.96959  -0.87391
 Alpha  occ. eigenvalues --   -0.84878  -0.82973  -0.79397  -0.77173  -0.75217
 Alpha  occ. eigenvalues --   -0.73474  -0.72865  -0.71585  -0.70186  -0.67537
 Alpha  occ. eigenvalues --   -0.63039  -0.62570  -0.62361
 Alpha virt. eigenvalues --   -0.03458  -0.00530   0.01049   0.01267   0.03651
 Alpha virt. eigenvalues --    0.05184   0.05327   0.06179   0.07142   0.07489
 Alpha virt. eigenvalues --    0.08673   0.09214   0.10621   0.11371   0.13049
 Alpha virt. eigenvalues --    0.13684   0.15977   0.16276   0.18646   0.21004
 Alpha virt. eigenvalues --    0.22571   0.24053   0.26189   0.26326   0.26880
 Alpha virt. eigenvalues --    0.28986   0.28993   0.30286   0.31602   0.33191
 Alpha virt. eigenvalues --    0.36749   0.38084   0.40860   0.41702   0.42775
 Alpha virt. eigenvalues --    0.43731   0.44184   0.44483   0.45645   0.46271
 Alpha virt. eigenvalues --    0.46857   0.47365   0.47483   0.48053   0.49200
 Alpha virt. eigenvalues --    0.49476   0.50809   0.51783   0.52325   0.52888
 Alpha virt. eigenvalues --    0.53085   0.55314   0.56520   0.56555   0.62293
 Alpha virt. eigenvalues --    0.64061   0.65767   0.68566   0.70966   0.74339
 Alpha virt. eigenvalues --    0.74408   0.76179   0.79563   0.80458   0.81604
 Alpha virt. eigenvalues --    0.83892   0.84494   0.88297   0.88765   0.90848
 Alpha virt. eigenvalues --    0.91878   0.93878   0.94258   0.95131   0.95428
 Alpha virt. eigenvalues --    1.00429   1.03222   1.03568   1.04720   1.05736
 Alpha virt. eigenvalues --    1.06087   1.07520   1.10374   1.11448   1.12210
 Alpha virt. eigenvalues --    1.13170   1.14057   1.14695   1.16646   1.18053
 Alpha virt. eigenvalues --    1.19557   1.20085   1.20436   1.22952   1.24049
 Alpha virt. eigenvalues --    1.25090   1.26446   1.27491   1.27575   1.29569
 Alpha virt. eigenvalues --    1.31170   1.33053   1.33092   1.34581   1.34717
 Alpha virt. eigenvalues --    1.35816   1.36668   1.37004   1.38630   1.41747
 Alpha virt. eigenvalues --    1.42287   1.43003   1.43584   1.43878   1.45419
 Alpha virt. eigenvalues --    1.45860   1.49889   1.50601   1.51783   1.54424
 Alpha virt. eigenvalues --    1.54912   1.56205   1.57277   1.59841   1.61596
 Alpha virt. eigenvalues --    1.62453   1.63274   1.65668   1.70635   1.71744
 Alpha virt. eigenvalues --    1.74697   1.76214   1.78190   1.84131   1.88041
 Alpha virt. eigenvalues --    1.92766   1.94420   1.96066   2.04990   2.05098
 Alpha virt. eigenvalues --    2.36702   2.40741   2.42707   2.43767   2.47238
 Alpha virt. eigenvalues --    2.51909   2.51979   2.54130   2.58793   2.62106
 Alpha virt. eigenvalues --    2.63197   2.63598   2.65136   2.66548   2.68273
 Alpha virt. eigenvalues --    2.70864   2.71162   2.71835   2.74938   2.76293
 Alpha virt. eigenvalues --    2.77533   2.79611   2.79970   2.80408   2.80898
 Alpha virt. eigenvalues --    2.82702   2.83380   2.84560   2.86344   2.88558
 Alpha virt. eigenvalues --    2.88666   2.91797   2.92185   2.93025   2.96061
 Alpha virt. eigenvalues --    2.97565   3.01176   3.02159   3.04972   3.05441
 Alpha virt. eigenvalues --    3.07759   3.09449   3.09834   3.11821   3.12482
 Alpha virt. eigenvalues --    3.14139   3.15150   3.15979   3.17454   3.17968
 Alpha virt. eigenvalues --    3.21820   3.21934   3.22118   3.23114   3.23692
 Alpha virt. eigenvalues --    3.26361   3.27212   3.28195   3.30743   3.30847
 Alpha virt. eigenvalues --    3.31225   3.32388   3.33039   3.35577   3.35871
 Alpha virt. eigenvalues --    3.37684   3.38000   3.39362   3.40756   3.41634
 Alpha virt. eigenvalues --    3.43343   3.43613   3.45327   3.45883   3.48675
 Alpha virt. eigenvalues --    3.49077   3.51086   3.53175   3.53477   3.54790
 Alpha virt. eigenvalues --    3.55815   3.57628   3.60523   3.61092   3.62718
 Alpha virt. eigenvalues --    3.63809   3.65269   3.67753   3.69683   3.71952
 Alpha virt. eigenvalues --    3.72939   3.75480   3.76055   3.77368   3.78618
 Alpha virt. eigenvalues --    3.79803   3.80745   3.81963   3.81984   3.83304
 Alpha virt. eigenvalues --    3.86179   3.86676   3.88492   3.90552   3.91035
 Alpha virt. eigenvalues --    3.92906   3.93350   3.95441   3.96927   3.97927
 Alpha virt. eigenvalues --    3.99740   4.02790   4.03663   4.06202   4.06750
 Alpha virt. eigenvalues --    4.08677   4.09066   4.10019   4.10496   4.11361
 Alpha virt. eigenvalues --    4.12338   4.14152   4.15362   4.16246   4.17380
 Alpha virt. eigenvalues --    4.18751   4.19307   4.20628   4.23075   4.23597
 Alpha virt. eigenvalues --    4.25873   4.27548   4.29125   4.29319   4.29992
 Alpha virt. eigenvalues --    4.31855   4.32387   4.33703   4.34792   4.36229
 Alpha virt. eigenvalues --    4.37561   4.39518   4.39793   4.40302   4.41731
 Alpha virt. eigenvalues --    4.45386   4.47938   4.49603   4.49949   4.52396
 Alpha virt. eigenvalues --    4.53147   4.54268   4.55944   4.59700   4.59780
 Alpha virt. eigenvalues --    4.61023   4.61467   4.63764   4.66617   4.69807
 Alpha virt. eigenvalues --    4.72938   4.74116   4.81918   4.82256   4.85187
 Alpha virt. eigenvalues --    4.86066   4.88974   4.91864   4.92154   4.97213
 Alpha virt. eigenvalues --    4.99508   5.02102   5.04511   5.04823   5.07093
 Alpha virt. eigenvalues --    5.08634   5.10377   5.12792   5.13903   5.16129
 Alpha virt. eigenvalues --    5.17193   5.17236   5.19731   5.21617   5.23617
 Alpha virt. eigenvalues --    5.24870   5.27358   5.27372   5.30612   5.30720
 Alpha virt. eigenvalues --    5.35777   5.36042   5.37867   5.40331   5.45164
 Alpha virt. eigenvalues --    5.46620   5.47957   5.48823   5.50692   5.51379
 Alpha virt. eigenvalues --    5.56611   5.57346   5.59200   5.60480   5.61584
 Alpha virt. eigenvalues --    5.65879   5.66991   5.67910   5.69183   5.71741
 Alpha virt. eigenvalues --    5.73718   5.78731   5.79947   5.85997   5.89099
 Alpha virt. eigenvalues --    5.91591   5.93038   6.01404   6.09100   6.09696
 Alpha virt. eigenvalues --    6.10601   6.13559   6.18383   6.21963   6.22536
 Alpha virt. eigenvalues --    6.23664   6.28729   6.31600   6.34808   6.42044
 Alpha virt. eigenvalues --    6.78688  12.39212  12.72553  12.98667  13.32173
 Alpha virt. eigenvalues --   13.43587  13.44587  14.07321
          Condensed to atoms (all electrons):
              1          2          3          4          5          6
     1  C    4.898632   0.329270  -0.044096   0.007212  -0.044097   0.329270
     2  C    0.329270   4.897982   0.331362  -0.025611  -0.006666  -0.044706
     3  C   -0.044096   0.331362   4.880727   0.256494  -0.027763  -0.006667
     4  N    0.007212  -0.025611   0.256494   6.042826   0.256495  -0.025611
     5  C   -0.044097  -0.006666  -0.027763   0.256495   4.880725   0.331362
     6  C    0.329270  -0.044706  -0.006667  -0.025611   0.331362   4.897986
     7  C   -0.000306   0.003390  -0.035976   0.293521  -0.035976   0.003390
     8  H    0.004524  -0.030627   0.436772  -0.019750   0.003343  -0.000949
     9  H   -0.003888  -0.027445   0.427855  -0.032765  -0.001571   0.001072
    10  H   -0.003888   0.001073  -0.001571  -0.032766   0.427855  -0.027445
    11  H    0.004524  -0.000949   0.003343  -0.019749   0.436773  -0.030628
    12  H   -0.039245   0.429275  -0.032924  -0.005214   0.000999   0.000540
    13  H   -0.028276   0.430140  -0.030111   0.003269  -0.000718   0.005167
    14  H   -0.028275   0.005167  -0.000718   0.003269  -0.030110   0.430139
    15  H   -0.039245   0.000540   0.000999  -0.005214  -0.032924   0.429274
    16  H    0.426836  -0.037253   0.000751  -0.000940   0.000751  -0.037253
    17  H    0.435434  -0.031374   0.005183  -0.000146   0.005183  -0.031373
    18  H    0.000022  -0.000145   0.004418  -0.019079  -0.005518   0.000088
    19  H    0.000022   0.000088  -0.005518  -0.019080   0.004418  -0.000145
    20  H   -0.000048   0.000040  -0.004223  -0.028676  -0.004223   0.000040
    21  H   -0.002908   0.000446  -0.021671   0.366341  -0.021671   0.000446
              7          8          9         10         11         12
     1  C   -0.000306   0.004524  -0.003888  -0.003888   0.004524  -0.039245
     2  C    0.003390  -0.030627  -0.027445   0.001073  -0.000949   0.429275
     3  C   -0.035976   0.436772   0.427855  -0.001571   0.003343  -0.032924
     4  N    0.293521  -0.019750  -0.032765  -0.032766  -0.019749  -0.005214
     5  C   -0.035976   0.003343  -0.001571   0.427855   0.436773   0.000999
     6  C    0.003390  -0.000949   0.001072  -0.027445  -0.030628   0.000540
     7  C    4.752302  -0.005029  -0.003729  -0.003729  -0.005029  -0.000202
     8  H   -0.005029   0.473933  -0.020597   0.000087  -0.000117  -0.003052
     9  H   -0.003729  -0.020597   0.497257   0.000441   0.000087   0.004477
    10  H   -0.003729   0.000087   0.000441   0.497255  -0.020596  -0.000013
    11  H   -0.005029  -0.000117   0.000087  -0.020596   0.473933  -0.000004
    12  H   -0.000202  -0.003052   0.004477  -0.000013  -0.000004   0.527553
    13  H   -0.000166  -0.003604  -0.002699  -0.000056   0.000059  -0.019395
    14  H   -0.000166   0.000059  -0.000056  -0.002699  -0.003604  -0.000078
    15  H   -0.000202  -0.000004  -0.000013   0.004477  -0.003053   0.000765
    16  H   -0.000051  -0.000017   0.001758   0.001758  -0.000017   0.004905
    17  H    0.000040  -0.000139  -0.000126  -0.000126  -0.000139  -0.003666
    18  H    0.420650   0.000082  -0.000056  -0.000511   0.002031   0.000008
    19  H    0.420651   0.002031  -0.000511  -0.000056   0.000082   0.000021
    20  H    0.421023  -0.000517   0.001154   0.001154  -0.000517  -0.000040
    21  H   -0.025595  -0.004262   0.005235   0.005235  -0.004262   0.002934
             13         14         15         16         17         18
     1  C   -0.028276  -0.028275  -0.039245   0.426836   0.435434   0.000022
     2  C    0.430140   0.005167   0.000540  -0.037253  -0.031374  -0.000145
     3  C   -0.030111  -0.000718   0.000999   0.000751   0.005183   0.004418
     4  N    0.003269   0.003269  -0.005214  -0.000940  -0.000146  -0.019079
     5  C   -0.000718  -0.030110  -0.032924   0.000751   0.005183  -0.005518
     6  C    0.005167   0.430139   0.429274  -0.037253  -0.031373   0.000088
     7  C   -0.000166  -0.000166  -0.000202  -0.000051   0.000040   0.420650
     8  H   -0.003604   0.000059  -0.000004  -0.000017  -0.000139   0.000082
     9  H   -0.002699  -0.000056  -0.000013   0.001758  -0.000126  -0.000056
    10  H   -0.000056  -0.002699   0.004477   0.001758  -0.000126  -0.000511
    11  H    0.000059  -0.003604  -0.003053  -0.000017  -0.000139   0.002031
    12  H   -0.019395  -0.000078   0.000765   0.004905  -0.003666   0.000008
    13  H    0.493608  -0.000122  -0.000078  -0.003486  -0.003605   0.000010
    14  H   -0.000122   0.493607  -0.019396  -0.003486  -0.003605  -0.000019
    15  H   -0.000078  -0.019396   0.527556   0.004905  -0.003666   0.000021
    16  H   -0.003486  -0.003486   0.004905   0.533947  -0.020844   0.000004
    17  H   -0.003605  -0.003605  -0.003666  -0.020844   0.496220  -0.000001
    18  H    0.000010  -0.000019   0.000021   0.000004  -0.000001   0.496215
    19  H   -0.000019   0.000010   0.000008   0.000004  -0.000001  -0.022428
    20  H   -0.000006  -0.000006  -0.000040  -0.000036   0.000000  -0.023289
    21  H   -0.000031  -0.000031   0.002934   0.000238  -0.000168  -0.005392
             19         20         21
     1  C    0.000022  -0.000048  -0.002908
     2  C    0.000088   0.000040   0.000446
     3  C   -0.005518  -0.004223  -0.021671
     4  N   -0.019080  -0.028676   0.366341
     5  C    0.004418  -0.004223  -0.021671
     6  C   -0.000145   0.000040   0.000446
     7  C    0.420651   0.421023  -0.025595
     8  H    0.002031  -0.000517  -0.004262
     9  H   -0.000511   0.001154   0.005235
    10  H   -0.000056   0.001154   0.005235
    11  H    0.000082  -0.000517  -0.004262
    12  H    0.000021  -0.000040   0.002934
    13  H   -0.000019  -0.000006  -0.000031
    14  H    0.000010  -0.000006  -0.000031
    15  H    0.000008  -0.000040   0.002934
    16  H    0.000004  -0.000036   0.000238
    17  H   -0.000001   0.000000  -0.000168
    18  H   -0.022428  -0.023289  -0.005392
    19  H    0.496213  -0.023288  -0.005392
    20  H   -0.023288   0.507474   0.005136
    21  H   -0.005392   0.005136   0.553978
 Mulliken atomic charges:
              1
     1  C   -0.201475
     2  C   -0.223995
     3  C   -0.136666
     4  N    0.005176
     5  C   -0.136667
     6  C   -0.223998
     7  C   -0.198814
     8  H    0.167832
     9  H    0.154120
    10  H    0.154121
    11  H    0.167832
    12  H    0.132359
    13  H    0.160120
    14  H    0.160121
    15  H    0.132358
    16  H    0.127525
    17  H    0.156918
    18  H    0.152891
    19  H    0.152892
    20  H    0.148890
    21  H    0.148459
 Sum of Mulliken atomic charges =   1.00000
 Mulliken charges with hydrogens summed into heavy atoms:
              1
     1  C    0.082969
     2  C    0.068484
     3  C    0.185286
     4  N    0.153635
     5  C    0.185286
     6  C    0.068481
     7  C    0.255859
 Sum of Mulliken charges with hydrogens summed into heavy atoms =   1.00000
 Electronic spatial extent (au):  <R**2>=            824.2135
 Charge=              1.0000 electrons
 Dipole moment (field-independent basis, Debye):
    X=             -2.9627    Y=              0.0000    Z=             -0.6361  Tot=              3.0302
 Quadrupole moment (field-independent basis, Debye-Ang):
   XX=            -29.9120   YY=            -36.4936   ZZ=            -39.5452
   XY=              0.0000   XZ=              0.9015   YZ=              0.0000
 Traceless Quadrupole moment (field-independent basis, Debye-Ang):
   XX=              5.4049   YY=             -1.1766   ZZ=             -4.2283
   XY=              0.0000   XZ=              0.9015   YZ=              0.0000
 Octapole moment (field-independent basis, Debye-Ang**2):
  XXX=            -21.6127  YYY=              0.0001  ZZZ=             -1.8721  XYY=             -1.7774
  XXY=              0.0000  XXZ=             -1.7205  XZZ=             -4.4650  YZZ=              0.0000
  YYZ=              0.0157  XYZ=              0.0000
 Hexadecapole moment (field-independent basis, Debye-Ang**3):
 XXXX=           -546.7682 YYYY=           -310.3153 ZZZZ=            -88.3623 XXXY=              0.0002
 XXXZ=              1.1536 YYYX=              0.0002 YYYZ=             -0.0002 ZZZX=              0.1440
 ZZZY=              0.0000 XXYY=           -147.4357 XXZZ=           -117.1666 YYZZ=            -71.9962
 XXYZ=              0.0001 YYXZ=              5.4959 ZZXY=              0.0000
 N-N= 3.438933489360D+02 E-N=-1.350679264343D+03  KE= 2.891368182025D+02
 1\1\GINC-ROCK\SP\RMP2-FC\CC-pVTZ\C6H14N1(1+)\STYLIANAKIS\21-Mar-2016\0
 \\# mp2/cc-pVTZ\\N_methyl_piperidinium_eq_single_point\\1,1\C\C,1,1.53
 5134\C,2,1.527209,1,111.768\N,3,1.521965,2,110.927,1,55.52,0\C,4,1.521
 963,3,111.381,2,-56.358,0\C,5,1.527209,4,110.927,3,56.358,0\C,4,1.5030
 08,3,112.087,2,177.154,0\H,3,1.092701,4,106.806,5,-179.18,0\H,3,1.0942
 36,4,105.823,5,65.192,0\H,5,1.094234,4,105.823,3,-65.192,0\H,5,1.09270
 1,4,106.807,3,179.179,0\H,2,1.098648,3,109.574,4,-67.138,0\H,2,1.09461
 3,3,107.585,4,177.781,0\H,6,1.094613,5,107.586,4,-177.781,0\H,6,1.0986
 5,5,109.574,4,67.138,0\H,1,1.0976,2,109.762,3,66.953,0\H,1,1.093455,2,
 109.973,3,-175.992,0\H,7,1.090618,4,109.019,3,-177.094,0\H,7,1.090616,
 4,109.019,3,-56.801,0\H,7,1.090482,4,108.557,3,63.053,0\H,4,1.025943,3
 ,106.778,2,59.862,0\\Version=EM64L-G09RevA.01\State=1-A\HF=-289.708934
 4\MP2=-290.9520121\RMSD=5.343e-09\PG=C01 [X(C6H14N1)]\\@


 DEPRESSION IS WAITING FOR YOUR SHIP TO COME IN,
 AND FINDING OUT IT'S THE TITANIC.
 Job cpu time:  0 days  2 hours  5 minutes 43.2 seconds.
 File lengths (MBytes):  RWF=     92 Int=      0 D2E=      0 Chk=      8 Scr=      1
 Normal termination of Gaussian 09 at Mon Mar 21 06:26:20 2016.
