 Entering Gaussian System, Link 0=g09
 Input=N_methylformamide_E.gjf
 Output=N_methylformamide_E.out
 Initial command:
 /usr/local/g09/l1.exe /home/scratch/stylianakis/Gau-23787.inp -scrdir=/home/scratch/stylianakis/
 Entering Link 1 = /usr/local/g09/l1.exe PID=     23788.
  
 Copyright (c) 1988,1990,1992,1993,1995,1998,2003,2009, Gaussian, Inc.
                  All Rights Reserved.
  
 This is part of the Gaussian(R) 09 program.  It is based on
 the Gaussian(R) 03 system (copyright 2003, Gaussian, Inc.),
 the Gaussian(R) 98 system (copyright 1998, Gaussian, Inc.),
 the Gaussian(R) 94 system (copyright 1995, Gaussian, Inc.),
 the Gaussian 92(TM) system (copyright 1992, Gaussian, Inc.),
 the Gaussian 90(TM) system (copyright 1990, Gaussian, Inc.),
 the Gaussian 88(TM) system (copyright 1988, Gaussian, Inc.),
 the Gaussian 86(TM) system (copyright 1986, Carnegie Mellon
 University), and the Gaussian 82(TM) system (copyright 1983,
 Carnegie Mellon University). Gaussian is a federally registered
 trademark of Gaussian, Inc.
  
 This software contains proprietary and confidential information,
 including trade secrets, belonging to Gaussian, Inc.
  
 This software is provided under written license and may be
 used, copied, transmitted, or stored only in accord with that
 written license.
  
 The following legend is applicable only to US Government
 contracts under FAR:
  
                    RESTRICTED RIGHTS LEGEND
  
 Use, reproduction and disclosure by the US Government is
 subject to restrictions as set forth in subparagraphs (a)
 and (c) of the Commercial Computer Software - Restricted
 Rights clause in FAR 52.227-19.
  
 Gaussian, Inc.
 340 Quinnipiac St., Bldg. 40, Wallingford CT 06492
  
  
 ---------------------------------------------------------------
 Warning -- This program may not be used in any manner that
 competes with the business of Gaussian, Inc. or will provide
 assistance to any competitor of Gaussian, Inc.  The licensee
 of this program is prohibited from giving any competitor of
 Gaussian, Inc. access to this program.  By using this program,
 the user acknowledges that Gaussian, Inc. is engaged in the
 business of creating and licensing software in the field of
 computational chemistry and represents and warrants to the
 licensee that it is not a competitor of Gaussian, Inc. and that
 it will not use this program in any manner prohibited above.
 ---------------------------------------------------------------
  

 Cite this work as:
 Gaussian 09, Revision A.01,
 M. J. Frisch, G. W. Trucks, H. B. Schlegel, G. E. Scuseria, 
 M. A. Robb, J. R. Cheeseman, G. Scalmani, V. Barone, B. Mennucci, 
 G. A. Petersson, H. Nakatsuji, M. Caricato, X. Li, H. P. Hratchian, 
 A. F. Izmaylov, J. Bloino, G. Zheng, J. L. Sonnenberg, M. Hada, 
 M. Ehara, K. Toyota, R. Fukuda, J. Hasegawa, M. Ishida, T. Nakajima, 
 Y. Honda, O. Kitao, H. Nakai, T. Vreven, J. A. Montgomery, Jr., 
 J. E. Peralta, F. Ogliaro, M. Bearpark, J. J. Heyd, E. Brothers, 
 K. N. Kudin, V. N. Staroverov, R. Kobayashi, J. Normand, 
 K. Raghavachari, A. Rendell, J. C. Burant, S. S. Iyengar, J. Tomasi, 
 M. Cossi, N. Rega, J. M. Millam, M. Klene, J. E. Knox, J. B. Cross, 
 V. Bakken, C. Adamo, J. Jaramillo, R. Gomperts, R. E. Stratmann, 
 O. Yazyev, A. J. Austin, R. Cammi, C. Pomelli, J. W. Ochterski, 
 R. L. Martin, K. Morokuma, V. G. Zakrzewski, G. A. Voth, 
 P. Salvador, J. J. Dannenberg, S. Dapprich, A. D. Daniels, 
 O. Farkas, J. B. Foresman, J. V. Ortiz, J. Cioslowski, 
 and D. J. Fox, Gaussian, Inc., Wallingford CT, 2009.
 
 ******************************************
 Gaussian 09:  EM64L-G09RevA.01  8-May-2009
                21-Mar-2016 
 ******************************************
 %mem=16000Mb
 %nproc=8
 Will use up to    8 processors via shared memory.
 -------------
 # mp2/cc-pVTZ
 -------------
 1/38=1/1;
 2/12=2,17=6,18=5,40=1/2;
 3/5=16,6=1,11=9,16=1,25=1,30=1/1,2,3;
 4//1;
 5/5=2,38=5/2;
 8/10=1/1;
 9/16=-3/6;
 6/7=2,8=2,9=2,10=2/1;
 99/5=1,9=1/99;
 --------------------------------
 N_methylformamide_E_single_point
 --------------------------------
 Symbolic Z-matrix:
 Charge =  0 Multiplicity = 1
 c
 n                    1    nc2
 c                    2    cn3      1    cnc3
 o                    3    oc4      2    ocn4     1    dih4     0
 h                    2    hn5      3    hnc5     4    dih5     0
 h                    1    hc6      2    hcn6     3    dih6     0
 h                    1    hc7      2    hcn7     3    dih7     0
 h                    1    hc8      2    hcn8     3    dih8     0
 h                    3    hc9      2    hcn9     1    dih9     0
       Variables:
  nc2                   1.45293                  
  cn3                   1.35973                  
  cnc3                125.094                    
  oc4                   1.22261                  
  ocn4                124.913                    
  dih4               -179.952                    
  hn5                   1.01304                  
  hnc5                115.703                    
  dih5                  0.033                    
  hc6                   1.0955                   
  hcn6                111.389                    
  dih6               -119.683                    
  hc7                   1.09313                  
  hcn7                109.037                    
  dih7                 -0.821                    
  hc8                   1.09487                  
  hcn8                111.504                    
  dih8                118.841                    
  hc9                   1.10737                  
  hcn9                112.744                    
  dih9                  0.015                    
 
                          Input orientation:                          
 ---------------------------------------------------------------------
 Center     Atomic      Atomic             Coordinates (Angstroms)
 Number     Number       Type             X           Y           Z
 ---------------------------------------------------------------------
      1          6           0        0.000000    0.000000    0.000000
      2          7           0        0.000000    0.000000    1.452932
      3          6           0        1.112541    0.000000    2.234665
      4          8           0        1.108679   -0.000840    3.457266
      5          1           0       -0.884276   -0.000239    1.947198
      6          1           0       -0.505130    0.886198   -0.399528
      7          1           0        1.033243    0.014807   -0.356557
      8          1           0       -0.491383   -0.892309   -0.401344
      9          1           0        2.049981    0.000267    1.645196
 ---------------------------------------------------------------------
                    Distance matrix (angstroms):
                    1          2          3          4          5
     1  C    0.000000
     2  N    1.452932   0.000000
     3  C    2.496292   1.359726   0.000000
     4  O    3.630683   2.290529   1.222607   0.000000
     5  H    2.138579   1.013036   2.017403   2.500435   0.000000
     6  H    1.095503   2.114737   3.215771   4.273883   2.537054
     7  H    1.093135   2.083762   2.592478   3.814601   2.997398
     8  H    1.094874   2.115659   3.212060   4.271274   2.542794
     9  H    2.628515   2.058977   1.107369   2.041971   2.949757
                    6          7          8          9
     6  H    0.000000
     7  H    1.768548   0.000000
     8  H    1.778561   1.774641   0.000000
     9  H    3.390333   2.245213   3.382831   0.000000
 Stoichiometry    C2H5NO
 Framework group  C1[X(C2H5NO)]
 Deg. of freedom    21
 Full point group                 C1      NOp   1
 Largest Abelian subgroup         C1      NOp   1
 Largest concise Abelian subgroup C1      NOp   1
                         Standard orientation:                         
 ---------------------------------------------------------------------
 Center     Atomic      Atomic             Coordinates (Angstroms)
 Number     Number       Type             X           Y           Z
 ---------------------------------------------------------------------
      1          6           0        1.753156    0.116031    0.000963
      2          7           0        0.397784   -0.407398   -0.000343
      3          6           0       -0.732259    0.348814    0.000245
      4          8           0       -1.871375   -0.095241   -0.000019
      5          1           0        0.255274   -1.410359   -0.001574
      6          1           0        2.308206   -0.210003   -0.885461
      7          1           0        1.713543    1.208367   -0.012324
      8          1           0        2.304199   -0.199024    0.893062
      9          1           0       -0.520091    1.435666    0.001595
 ---------------------------------------------------------------------
 Rotational constants (GHZ):     44.6787295      4.3361761      4.0536503
 Standard basis: CC-pVTZ (5D, 7F)
 There are   190 symmetry adapted basis functions of A   symmetry.
 Integral buffers will be    131072 words long.
 Raffenetti 1 integral format.
 Two-electron integral symmetry is turned on.
   190 basis functions,   293 primitive gaussians,   215 cartesian basis functions
    16 alpha electrons       16 beta electrons
       nuclear repulsion energy       118.8295665196 Hartrees.
 NAtoms=    9 NActive=    9 NUniq=    9 SFac= 7.50D-01 NAtFMM=   80 NAOKFM=F Big=F
 One-electron integrals computed using PRISM.
 NBasis=   190 RedAO= T  NBF=   190
 NBsUse=   190 1.00D-06 NBFU=   190
 Harris functional with IExCor=  205 diagonalized for initial guess.
 ExpMin= 1.03D-01 ExpMax= 1.53D+04 ExpMxC= 5.22D+02 IAcc=1 IRadAn=         1 AccDes= 0.00D+00
 HarFok:  IExCor=  205 AccDes= 0.00D+00 IRadAn=         1 IDoV= 1
 ScaDFX=  1.000000  1.000000  1.000000  1.000000
 FoFCou: FMM=F IPFlag=           0 FMFlag=      100000 FMFlg1=           0
         NFxFlg=           0 DoJE=T BraDBF=F KetDBF=T FulRan=T
         Omega=  0.000000  0.000000  1.000000  0.000000  0.000000 ICntrl=     500 IOpCl=  0
         NMat0=    1 NMatS0=    1 NMatT0=    0 NMatD0=    1 NMtDS0=    0 NMtDT0=    0
         I1Cent=           4 NGrid=           0.
 Petite list used in FoFCou.
 Initial guess orbital symmetries:
       Occupied  (A) (A) (A) (A) (A) (A) (A) (A) (A) (A) (A) (A)
                 (A) (A) (A) (A)
       Virtual   (A) (A) (A) (A) (A) (A) (A) (A) (A) (A) (A) (A)
                 (A) (A) (A) (A) (A) (A) (A) (A) (A) (A) (A) (A)
                 (A) (A) (A) (A) (A) (A) (A) (A) (A) (A) (A) (A)
                 (A) (A) (A) (A) (A) (A) (A) (A) (A) (A) (A) (A)
                 (A) (A) (A) (A) (A) (A) (A) (A) (A) (A) (A) (A)
                 (A) (A) (A) (A) (A) (A) (A) (A) (A) (A) (A) (A)
                 (A) (A) (A) (A) (A) (A) (A) (A) (A) (A) (A) (A)
                 (A) (A) (A) (A) (A) (A) (A) (A) (A) (A) (A) (A)
                 (A) (A) (A) (A) (A) (A) (A) (A) (A) (A) (A) (A)
                 (A) (A) (A) (A) (A) (A) (A) (A) (A) (A) (A) (A)
                 (A) (A) (A) (A) (A) (A) (A) (A) (A) (A) (A) (A)
                 (A) (A) (A) (A) (A) (A) (A) (A) (A) (A) (A) (A)
                 (A) (A) (A) (A) (A) (A) (A) (A) (A) (A) (A) (A)
                 (A) (A) (A) (A) (A) (A) (A) (A) (A) (A) (A) (A)
                 (A) (A) (A) (A) (A) (A)
 The electronic state of the initial guess is 1-A.
 Requested convergence on RMS density matrix=1.00D-08 within 128 cycles.
 Requested convergence on MAX density matrix=1.00D-06.
 Requested convergence on             energy=1.00D-06.
 No special actions if energy rises.
 Keep R1 ints in memory in canonical form, NReq=274794673.
 SCF Done:  E(RHF) =  -208.039019028     A.U. after   13 cycles
             Convg  =    0.3844D-08             -V/T =  2.0019
 ExpMin= 1.03D-01 ExpMax= 1.53D+04 ExpMxC= 5.22D+02 IAcc=1 IRadAn=         1 AccDes= 0.00D+00
 HarFok:  IExCor=  205 AccDes= 0.00D+00 IRadAn=         1 IDoV=-2
 ScaDFX=  1.000000  1.000000  1.000000  1.000000
 Range of M.O.s used for correlation:     5   190
 NBasis=   190 NAE=    16 NBE=    16 NFC=     4 NFV=     0
 NROrb=    186 NOA=    12 NOB=    12 NVA=   174 NVB=   174

 **** Warning!!: The largest alpha MO coefficient is  0.10470389D+02

 Fully in-core method, ICMem=   567006716.
 JobTyp=1 Pass  1 fully in-core, NPsUse=  8.
 Spin components of T(2) and E(2):
     alpha-alpha T2 =       0.2787785763D-01 E2=     -0.9462924268D-01
     alpha-beta  T2 =       0.1626617309D+00 E2=     -0.5884469375D+00
     beta-beta   T2 =       0.2787785763D-01 E2=     -0.9462924268D-01
 ANorm=    0.1103819481D+01
 E2 =    -0.7777054229D+00 EUMP2 =    -0.20881672445104D+03

 **********************************************************************

            Population analysis using the SCF density.

 **********************************************************************

 Orbital symmetries:
       Occupied  (A) (A) (A) (A) (A) (A) (A) (A) (A) (A) (A) (A)
                 (A) (A) (A) (A)
       Virtual   (A) (A) (A) (A) (A) (A) (A) (A) (A) (A) (A) (A)
                 (A) (A) (A) (A) (A) (A) (A) (A) (A) (A) (A) (A)
                 (A) (A) (A) (A) (A) (A) (A) (A) (A) (A) (A) (A)
                 (A) (A) (A) (A) (A) (A) (A) (A) (A) (A) (A) (A)
                 (A) (A) (A) (A) (A) (A) (A) (A) (A) (A) (A) (A)
                 (A) (A) (A) (A) (A) (A) (A) (A) (A) (A) (A) (A)
                 (A) (A) (A) (A) (A) (A) (A) (A) (A) (A) (A) (A)
                 (A) (A) (A) (A) (A) (A) (A) (A) (A) (A) (A) (A)
                 (A) (A) (A) (A) (A) (A) (A) (A) (A) (A) (A) (A)
                 (A) (A) (A) (A) (A) (A) (A) (A) (A) (A) (A) (A)
                 (A) (A) (A) (A) (A) (A) (A) (A) (A) (A) (A) (A)
                 (A) (A) (A) (A) (A) (A) (A) (A) (A) (A) (A) (A)
                 (A) (A) (A) (A) (A) (A) (A) (A) (A) (A) (A) (A)
                 (A) (A) (A) (A) (A) (A) (A) (A) (A) (A) (A) (A)
                 (A) (A) (A) (A) (A) (A)
 The electronic state is 1-A.
 Alpha  occ. eigenvalues --  -20.51829 -15.59215 -11.34913 -11.28249  -1.37223
 Alpha  occ. eigenvalues --   -1.23531  -0.96392  -0.84344  -0.68575  -0.67339
 Alpha  occ. eigenvalues --   -0.63177  -0.58981  -0.56952  -0.53857  -0.42795
 Alpha  occ. eigenvalues --   -0.39362
 Alpha virt. eigenvalues --    0.12937   0.15446   0.18058   0.19037   0.20325
 Alpha virt. eigenvalues --    0.22499   0.27367   0.32716   0.35728   0.36044
 Alpha virt. eigenvalues --    0.42144   0.49157   0.49387   0.52819   0.54363
 Alpha virt. eigenvalues --    0.58017   0.60718   0.60980   0.62682   0.64714
 Alpha virt. eigenvalues --    0.66425   0.68268   0.73132   0.74606   0.77767
 Alpha virt. eigenvalues --    0.81116   0.84194   0.85213   0.92079   0.96327
 Alpha virt. eigenvalues --    0.96488   1.00096   1.03684   1.04879   1.11356
 Alpha virt. eigenvalues --    1.14607   1.16542   1.16617   1.20928   1.23949
 Alpha virt. eigenvalues --    1.26897   1.31410   1.32737   1.34391   1.41722
 Alpha virt. eigenvalues --    1.46177   1.46382   1.48021   1.50819   1.51639
 Alpha virt. eigenvalues --    1.53982   1.61319   1.69243   1.74065   1.77411
 Alpha virt. eigenvalues --    1.81941   1.89803   1.99954   2.02852   2.06002
 Alpha virt. eigenvalues --    2.07554   2.24583   2.27340   2.34166   2.36823
 Alpha virt. eigenvalues --    2.46641   2.51806   2.54258   2.60471   2.76005
 Alpha virt. eigenvalues --    2.85692   2.86954   2.91536   2.96074   2.97919
 Alpha virt. eigenvalues --    2.99806   3.08348   3.08640   3.12127   3.14417
 Alpha virt. eigenvalues --    3.17688   3.21515   3.25148   3.27774   3.29751
 Alpha virt. eigenvalues --    3.30840   3.32028   3.32503   3.35139   3.37712
 Alpha virt. eigenvalues --    3.49602   3.51640   3.55068   3.59095   3.59825
 Alpha virt. eigenvalues --    3.61331   3.66837   3.68452   3.68956   3.72111
 Alpha virt. eigenvalues --    3.74484   3.78212   3.82541   3.86823   3.88406
 Alpha virt. eigenvalues --    3.93387   3.97412   4.02089   4.03249   4.08493
 Alpha virt. eigenvalues --    4.11372   4.12642   4.18489   4.24434   4.25147
 Alpha virt. eigenvalues --    4.27306   4.36202   4.37282   4.39658   4.43211
 Alpha virt. eigenvalues --    4.43265   4.48687   4.55236   4.57748   4.60717
 Alpha virt. eigenvalues --    4.67718   4.77958   4.84275   4.86270   4.88496
 Alpha virt. eigenvalues --    4.97367   4.98802   5.04627   5.10423   5.13937
 Alpha virt. eigenvalues --    5.18601   5.21708   5.25753   5.30652   5.31675
 Alpha virt. eigenvalues --    5.42452   5.47301   5.52326   5.55246   5.56236
 Alpha virt. eigenvalues --    5.64194   5.68085   5.68786   5.71391   5.74764
 Alpha virt. eigenvalues --    5.75846   5.81895   6.03771   6.06138   6.16035
 Alpha virt. eigenvalues --    6.18527   6.21257   6.27338   6.37910   6.44502
 Alpha virt. eigenvalues --    6.54261   6.68613   6.73554   6.91763   6.92629
 Alpha virt. eigenvalues --    7.00540   7.35881   7.47960   7.57220   7.65378
 Alpha virt. eigenvalues --   10.50974  12.90926  13.88521  14.05273
          Condensed to atoms (all electrons):
              1          2          3          4          5          6
     1  C    4.618838   0.343894  -0.041978   0.000889  -0.031982   0.418721
     2  N    0.343894   6.487878   0.384589  -0.125247   0.339942  -0.046669
     3  C   -0.041978   0.384589   4.266270   0.753621  -0.018875   0.001441
     4  O    0.000889  -0.125247   0.753621   7.859156   0.011740  -0.000023
     5  H   -0.031982   0.339942  -0.018875   0.011740   0.501017  -0.003333
     6  H    0.418721  -0.046669   0.001441  -0.000023  -0.003333   0.622445
     7  H    0.417171  -0.032127  -0.007908   0.000018   0.005513  -0.030971
     8  H    0.418902  -0.046933   0.001319  -0.000017  -0.003149  -0.054701
     9  H   -0.010659  -0.099435   0.416129  -0.064250   0.011489  -0.000379
              7          8          9
     1  C    0.417171   0.418902  -0.010659
     2  N   -0.032127  -0.046933  -0.099435
     3  C   -0.007908   0.001319   0.416129
     4  O    0.000018  -0.000017  -0.064250
     5  H    0.005513  -0.003149   0.011489
     6  H   -0.030971  -0.054701  -0.000379
     7  H    0.586224  -0.030807   0.003902
     8  H   -0.030807   0.621950  -0.000389
     9  H    0.003902  -0.000389   0.677324
 Mulliken atomic charges:
              1
     1  C   -0.133797
     2  N   -0.205893
     3  C    0.245393
     4  O   -0.435888
     5  H    0.187637
     6  H    0.093469
     7  H    0.088986
     8  H    0.093826
     9  H    0.066267
 Sum of Mulliken atomic charges =   0.00000
 Mulliken charges with hydrogens summed into heavy atoms:
              1
     1  C    0.142484
     2  N   -0.018256
     3  C    0.311661
     4  O   -0.435888
 Sum of Mulliken charges with hydrogens summed into heavy atoms =   0.00000
 Electronic spatial extent (au):  <R**2>=            320.8233
 Charge=              0.0000 electrons
 Dipole moment (field-independent basis, Debye):
    X=              4.5225    Y=              0.4399    Z=             -0.0021  Tot=              4.5439
 Quadrupole moment (field-independent basis, Debye-Ang):
   XX=            -30.6187   YY=            -21.0301   ZZ=            -24.8521
   XY=             -1.1602   XZ=             -0.0042   YZ=             -0.0064
 Traceless Quadrupole moment (field-independent basis, Debye-Ang):
   XX=             -5.1184   YY=              4.4702   ZZ=              0.6482
   XY=             -1.1602   XZ=             -0.0042   YZ=             -0.0064
 Octapole moment (field-independent basis, Debye-Ang**2):
  XXX=             17.9837  YYY=             -3.0819  ZZZ=              0.0127  XYY=             -0.4944
  XXY=              0.6767  XXZ=             -0.0042  XZZ=             -0.7063  YZZ=             -0.4192
  YYZ=             -0.0247  XYZ=             -0.0172
 Hexadecapole moment (field-independent basis, Debye-Ang**3):
 XXXX=           -346.1646 YYYY=            -44.2134 ZZZZ=            -29.7240 XXXY=             -1.1376
 XXXZ=             -0.0099 YYYX=             -0.9260 YYYZ=             -0.0189 ZZZX=              0.0282
 ZZZY=             -0.0035 XXYY=            -62.4518 XXZZ=            -56.0140 YYZZ=            -14.7100
 XXYZ=             -0.0252 YYXZ=             -0.0409 ZZXY=             -0.9680
 N-N= 1.188295665196D+02 E-N=-7.260405336610D+02  KE= 2.076380458947D+02
 1\1\GINC-ROCK\SP\RMP2-FC\CC-pVTZ\C2H5N1O1\STYLIANAKIS\21-Mar-2016\0\\#
  mp2/cc-pVTZ\\N_methylformamide_E_single_point\\0,1\C\N,1,1.452932\C,2
 ,1.359726,1,125.094\O,3,1.222607,2,124.913,1,-179.952,0\H,2,1.013036,3
 ,115.703,4,0.033,0\H,1,1.095503,2,111.389,3,-119.683,0\H,1,1.093135,2,
 109.037,3,-0.821,0\H,1,1.094874,2,111.504,3,118.841,0\H,3,1.107369,2,1
 12.744,1,0.015,0\\Version=EM64L-G09RevA.01\State=1-A\HF=-208.039019\MP
 2=-208.8167245\RMSD=3.844e-09\PG=C01 [X(C2H5N1O1)]\\@


 TERENCE, THIS IS STUPID STUFF:
 YOU EAT YOUR VICTUALS FAST ENOUGH;
 THERE CAN'T BE MUCH AMISS, 'TIS CLEAR
 TO SEE THE RATE YOU DRINK YOUR BEER.
 BUT OH, GOOD LORD, THE VERSE YOU MAKE,
 IT GIVES A CHAP THE BELLY-ACHE.
 THE COW, THE OLD COW, SHE IS DEAD;
 IT SLEEPS WELL, THE HORNED HEAD:
 WE POOR LADS, 'TIS OUR TURN NOW
 TO HEAR SUCH TUNES AS KILLED THE COW.
 PRETTY FRIENDSHIP 'TIS TO RHYME
 YOUR FRIENDS TO DEATH BEFORE THEIR TIME.
 MOPING, MELANCHOLY MAD:
 COME PIPE A TUNE TO DANCE TO, LAD.

     -- A. E. HOUSMAN
 Job cpu time:  0 days  0 hours 11 minutes 26.9 seconds.
 File lengths (MBytes):  RWF=     16 Int=      0 D2E=      0 Chk=      3 Scr=      1
 Normal termination of Gaussian 09 at Mon Mar 21 06:05:16 2016.
