 Entering Gaussian System, Link 0=g09
 Input=N_Me_piperidine_ax.gjf
 Output=N_Me_piperidine_ax.out
 Initial command:
 /usr/local/g09/l1.exe /home/scratch/stylianakis/Gau-22796.inp -scrdir=/home/scratch/stylianakis/
 Entering Link 1 = /usr/local/g09/l1.exe PID=     22797.
  
 Copyright (c) 1988,1990,1992,1993,1995,1998,2003,2009, Gaussian, Inc.
                  All Rights Reserved.
  
 This is part of the Gaussian(R) 09 program.  It is based on
 the Gaussian(R) 03 system (copyright 2003, Gaussian, Inc.),
 the Gaussian(R) 98 system (copyright 1998, Gaussian, Inc.),
 the Gaussian(R) 94 system (copyright 1995, Gaussian, Inc.),
 the Gaussian 92(TM) system (copyright 1992, Gaussian, Inc.),
 the Gaussian 90(TM) system (copyright 1990, Gaussian, Inc.),
 the Gaussian 88(TM) system (copyright 1988, Gaussian, Inc.),
 the Gaussian 86(TM) system (copyright 1986, Carnegie Mellon
 University), and the Gaussian 82(TM) system (copyright 1983,
 Carnegie Mellon University). Gaussian is a federally registered
 trademark of Gaussian, Inc.
  
 This software contains proprietary and confidential information,
 including trade secrets, belonging to Gaussian, Inc.
  
 This software is provided under written license and may be
 used, copied, transmitted, or stored only in accord with that
 written license.
  
 The following legend is applicable only to US Government
 contracts under FAR:
  
                    RESTRICTED RIGHTS LEGEND
  
 Use, reproduction and disclosure by the US Government is
 subject to restrictions as set forth in subparagraphs (a)
 and (c) of the Commercial Computer Software - Restricted
 Rights clause in FAR 52.227-19.
  
 Gaussian, Inc.
 340 Quinnipiac St., Bldg. 40, Wallingford CT 06492
  
  
 ---------------------------------------------------------------
 Warning -- This program may not be used in any manner that
 competes with the business of Gaussian, Inc. or will provide
 assistance to any competitor of Gaussian, Inc.  The licensee
 of this program is prohibited from giving any competitor of
 Gaussian, Inc. access to this program.  By using this program,
 the user acknowledges that Gaussian, Inc. is engaged in the
 business of creating and licensing software in the field of
 computational chemistry and represents and warrants to the
 licensee that it is not a competitor of Gaussian, Inc. and that
 it will not use this program in any manner prohibited above.
 ---------------------------------------------------------------
  

 Cite this work as:
 Gaussian 09, Revision A.01,
 M. J. Frisch, G. W. Trucks, H. B. Schlegel, G. E. Scuseria, 
 M. A. Robb, J. R. Cheeseman, G. Scalmani, V. Barone, B. Mennucci, 
 G. A. Petersson, H. Nakatsuji, M. Caricato, X. Li, H. P. Hratchian, 
 A. F. Izmaylov, J. Bloino, G. Zheng, J. L. Sonnenberg, M. Hada, 
 M. Ehara, K. Toyota, R. Fukuda, J. Hasegawa, M. Ishida, T. Nakajima, 
 Y. Honda, O. Kitao, H. Nakai, T. Vreven, J. A. Montgomery, Jr., 
 J. E. Peralta, F. Ogliaro, M. Bearpark, J. J. Heyd, E. Brothers, 
 K. N. Kudin, V. N. Staroverov, R. Kobayashi, J. Normand, 
 K. Raghavachari, A. Rendell, J. C. Burant, S. S. Iyengar, J. Tomasi, 
 M. Cossi, N. Rega, J. M. Millam, M. Klene, J. E. Knox, J. B. Cross, 
 V. Bakken, C. Adamo, J. Jaramillo, R. Gomperts, R. E. Stratmann, 
 O. Yazyev, A. J. Austin, R. Cammi, C. Pomelli, J. W. Ochterski, 
 R. L. Martin, K. Morokuma, V. G. Zakrzewski, G. A. Voth, 
 P. Salvador, J. J. Dannenberg, S. Dapprich, A. D. Daniels, 
 O. Farkas, J. B. Foresman, J. V. Ortiz, J. Cioslowski, 
 and D. J. Fox, Gaussian, Inc., Wallingford CT, 2009.
 
 ******************************************
 Gaussian 09:  EM64L-G09RevA.01  8-May-2009
                21-Mar-2016 
 ******************************************
 %mem=16000Mb
 %nproc=8
 Will use up to    8 processors via shared memory.
 -------------
 # mp2/cc-pVTZ
 -------------
 1/38=1/1;
 2/12=2,17=6,18=5,40=1/2;
 3/5=16,6=1,11=9,16=1,25=1,30=1/1,2,3;
 4//1;
 5/5=2,38=5/2;
 8/10=1/1;
 9/16=-3/6;
 6/7=2,8=2,9=2,10=2/1;
 99/5=1,9=1/99;
 -------------------------------
 N_Me_piperidine_ax_single_point
 -------------------------------
 Symbolic Z-matrix:
 Charge =  0 Multiplicity = 1
 c
 c                    1    cc2
 c                    2    cc3      1    ccc3
 n                    3    nc4      2    ncc4     1    dih4     0
 c                    4    cn5      3    cnc5     2    dih5     0
 c                    5    cc6      4    ccn6     3    dih6     0
 c                    4    cn7      3    cnc7     2    dih7     0
 h                    3    hc8      4    hcn8     5    dih8     0
 h                    3    hc9      4    hcn9     5    dih9     0
 h                    5    hc10     4    hcn10    3    dih10    0
 h                    5    hc11     4    hcn11    3    dih11    0
 h                    2    hc12     3    hcc12    4    dih12    0
 h                    2    hc13     3    hcc13    4    dih13    0
 h                    6    hc14     5    hcc14    4    dih14    0
 h                    6    hc15     5    hcc15    4    dih15    0
 h                    1    hc16     2    hcc16    3    dih16    0
 h                    1    hc17     2    hcc17    3    dih17    0
 h                    7    hc18     4    hcn18    3    dih18    0
 h                    7    hc19     4    hcn19    3    dih19    0
 h                    7    hc20     4    hcn20    3    dih20    0
       Variables:
  cc2                   1.53829                  
  cc3                   1.54145                  
  ccc3                110.448                    
  nc4                   1.46831                  
  ncc4                114.313                    
  dih4                 54.198                    
  cn5                   1.46832                  
  cnc5                110.981                    
  dih5                -54.02                     
  cc6                   1.54145                  
  ccn6                114.313                    
  dih6                 54.019                    
  cn7                   1.45933                  
  cnc7                113.969                    
  dih7                 76.269                    
  hc8                   1.09617                  
  hcn8                108.36                     
  dih8               -178.153                    
  hc9                   1.10005                  
  hcn9                107.369                    
  dih9                 66.738                    
  hc10                  1.10004                  
  hcn10               107.369                    
  dih10               -66.739                    
  hc11                  1.09617                  
  hcn11               108.359                    
  dih11               178.152                    
  hc12                  1.09848                  
  hcc12               109.888                    
  dih12               -66.885                    
  hc13                  1.09766                  
  hcc13               109.547                    
  dih13               176.344                    
  hc14                  1.09766                  
  hcc14               109.547                    
  dih14              -176.345                    
  hc15                  1.09849                  
  hcc15               109.888                    
  dih15                66.886                    
  hc16                  1.10053                  
  hcc16               109.008                    
  dih16                67.246                    
  hc17                  1.09678                  
  hcc17               110.739                    
  dih17              -175.85                     
  hc18                  1.0954                   
  hcn18               109.15                     
  dih18                56.868                    
  hc19                  1.0954                   
  hcn19               109.15                     
  dih19               174.342                    
  hc20                  1.10505                  
  hcn20               115.289                    
  dih20               -64.395                    
 
                          Input orientation:                          
 ---------------------------------------------------------------------
 Center     Atomic      Atomic             Coordinates (Angstroms)
 Number     Number       Type             X           Y           Z
 ---------------------------------------------------------------------
      1          6           0        0.000000    0.000000    0.000000
      2          6           0        0.000000    0.000000    1.538285
      3          6           0        1.444326    0.000000    2.076803
      4          7           0        2.284232    1.085245    1.554562
      5          6           0        2.279326    1.093793    0.086274
      6          6           0        0.873243    1.143859   -0.543398
      7          6           0        2.012674    2.386888    2.155906
      8          1           0        1.452170    0.053629    3.171630
      9          1           0        1.925409   -0.949786    1.800096
     10          1           0        2.785058    0.176285   -0.249154
     11          1           0        2.890065    1.937204   -0.256123
     12          1           0       -0.536452    0.884657    1.907433
     13          1           0       -0.536392   -0.875818    1.925682
     14          1           0        0.957701    1.081329   -1.636014
     15          1           0        0.398125    2.108874   -0.320501
     16          1           0        0.402448   -0.959542   -0.358443
     17          1           0       -1.023022    0.074229   -0.388382
     18          1           0        2.134633    2.313432    3.242010
     19          1           0        2.745042    3.113054    1.786834
     20          1           0        1.005660    2.797068    1.958883
 ---------------------------------------------------------------------
                    Distance matrix (angstroms):
                    1          2          3          4          5
     1  C    0.000000
     2  C    1.538285   0.000000
     3  C    2.529662   1.541454   0.000000
     4  N    2.968524   2.528980   1.468310   0.000000
     5  C    2.529655   2.915484   2.419879   1.468321   0.000000
     6  C    1.538261   2.530686   2.915476   2.528985   1.541449
     7  C    3.794209   3.182695   2.454896   1.459326   2.454908
     8  H    3.488683   2.186204   1.096168   2.090806   3.359397
     9  H    2.801721   2.162831   1.100046   2.080960   2.690476
    10  H    2.801732   3.313995   2.690486   2.080968   1.100044
    11  H    3.488672   3.914733   3.359385   2.090801   1.096166
    12  H    2.169954   1.098485   2.175957   2.849739   3.359906
    13  H    2.182436   1.097657   2.170977   3.455347   3.897571
    14  H    2.182431   3.487498   3.897575   3.455355   2.170974
    15  H    2.169924   2.839179   3.359904   2.849751   2.175954
    16  H    1.100530   2.163391   2.817207   3.373700   2.817203
    17  H    1.096779   2.182689   3.488618   3.966751   3.488598
    18  H    4.518767   3.579288   2.680708   2.092439   3.386314
    19  H    4.518754   4.157900   3.386303   2.092439   2.680711
    20  H    3.559798   3.001973   2.833711   2.174525   2.833732
                    6          7          8          9         10
     6  C    0.000000
     7  C    3.182714   0.000000
     8  H    3.914740   2.605755   0.000000
     9  H    3.313966   3.356726   1.764059   0.000000
    10  H    2.162826   3.356733   3.673336   2.491277   0.000000
    11  H    2.186206   2.605747   4.167121   3.673324   1.764061
    12  H    2.839190   2.969256   2.498683   3.072046   4.023069
    13  H    3.487481   4.146806   2.524012   2.466113   4.107173
    14  H    1.097658   4.146819   4.941064   4.107157   2.466114
    15  H    1.098487   2.969285   4.186887   4.023050   3.072041
    16  H    2.163366   4.484793   3.819666   2.641741   2.641756
    17  H    2.182649   4.586638   4.335976   3.811993   3.811990
    18  H    4.157923   1.095396   2.361656   3.573721   4.144717
    19  H    3.579294   1.095396   3.598508   4.144712   3.573718
    20  H    3.002007   1.105053   3.032587   3.861355   3.861371
                   11         12         13         14         15
    11  H    0.000000
    12  H    4.186867   0.000000
    13  H    4.941051   1.760570   0.000000
    14  H    2.524015   3.850609   4.329945   0.000000
    15  H    2.498676   2.708474   3.850590   1.760553   0.000000
    16  H    3.819666   3.068680   2.470963   2.470961   3.068653
    17  H    4.335945   2.482803   2.548390   2.548353   2.482750
    18  H    3.598495   3.310164   4.363303   5.167046   3.968475
    19  H    2.361637   3.968438   5.167029   4.363300   3.310176
    20  H    3.032590   2.457249   3.983606   3.983635   2.457296
                   16         17         18         19         20
    16  H    0.000000
    17  H    1.761120   0.000000
    18  H    5.164889   5.307030   0.000000
    19  H    5.164881   5.307008   1.769048   0.000000
    20  H    4.454883   4.127839   1.776203   1.776203   0.000000
 Stoichiometry    C6H13N
 Framework group  C1[X(C6H13N)]
 Deg. of freedom    54
 Full point group                 C1      NOp   1
 Largest Abelian subgroup         C1      NOp   1
 Largest concise Abelian subgroup C1      NOp   1
                         Standard orientation:                         
 ---------------------------------------------------------------------
 Center     Atomic      Atomic             Coordinates (Angstroms)
 Number     Number       Type             X           Y           Z
 ---------------------------------------------------------------------
      1          6           0       -1.797594    0.000018   -0.162698
      2          6           0       -0.937390    1.265359   -0.321700
      3          6           0        0.281324    1.209930    0.620501
      4          7           0        1.100915   -0.000014    0.478226
      5          6           0        0.281289   -1.209949    0.620487
      6          6           0       -0.937436   -1.265327   -0.321694
      7          6           0        1.957960   -0.000014   -0.702920
      8          1           0        0.927095    2.083551    0.474381
      9          1           0       -0.073664    1.245622    1.661082
     10          1           0       -0.073684   -1.245655    1.661071
     11          1           0        0.927050   -2.083570    0.474337
     12          1           0       -0.600575    1.354251   -1.363488
     13          1           0       -1.528016    2.164989   -0.105648
     14          1           0       -1.528072   -2.164956   -0.105665
     15          1           0       -0.600638   -1.354223   -1.363490
     16          1           0       -2.253442    0.000021    0.838985
     17          1           0       -2.625163    0.000012   -0.882458
     18          1           0        2.603660    0.884497   -0.678363
     19          1           0        2.603626   -0.884551   -0.678388
     20          1           0        1.426506    0.000010   -1.671785
 ---------------------------------------------------------------------
 Rotational constants (GHZ):      3.7089134      2.5803664      1.9443993
 Standard basis: CC-pVTZ (5D, 7F)
 There are   392 symmetry adapted basis functions of A   symmetry.
 Integral buffers will be    131072 words long.
 Raffenetti 1 integral format.
 Two-electron integral symmetry is turned on.
   392 basis functions,   585 primitive gaussians,   440 cartesian basis functions
    28 alpha electrons       28 beta electrons
       nuclear repulsion energy       336.6227284472 Hartrees.
 NAtoms=   20 NActive=   20 NUniq=   20 SFac= 7.50D-01 NAtFMM=   80 NAOKFM=F Big=F
 One-electron integrals computed using PRISM.
 NBasis=   392 RedAO= T  NBF=   392
 NBsUse=   392 1.00D-06 NBFU=   392
 Harris functional with IExCor=  205 diagonalized for initial guess.
 ExpMin= 1.03D-01 ExpMax= 1.14D+04 ExpMxC= 3.89D+02 IAcc=1 IRadAn=         1 AccDes= 0.00D+00
 HarFok:  IExCor=  205 AccDes= 0.00D+00 IRadAn=         1 IDoV= 1
 ScaDFX=  1.000000  1.000000  1.000000  1.000000
 FoFCou: FMM=F IPFlag=           0 FMFlag=      100000 FMFlg1=           0
         NFxFlg=           0 DoJE=T BraDBF=F KetDBF=T FulRan=T
         Omega=  0.000000  0.000000  1.000000  0.000000  0.000000 ICntrl=     500 IOpCl=  0
         NMat0=    1 NMatS0=    1 NMatT0=    0 NMatD0=    1 NMtDS0=    0 NMtDT0=    0
         I1Cent=           4 NGrid=           0.
 Petite list used in FoFCou.
 Initial guess orbital symmetries:
       Occupied  (A) (A) (A) (A) (A) (A) (A) (A) (A) (A) (A) (A)
                 (A) (A) (A) (A) (A) (A) (A) (A) (A) (A) (A) (A)
                 (A) (A) (A) (A)
       Virtual   (A) (A) (A) (A) (A) (A) (A) (A) (A) (A) (A) (A)
                 (A) (A) (A) (A) (A) (A) (A) (A) (A) (A) (A) (A)
                 (A) (A) (A) (A) (A) (A) (A) (A) (A) (A) (A) (A)
                 (A) (A) (A) (A) (A) (A) (A) (A) (A) (A) (A) (A)
                 (A) (A) (A) (A) (A) (A) (A) (A) (A) (A) (A) (A)
                 (A) (A) (A) (A) (A) (A) (A) (A) (A) (A) (A) (A)
                 (A) (A) (A) (A) (A) (A) (A) (A) (A) (A) (A) (A)
                 (A) (A) (A) (A) (A) (A) (A) (A) (A) (A) (A) (A)
                 (A) (A) (A) (A) (A) (A) (A) (A) (A) (A) (A) (A)
                 (A) (A) (A) (A) (A) (A) (A) (A) (A) (A) (A) (A)
                 (A) (A) (A) (A) (A) (A) (A) (A) (A) (A) (A) (A)
                 (A) (A) (A) (A) (A) (A) (A) (A) (A) (A) (A) (A)
                 (A) (A) (A) (A) (A) (A) (A) (A) (A) (A) (A) (A)
                 (A) (A) (A) (A) (A) (A) (A) (A) (A) (A) (A) (A)
                 (A) (A) (A) (A) (A) (A) (A) (A) (A) (A) (A) (A)
                 (A) (A) (A) (A) (A) (A) (A) (A) (A) (A) (A) (A)
                 (A) (A) (A) (A) (A) (A) (A) (A) (A) (A) (A) (A)
                 (A) (A) (A) (A) (A) (A) (A) (A) (A) (A) (A) (A)
                 (A) (A) (A) (A) (A) (A) (A) (A) (A) (A) (A) (A)
                 (A) (A) (A) (A) (A) (A) (A) (A) (A) (A) (A) (A)
                 (A) (A) (A) (A) (A) (A) (A) (A) (A) (A) (A) (A)
                 (A) (A) (A) (A) (A) (A) (A) (A) (A) (A) (A) (A)
                 (A) (A) (A) (A) (A) (A) (A) (A) (A) (A) (A) (A)
                 (A) (A) (A) (A) (A) (A) (A) (A) (A) (A) (A) (A)
                 (A) (A) (A) (A) (A) (A) (A) (A) (A) (A) (A) (A)
                 (A) (A) (A) (A) (A) (A) (A) (A) (A) (A) (A) (A)
                 (A) (A) (A) (A) (A) (A) (A) (A) (A) (A) (A) (A)
                 (A) (A) (A) (A) (A) (A) (A) (A) (A) (A) (A) (A)
                 (A) (A) (A) (A) (A) (A) (A) (A) (A) (A) (A) (A)
                 (A) (A) (A) (A) (A) (A) (A) (A) (A) (A) (A) (A)
                 (A) (A) (A) (A)
 The electronic state of the initial guess is 1-A.
 Requested convergence on RMS density matrix=1.00D-08 within 128 cycles.
 Requested convergence on MAX density matrix=1.00D-06.
 Requested convergence on             energy=1.00D-06.
 No special actions if energy rises.
 Integral accuracy reduced to 1.0D-05 until final iterations.
 Initial convergence to 1.0D-05 achieved.  Increase integral accuracy.
 SCF Done:  E(RHF) =  -289.310081738     A.U. after   11 cycles
             Convg  =    0.9895D-08             -V/T =  2.0019
 ExpMin= 1.03D-01 ExpMax= 1.14D+04 ExpMxC= 3.89D+02 IAcc=1 IRadAn=         1 AccDes= 0.00D+00
 HarFok:  IExCor=  205 AccDes= 0.00D+00 IRadAn=         1 IDoV=-2
 ScaDFX=  1.000000  1.000000  1.000000  1.000000
 Range of M.O.s used for correlation:     8   392
 NBasis=   392 NAE=    28 NBE=    28 NFC=     7 NFV=     0
 NROrb=    385 NOA=    21 NOB=    21 NVA=   364 NVB=   364

 **** Warning!!: The largest alpha MO coefficient is  0.11709901D+02

 Fully direct method using O(OVN) memory.
 JobTyp=1 Pass  1:  I=   1 to  21 NPSUse=  8 ParTrn=T ParDer=T DoDerP=F.
 Spin components of T(2) and E(2):
     alpha-alpha T2 =       0.4745338260D-01 E2=     -0.1441358398D+00
     alpha-beta  T2 =       0.2885952483D+00 E2=     -0.9653643358D+00
     beta-beta   T2 =       0.4745338260D-01 E2=     -0.1441358398D+00
 ANorm=    0.1176223624D+01
 E2 =    -0.1253636015D+01 EUMP2 =    -0.29056371775315D+03

 **********************************************************************

            Population analysis using the SCF density.

 **********************************************************************

 Orbital symmetries:
       Occupied  (A) (A) (A) (A) (A) (A) (A) (A) (A) (A) (A) (A)
                 (A) (A) (A) (A) (A) (A) (A) (A) (A) (A) (A) (A)
                 (A) (A) (A) (A)
       Virtual   (A) (A) (A) (A) (A) (A) (A) (A) (A) (A) (A) (A)
                 (A) (A) (A) (A) (A) (A) (A) (A) (A) (A) (A) (A)
                 (A) (A) (A) (A) (A) (A) (A) (A) (A) (A) (A) (A)
                 (A) (A) (A) (A) (A) (A) (A) (A) (A) (A) (A) (A)
                 (A) (A) (A) (A) (A) (A) (A) (A) (A) (A) (A) (A)
                 (A) (A) (A) (A) (A) (A) (A) (A) (A) (A) (A) (A)
                 (A) (A) (A) (A) (A) (A) (A) (A) (A) (A) (A) (A)
                 (A) (A) (A) (A) (A) (A) (A) (A) (A) (A) (A) (A)
                 (A) (A) (A) (A) (A) (A) (A) (A) (A) (A) (A) (A)
                 (A) (A) (A) (A) (A) (A) (A) (A) (A) (A) (A) (A)
                 (A) (A) (A) (A) (A) (A) (A) (A) (A) (A) (A) (A)
                 (A) (A) (A) (A) (A) (A) (A) (A) (A) (A) (A) (A)
                 (A) (A) (A) (A) (A) (A) (A) (A) (A) (A) (A) (A)
                 (A) (A) (A) (A) (A) (A) (A) (A) (A) (A) (A) (A)
                 (A) (A) (A) (A) (A) (A) (A) (A) (A) (A) (A) (A)
                 (A) (A) (A) (A) (A) (A) (A) (A) (A) (A) (A) (A)
                 (A) (A) (A) (A) (A) (A) (A) (A) (A) (A) (A) (A)
                 (A) (A) (A) (A) (A) (A) (A) (A) (A) (A) (A) (A)
                 (A) (A) (A) (A) (A) (A) (A) (A) (A) (A) (A) (A)
                 (A) (A) (A) (A) (A) (A) (A) (A) (A) (A) (A) (A)
                 (A) (A) (A) (A) (A) (A) (A) (A) (A) (A) (A) (A)
                 (A) (A) (A) (A) (A) (A) (A) (A) (A) (A) (A) (A)
                 (A) (A) (A) (A) (A) (A) (A) (A) (A) (A) (A) (A)
                 (A) (A) (A) (A) (A) (A) (A) (A) (A) (A) (A) (A)
                 (A) (A) (A) (A) (A) (A) (A) (A) (A) (A) (A) (A)
                 (A) (A) (A) (A) (A) (A) (A) (A) (A) (A) (A) (A)
                 (A) (A) (A) (A) (A) (A) (A) (A) (A) (A) (A) (A)
                 (A) (A) (A) (A) (A) (A) (A) (A) (A) (A) (A) (A)
                 (A) (A) (A) (A) (A) (A) (A) (A) (A) (A) (A) (A)
                 (A) (A) (A) (A) (A) (A) (A) (A) (A) (A) (A) (A)
                 (A) (A) (A) (A)
 The electronic state is 1-A.
 Alpha  occ. eigenvalues --  -15.53573 -11.24153 -11.24151 -11.23800 -11.21810
 Alpha  occ. eigenvalues --  -11.21533 -11.21526  -1.21857  -1.05934  -1.00613
 Alpha  occ. eigenvalues --   -0.93542  -0.84242  -0.83150  -0.74486  -0.65433
 Alpha  occ. eigenvalues --   -0.62788  -0.61135  -0.59975  -0.56705  -0.56039
 Alpha  occ. eigenvalues --   -0.52662  -0.50937  -0.50047  -0.48265  -0.48009
 Alpha  occ. eigenvalues --   -0.45217  -0.44228  -0.33477
 Alpha virt. eigenvalues --    0.13739   0.15877   0.16791   0.16904   0.19836
 Alpha virt. eigenvalues --    0.19879   0.21254   0.22083   0.22154   0.24411
 Alpha virt. eigenvalues --    0.24522   0.27077   0.27564   0.28202   0.32101
 Alpha virt. eigenvalues --    0.34283   0.36356   0.37575   0.37950   0.38784
 Alpha virt. eigenvalues --    0.39569   0.41310   0.42573   0.43281   0.46491
 Alpha virt. eigenvalues --    0.49633   0.50184   0.51811   0.52204   0.55153
 Alpha virt. eigenvalues --    0.57253   0.57935   0.59395   0.59974   0.60521
 Alpha virt. eigenvalues --    0.61442   0.62059   0.62572   0.63396   0.64631
 Alpha virt. eigenvalues --    0.65344   0.65505   0.65771   0.66596   0.66998
 Alpha virt. eigenvalues --    0.69142   0.69534   0.69700   0.70532   0.71889
 Alpha virt. eigenvalues --    0.78028   0.78662   0.79999   0.81990   0.83694
 Alpha virt. eigenvalues --    0.85393   0.91038   0.92636   0.93437   0.95039
 Alpha virt. eigenvalues --    0.97720   0.98429   1.00155   1.02625   1.04347
 Alpha virt. eigenvalues --    1.07485   1.09629   1.10787   1.12234   1.12640
 Alpha virt. eigenvalues --    1.15601   1.18005   1.18661   1.18960   1.20730
 Alpha virt. eigenvalues --    1.20784   1.22630   1.24963   1.26119   1.26786
 Alpha virt. eigenvalues --    1.27996   1.29672   1.30109   1.32170   1.32428
 Alpha virt. eigenvalues --    1.32963   1.34105   1.36456   1.36893   1.37236
 Alpha virt. eigenvalues --    1.38659   1.39504   1.43374   1.43507   1.45533
 Alpha virt. eigenvalues --    1.46514   1.47243   1.47684   1.49653   1.50263
 Alpha virt. eigenvalues --    1.50396   1.54024   1.54275   1.55988   1.56618
 Alpha virt. eigenvalues --    1.56806   1.57613   1.58716   1.61541   1.62182
 Alpha virt. eigenvalues --    1.62583   1.65814   1.68615   1.70475   1.70731
 Alpha virt. eigenvalues --    1.71540   1.71594   1.76509   1.76906   1.78057
 Alpha virt. eigenvalues --    1.79246   1.81415   1.84050   1.86847   1.87755
 Alpha virt. eigenvalues --    1.90025   1.91369   1.93062   1.99765   2.04448
 Alpha virt. eigenvalues --    2.13516   2.15889   2.23259   2.26244   2.31418
 Alpha virt. eigenvalues --    2.54970   2.58652   2.62539   2.64205   2.67547
 Alpha virt. eigenvalues --    2.67861   2.71431   2.75296   2.76876   2.80012
 Alpha virt. eigenvalues --    2.81084   2.81606   2.85027   2.86312   2.86857
 Alpha virt. eigenvalues --    2.88664   2.91849   2.92070   2.93835   2.93849
 Alpha virt. eigenvalues --    2.95365   2.97586   2.99912   3.01243   3.02721
 Alpha virt. eigenvalues --    3.03171   3.05019   3.05088   3.06041   3.07965
 Alpha virt. eigenvalues --    3.08826   3.11826   3.12697   3.16607   3.19458
 Alpha virt. eigenvalues --    3.21157   3.21439   3.21955   3.24299   3.25349
 Alpha virt. eigenvalues --    3.25809   3.27732   3.30487   3.31723   3.32470
 Alpha virt. eigenvalues --    3.33013   3.34560   3.35317   3.36218   3.39705
 Alpha virt. eigenvalues --    3.40011   3.42599   3.42721   3.44312   3.44401
 Alpha virt. eigenvalues --    3.46436   3.46927   3.47864   3.48687   3.50307
 Alpha virt. eigenvalues --    3.50938   3.52743   3.52880   3.53733   3.54562
 Alpha virt. eigenvalues --    3.56950   3.59491   3.59812   3.61722   3.64370
 Alpha virt. eigenvalues --    3.65174   3.66188   3.67267   3.70484   3.71602
 Alpha virt. eigenvalues --    3.72342   3.74117   3.74581   3.76601   3.77240
 Alpha virt. eigenvalues --    3.79900   3.80146   3.81160   3.81344   3.82842
 Alpha virt. eigenvalues --    3.87900   3.90214   3.91945   3.93441   3.93669
 Alpha virt. eigenvalues --    3.94604   3.94882   3.97285   3.98928   4.00369
 Alpha virt. eigenvalues --    4.00634   4.03111   4.04017   4.07139   4.07218
 Alpha virt. eigenvalues --    4.09370   4.09485   4.09957   4.12073   4.13133
 Alpha virt. eigenvalues --    4.14130   4.15723   4.16968   4.18149   4.19108
 Alpha virt. eigenvalues --    4.24044   4.24561   4.26354   4.26699   4.27033
 Alpha virt. eigenvalues --    4.29529   4.30084   4.32292   4.32908   4.33962
 Alpha virt. eigenvalues --    4.34522   4.35740   4.36630   4.40768   4.41843
 Alpha virt. eigenvalues --    4.43418   4.43886   4.45300   4.45996   4.48025
 Alpha virt. eigenvalues --    4.48938   4.51229   4.52887   4.53514   4.54217
 Alpha virt. eigenvalues --    4.55402   4.56321   4.57512   4.58404   4.59717
 Alpha virt. eigenvalues --    4.64104   4.66627   4.67927   4.68030   4.69016
 Alpha virt. eigenvalues --    4.71322   4.73690   4.75119   4.76902   4.77119
 Alpha virt. eigenvalues --    4.78728   4.78908   4.81270   4.82224   4.88863
 Alpha virt. eigenvalues --    4.93305   4.93758   4.97193   4.99698   5.03635
 Alpha virt. eigenvalues --    5.08461   5.10798   5.12177   5.14921   5.17251
 Alpha virt. eigenvalues --    5.19462   5.20192   5.21192   5.22655   5.26025
 Alpha virt. eigenvalues --    5.27493   5.28871   5.31081   5.32113   5.32139
 Alpha virt. eigenvalues --    5.37846   5.38324   5.41562   5.41892   5.41930
 Alpha virt. eigenvalues --    5.42482   5.48046   5.48254   5.52935   5.55766
 Alpha virt. eigenvalues --    5.55776   5.57880   5.59024   5.60678   5.62494
 Alpha virt. eigenvalues --    5.64113   5.67915   5.70321   5.74214   5.75100
 Alpha virt. eigenvalues --    5.76571   5.78215   5.80119   5.83400   5.84819
 Alpha virt. eigenvalues --    5.88460   5.89005   5.89488   5.93647   5.94612
 Alpha virt. eigenvalues --    5.97182   6.03060   6.06665   6.08937   6.14156
 Alpha virt. eigenvalues --    6.22720   6.29589   6.32094   6.35263   6.35845
 Alpha virt. eigenvalues --    6.37147   6.41713   6.42107   6.44509   6.46082
 Alpha virt. eigenvalues --    6.50126   6.55777  10.97502  12.77605  13.17276
 Alpha virt. eigenvalues --   13.30838  13.50769  13.59684  14.19920
          Condensed to atoms (all electrons):
              1          2          3          4          5          6
     1  C    4.884448   0.327039  -0.038982   0.005360  -0.038981   0.327035
     2  C    0.327039   5.014073   0.325032  -0.068343  -0.011991  -0.018912
     3  C   -0.038982   0.325032   4.732493   0.355063  -0.039605  -0.011990
     4  N    0.005360  -0.068343   0.355063   6.573155   0.355062  -0.068341
     5  C   -0.038981  -0.011991  -0.039605   0.355062   4.732495   0.325031
     6  C    0.327035  -0.018912  -0.011990  -0.068341   0.325031   5.014072
     7  C   -0.000459  -0.004357  -0.049686   0.349591  -0.049685  -0.004357
     8  H    0.006680  -0.050720   0.439302  -0.030522   0.006116  -0.001188
     9  H    0.000373  -0.067983   0.441769  -0.039439  -0.003288  -0.004428
    10  H    0.000373  -0.004428  -0.003288  -0.039438   0.441769  -0.067983
    11  H    0.006680  -0.001188   0.006116  -0.030523   0.439303  -0.050718
    12  H   -0.038544   0.412554  -0.029979   0.000373   0.001417  -0.003147
    13  H   -0.035214   0.422166  -0.027284   0.005315  -0.000626   0.005644
    14  H   -0.035215   0.005644  -0.000626   0.005315  -0.027284   0.422167
    15  H   -0.038547  -0.003147   0.001417   0.000372  -0.029980   0.412553
    16  H    0.423361  -0.040829  -0.000624  -0.000188  -0.000624  -0.040832
    17  H    0.436002  -0.034873   0.004986  -0.000986   0.004987  -0.034876
    18  H    0.000162  -0.003172  -0.006465  -0.036486   0.005913  -0.001067
    19  H    0.000162  -0.001067   0.005913  -0.036485  -0.006465  -0.003171
    20  H   -0.000829   0.012839  -0.006628  -0.061268  -0.006628   0.012838
              7          8          9         10         11         12
     1  C   -0.000459   0.006680   0.000373   0.000373   0.006680  -0.038544
     2  C   -0.004357  -0.050720  -0.067983  -0.004428  -0.001188   0.412554
     3  C   -0.049686   0.439302   0.441769  -0.003288   0.006116  -0.029979
     4  N    0.349591  -0.030522  -0.039439  -0.039438  -0.030523   0.000373
     5  C   -0.049685   0.006116  -0.003288   0.441769   0.439303   0.001417
     6  C   -0.004357  -0.001188  -0.004428  -0.067983  -0.050718  -0.003147
     7  C    4.702824  -0.008475   0.006718   0.006718  -0.008475  -0.000972
     8  H   -0.008475   0.573275  -0.029561   0.000113  -0.000296  -0.004583
     9  H    0.006718  -0.029561   0.595836   0.002949   0.000113   0.006774
    10  H    0.006718   0.000113   0.002949   0.595832  -0.029561   0.000019
    11  H   -0.008475  -0.000296   0.000113  -0.029561   0.573272  -0.000074
    12  H   -0.000972  -0.004583   0.006774   0.000019  -0.000074   0.595797
    13  H    0.000067  -0.002952  -0.002674   0.000059   0.000106  -0.031116
    14  H    0.000067   0.000106   0.000059  -0.002674  -0.002952  -0.000090
    15  H   -0.000972  -0.000074   0.000019   0.006775  -0.004583   0.001123
    16  H   -0.000015  -0.000106   0.001831   0.001831  -0.000106   0.006865
    17  H   -0.000112  -0.000291  -0.000180  -0.000180  -0.000291  -0.004800
    18  H    0.424344   0.002909   0.000666  -0.000054   0.000160   0.000727
    19  H    0.424344   0.000160  -0.000054   0.000666   0.002909   0.000168
    20  H    0.401703  -0.001212  -0.001228  -0.001228  -0.001212  -0.004595
             13         14         15         16         17         18
     1  C   -0.035214  -0.035215  -0.038547   0.423361   0.436002   0.000162
     2  C    0.422166   0.005644  -0.003147  -0.040829  -0.034873  -0.003172
     3  C   -0.027284  -0.000626   0.001417  -0.000624   0.004986  -0.006465
     4  N    0.005315   0.005315   0.000372  -0.000188  -0.000986  -0.036486
     5  C   -0.000626  -0.027284  -0.029980  -0.000624   0.004987   0.005913
     6  C    0.005644   0.422167   0.412553  -0.040832  -0.034876  -0.001067
     7  C    0.000067   0.000067  -0.000972  -0.000015  -0.000112   0.424344
     8  H   -0.002952   0.000106  -0.000074  -0.000106  -0.000291   0.002909
     9  H   -0.002674   0.000059   0.000019   0.001831  -0.000180   0.000666
    10  H    0.000059  -0.002674   0.006775   0.001831  -0.000180  -0.000054
    11  H    0.000106  -0.002952  -0.004583  -0.000106  -0.000291   0.000160
    12  H   -0.031116  -0.000090   0.001123   0.006865  -0.004800   0.000727
    13  H    0.568760  -0.000179  -0.000090  -0.005284  -0.004479   0.000000
    14  H   -0.000179   0.568763  -0.031118  -0.005285  -0.004480   0.000043
    15  H   -0.000090  -0.031118   0.595808   0.006866  -0.004801   0.000168
    16  H   -0.005284  -0.005285   0.006866   0.598534  -0.031614   0.000011
    17  H   -0.004479  -0.004480  -0.004801  -0.031614   0.567774  -0.000011
    18  H    0.000000   0.000043   0.000168   0.000011  -0.000011   0.591895
    19  H    0.000043   0.000000   0.000727   0.000011  -0.000011  -0.021990
    20  H   -0.000535  -0.000535  -0.004594  -0.000094   0.000274  -0.053432
             19         20
     1  C    0.000162  -0.000829
     2  C   -0.001067   0.012839
     3  C    0.005913  -0.006628
     4  N   -0.036485  -0.061268
     5  C   -0.006465  -0.006628
     6  C   -0.003171   0.012838
     7  C    0.424344   0.401703
     8  H    0.000160  -0.001212
     9  H   -0.000054  -0.001228
    10  H    0.000666  -0.001228
    11  H    0.002909  -0.001212
    12  H    0.000168  -0.004595
    13  H    0.000043  -0.000535
    14  H    0.000000  -0.000535
    15  H    0.000727  -0.004594
    16  H    0.000011  -0.000094
    17  H   -0.000011   0.000274
    18  H   -0.021990  -0.053432
    19  H    0.591895  -0.053431
    20  H   -0.053431   0.714361
 Mulliken atomic charges:
              1
     1  C   -0.190903
     2  C   -0.208337
     3  C   -0.096934
     4  N   -0.237585
     5  C   -0.096936
     6  C   -0.208330
     7  C   -0.188814
     8  H    0.101320
     9  H    0.091727
    10  H    0.091730
    11  H    0.101321
    12  H    0.092082
    13  H    0.108272
    14  H    0.108271
    15  H    0.092078
    16  H    0.086290
    17  H    0.107962
    18  H    0.095676
    19  H    0.095676
    20  H    0.055433
 Sum of Mulliken atomic charges =   0.00000
 Mulliken charges with hydrogens summed into heavy atoms:
              1
     1  C    0.003349
     2  C   -0.007983
     3  C    0.096114
     4  N   -0.237585
     5  C    0.096115
     6  C   -0.007981
     7  C    0.057971
 Sum of Mulliken charges with hydrogens summed into heavy atoms =   0.00000
 Electronic spatial extent (au):  <R**2>=            766.6957
 Charge=              0.0000 electrons
 Dipole moment (field-independent basis, Debye):
    X=             -0.5741    Y=              0.0000    Z=             -0.6345  Tot=              0.8557
 Quadrupole moment (field-independent basis, Debye-Ang):
   XX=            -47.2467   YY=            -44.9597   ZZ=            -46.9843
   XY=              0.0001   XZ=             -2.1870   YZ=              0.0000
 Traceless Quadrupole moment (field-independent basis, Debye-Ang):
   XX=             -0.8498   YY=              1.4372   ZZ=             -0.5874
   XY=              0.0001   XZ=             -2.1870   YZ=              0.0000
 Octapole moment (field-independent basis, Debye-Ang**2):
  XXX=              2.9113  YYY=             -0.0002  ZZZ=              0.7247  XYY=              2.9897
  XXY=             -0.0001  XXZ=             -3.2231  XZZ=             -2.5465  YZZ=              0.0000
  YYZ=              1.6722  XYZ=              0.0000
 Hexadecapole moment (field-independent basis, Debye-Ang**3):
 XXXX=           -530.8854 YYYY=           -356.9958 ZZZZ=           -171.3900 XXXY=              0.0006
 XXXZ=             -4.1885 YYYX=             -0.0002 YYYZ=              0.0003 ZZZX=             -1.7005
 ZZZY=             -0.0002 XXYY=           -141.8519 XXZZ=           -121.8825 YYZZ=            -91.7280
 XXYZ=              0.0003 YYXZ=             -1.3589 ZZXY=              0.0001
 N-N= 3.366227284472D+02 E-N=-1.346854012208D+03  KE= 2.887742043185D+02
 1\1\GINC-ROCK\SP\RMP2-FC\CC-pVTZ\C6H13N1\STYLIANAKIS\21-Mar-2016\0\\# 
 mp2/cc-pVTZ\\N_Me_piperidine_ax_single_point\\0,1\C\C,1,1.538285\C,2,1
 .541454,1,110.448\N,3,1.46831,2,114.313,1,54.198,0\C,4,1.468321,3,110.
 981,2,-54.02,0\C,5,1.541449,4,114.313,3,54.019,0\C,4,1.459326,3,113.96
 9,2,76.269,0\H,3,1.096168,4,108.36,5,-178.153,0\H,3,1.100046,4,107.369
 ,5,66.738,0\H,5,1.100044,4,107.369,3,-66.739,0\H,5,1.096166,4,108.359,
 3,178.152,0\H,2,1.098485,3,109.888,4,-66.885,0\H,2,1.097657,3,109.547,
 4,176.344,0\H,6,1.097658,5,109.547,4,-176.345,0\H,6,1.098487,5,109.888
 ,4,66.886,0\H,1,1.10053,2,109.008,3,67.246,0\H,1,1.096779,2,110.739,3,
 -175.85,0\H,7,1.095396,4,109.15,3,56.868,0\H,7,1.095396,4,109.15,3,174
 .342,0\H,7,1.105053,4,115.289,3,-64.395,0\\Version=EM64L-G09RevA.01\St
 ate=1-A\HF=-289.3100817\MP2=-290.5637178\RMSD=9.895e-09\PG=C01 [X(C6H1
 3N1)]\\@


 WHEN HAVING A MEETING OF THE MINDS,
 MAKE SURE YOU HAVE THE EQUIPMENT FOR IT.
 Job cpu time:  0 days  2 hours  1 minutes 45.0 seconds.
 File lengths (MBytes):  RWF=     86 Int=      0 D2E=      0 Chk=      8 Scr=      1
 Normal termination of Gaussian 09 at Mon Mar 21 05:07:54 2016.
