 Entering Gaussian System, Link 0=g09
 Input=propanediamine_H_plus_TTg.gjf
 Output=propanediamine_H_plus_TTg.out
 Initial command:
 /usr/local/g09/l1.exe /home/scratch/stylianakis/Gau-9459.inp -scrdir=/home/scratch/stylianakis/
 Entering Link 1 = /usr/local/g09/l1.exe PID=      9460.
  
 Copyright (c) 1988,1990,1992,1993,1995,1998,2003,2009, Gaussian, Inc.
                  All Rights Reserved.
  
 This is part of the Gaussian(R) 09 program.  It is based on
 the Gaussian(R) 03 system (copyright 2003, Gaussian, Inc.),
 the Gaussian(R) 98 system (copyright 1998, Gaussian, Inc.),
 the Gaussian(R) 94 system (copyright 1995, Gaussian, Inc.),
 the Gaussian 92(TM) system (copyright 1992, Gaussian, Inc.),
 the Gaussian 90(TM) system (copyright 1990, Gaussian, Inc.),
 the Gaussian 88(TM) system (copyright 1988, Gaussian, Inc.),
 the Gaussian 86(TM) system (copyright 1986, Carnegie Mellon
 University), and the Gaussian 82(TM) system (copyright 1983,
 Carnegie Mellon University). Gaussian is a federally registered
 trademark of Gaussian, Inc.
  
 This software contains proprietary and confidential information,
 including trade secrets, belonging to Gaussian, Inc.
  
 This software is provided under written license and may be
 used, copied, transmitted, or stored only in accord with that
 written license.
  
 The following legend is applicable only to US Government
 contracts under FAR:
  
                    RESTRICTED RIGHTS LEGEND
  
 Use, reproduction and disclosure by the US Government is
 subject to restrictions as set forth in subparagraphs (a)
 and (c) of the Commercial Computer Software - Restricted
 Rights clause in FAR 52.227-19.
  
 Gaussian, Inc.
 340 Quinnipiac St., Bldg. 40, Wallingford CT 06492
  
  
 ---------------------------------------------------------------
 Warning -- This program may not be used in any manner that
 competes with the business of Gaussian, Inc. or will provide
 assistance to any competitor of Gaussian, Inc.  The licensee
 of this program is prohibited from giving any competitor of
 Gaussian, Inc. access to this program.  By using this program,
 the user acknowledges that Gaussian, Inc. is engaged in the
 business of creating and licensing software in the field of
 computational chemistry and represents and warrants to the
 licensee that it is not a competitor of Gaussian, Inc. and that
 it will not use this program in any manner prohibited above.
 ---------------------------------------------------------------
  

 Cite this work as:
 Gaussian 09, Revision A.01,
 M. J. Frisch, G. W. Trucks, H. B. Schlegel, G. E. Scuseria, 
 M. A. Robb, J. R. Cheeseman, G. Scalmani, V. Barone, B. Mennucci, 
 G. A. Petersson, H. Nakatsuji, M. Caricato, X. Li, H. P. Hratchian, 
 A. F. Izmaylov, J. Bloino, G. Zheng, J. L. Sonnenberg, M. Hada, 
 M. Ehara, K. Toyota, R. Fukuda, J. Hasegawa, M. Ishida, T. Nakajima, 
 Y. Honda, O. Kitao, H. Nakai, T. Vreven, J. A. Montgomery, Jr., 
 J. E. Peralta, F. Ogliaro, M. Bearpark, J. J. Heyd, E. Brothers, 
 K. N. Kudin, V. N. Staroverov, R. Kobayashi, J. Normand, 
 K. Raghavachari, A. Rendell, J. C. Burant, S. S. Iyengar, J. Tomasi, 
 M. Cossi, N. Rega, J. M. Millam, M. Klene, J. E. Knox, J. B. Cross, 
 V. Bakken, C. Adamo, J. Jaramillo, R. Gomperts, R. E. Stratmann, 
 O. Yazyev, A. J. Austin, R. Cammi, C. Pomelli, J. W. Ochterski, 
 R. L. Martin, K. Morokuma, V. G. Zakrzewski, G. A. Voth, 
 P. Salvador, J. J. Dannenberg, S. Dapprich, A. D. Daniels, 
 O. Farkas, J. B. Foresman, J. V. Ortiz, J. Cioslowski, 
 and D. J. Fox, Gaussian, Inc., Wallingford CT, 2009.
 
 ******************************************
 Gaussian 09:  EM64L-G09RevA.01  8-May-2009
                20-Mar-2016 
 ******************************************
 %mem=16000Mb
 %nproc=8
 Will use up to    8 processors via shared memory.
 -------------
 # mp2/cc-pVTZ
 -------------
 1/38=1/1;
 2/12=2,17=6,18=5,40=1/2;
 3/5=16,6=1,11=9,16=1,25=1,30=1/1,2,3;
 4//1;
 5/5=2,38=5/2;
 8/10=1/1;
 9/16=-3/6;
 6/7=2,8=2,9=2,10=2/1;
 99/5=1,9=1/99;
 --------------------------------------
 propanediamine_H_plus_TTg_single_point
 --------------------------------------
 Symbolic Z-matrix:
 Charge =  1 Multiplicity = 1
 c
 c                    1    cc2
 c                    2    cc3      1    ccc3
 n                    3    nc4      2    ncc4     1    dih4     0
 n                    1    nc5      2    ncc5     3    dih5     0
 h                    1    hc6      2    hcc6     3    dih6     0
 h                    1    hc7      2    hcc7     3    dih7     0
 h                    5    hn8      1    hnc8     2    dih8     0
 h                    5    hn9      1    hnc9     2    dih9     0
 h                    3    hc10     2    hcc10    1    dih10    0
 h                    3    hc11     2    hcc11    1    dih11    0
 h                    4    hn12     3    hnc12    2    dih12    0
 h                    4    hn13     3    hnc13    2    dih13    0
 h                    4    hn14     3    hnc14    2    dih14    0
 h                    2    hc15     1    hcc15    5    dih15    0
 h                    2    hc16     1    hcc16    5    dih16    0
       Variables:
  cc2                   1.54319                  
  cc3                   1.52283                  
  ccc3                111.985                    
  nc4                   1.53077                  
  ncc4                110.322                    
  dih4               -178.743                    
  nc5                   1.45661                  
  ncc5                109.063                    
  dih5                177.566                    
  hc6                   1.09562                  
  hcc6                108.893                    
  dih6                 59.76                     
  hc7                   1.10291                  
  hcc7                109.375                    
  dih7                -56.704                    
  hn8                   1.01574                  
  hnc8                112.496                    
  dih8                 82.499                    
  hn9                   1.01448                  
  hnc9                111.949                    
  dih9               -155.94                     
  hc10                  1.09265                  
  hcc10               112.92                     
  dih10                62.933                    
  hc11                  1.09278                  
  hcc11               112.532                    
  dih11               -60.821                    
  hn12                  1.02623                  
  hnc12               110.793                    
  dih12                59.216                    
  hn13                  1.02593                  
  hnc13               112.206                    
  dih13               179.756                    
  hn14                  1.02611                  
  hnc14               110.918                    
  dih14               -59.633                    
  hc15                  1.09857                  
  hcc15               108.945                    
  dih15               -60.673                    
  hc16                  1.09677                  
  hcc16               107.738                    
  dih16                55.572                    
 
                          Input orientation:                          
 ---------------------------------------------------------------------
 Center     Atomic      Atomic             Coordinates (Angstroms)
 Number     Number       Type             X           Y           Z
 ---------------------------------------------------------------------
      1          6           0        0.000000    0.000000    0.000000
      2          6           0        0.000000    0.000000    1.543193
      3          6           0        1.412093    0.000000    2.113285
      4          7           0        1.367798   -0.031490    3.643094
      5          7           0       -1.375486   -0.058468   -0.475739
      6          1           0        0.522052   -0.895536   -0.354763
      7          1           0        0.571168    0.869652   -0.365889
      8          1           0       -1.821971    0.853810   -0.486882
      9          1           0       -1.436902   -0.445042   -1.411665
     10          1           0        1.978115    0.896165    1.847949
     11          1           0        1.984622   -0.881278    1.813731
     12          1           0        0.873227   -0.866745    3.976116
     13          1           0        2.306010   -0.036274    4.058143
     14          1           0        0.866078    0.784063    4.011939
     15          1           0       -0.546938    0.883463    1.899855
     16          1           0       -0.553478   -0.885956    1.877341
 ---------------------------------------------------------------------
                    Distance matrix (angstroms):
                    1          2          3          4          5
     1  C    0.000000
     2  C    1.543193   0.000000
     3  C    2.541649   1.522830   0.000000
     4  N    3.891529   2.506282   1.530774   0.000000
     5  N    1.456608   2.443658   3.804873   4.948851   0.000000
     6  H    1.095619   2.162582   2.772260   4.176689   2.077491
     7  H    1.102906   2.174194   2.758578   4.185525   2.159382
     8  H    2.070175   2.858282   4.236630   5.292928   1.015738
     9  H    2.062898   3.315711   4.554131   5.795512   1.014480
    10  H    2.851485   2.192926   1.092655   2.110824   4.190165
    11  H    2.829310   2.188280   1.092783   2.109309   4.148375
    12  H    4.162123   2.726332   2.124091   1.026233   5.052627
    13  H    4.667711   3.412327   2.140765   1.025929   5.840376
    14  H    4.178576   2.731218   2.125505   1.026107   5.086622
    15  H    2.165432   1.098570   2.159597   2.746313   2.686480
    16  H    2.148410   1.096773   2.168883   2.745778   2.626294
                    6          7          8          9         10
     6  H    0.000000
     7  H    1.765907   0.000000
     8  H    2.927817   2.396248   0.000000
     9  H    2.271010   2.618094   1.640280   0.000000
    10  H    3.190965   2.623220   4.460256   4.907776   0.000000
    11  H    2.615661   3.132786   4.774254   4.722320   1.777784
    12  H    4.345189   4.686077   5.490242   5.877305   2.976192
    13  H    4.836795   4.837607   6.204010   6.640428   2.421139
    14  H    4.691215   4.388584   5.241170   6.019128   2.435578
    15  H    3.064455   2.526647   2.706124   3.677381   2.525618
    16  H    2.477730   3.062526   3.197720   3.434007   3.096091
                   11         12         13         14         15
    11  H    0.000000
    12  H    2.431321   0.000000
    13  H    2.419651   1.658094   0.000000
    14  H    2.976007   1.651212   1.657857   0.000000
    15  H    3.087155   3.064467   3.693702   2.543107   0.000000
    16  H    2.538901   2.537856   3.695203   3.059511   1.769574
                   16
    16  H    0.000000
 Stoichiometry    C3H11N2(1+)
 Framework group  C1[X(C3H11N2)]
 Deg. of freedom    42
 Full point group                 C1      NOp   1
 Largest Abelian subgroup         C1      NOp   1
 Largest concise Abelian subgroup C1      NOp   1
                         Standard orientation:                         
 ---------------------------------------------------------------------
 Center     Atomic      Atomic             Coordinates (Angstroms)
 Number     Number       Type             X           Y           Z
 ---------------------------------------------------------------------
      1          6           0       -1.360073    0.504091    0.026574
      2          6           0       -0.059175   -0.325342   -0.007296
      3          6           0        1.180991    0.557183    0.039056
      4          7           0        2.446904   -0.300873   -0.027822
      5          7           0       -2.500779   -0.395580   -0.078725
      6          1           0       -1.374802    1.176364   -0.838420
      7          1           0       -1.364690    1.140827    0.927100
      8          1           0       -2.753924   -0.808347    0.814172
      9          1           0       -3.321276    0.073898   -0.446889
     10          1           0        1.258267    1.134297    0.963644
     11          1           0        1.239899    1.241613   -0.810803
     12          1           0        2.464881   -0.857067   -0.890075
     13          1           0        3.301481    0.266217   -0.002600
     14          1           0        2.484753   -0.959840    0.757815
     15          1           0       -0.056185   -1.019022    0.844559
     16          1           0       -0.071735   -0.929359   -0.922674
 ---------------------------------------------------------------------
 Rotational constants (GHZ):     17.7433221      1.8964289      1.7999478
 Standard basis: CC-pVTZ (5D, 7F)
 There are   304 symmetry adapted basis functions of A   symmetry.
 Integral buffers will be    131072 words long.
 Raffenetti 1 integral format.
 Two-electron integral symmetry is turned on.
   304 basis functions,   447 primitive gaussians,   340 cartesian basis functions
    21 alpha electrons       21 beta electrons
       nuclear repulsion energy       194.5159224133 Hartrees.
 NAtoms=   16 NActive=   16 NUniq=   16 SFac= 7.50D-01 NAtFMM=   80 NAOKFM=F Big=F
 One-electron integrals computed using PRISM.
 NBasis=   304 RedAO= T  NBF=   304
 NBsUse=   304 1.00D-06 NBFU=   304
 Harris functional with IExCor=  205 diagonalized for initial guess.
 ExpMin= 1.03D-01 ExpMax= 1.14D+04 ExpMxC= 3.89D+02 IAcc=1 IRadAn=         1 AccDes= 0.00D+00
 HarFok:  IExCor=  205 AccDes= 0.00D+00 IRadAn=         1 IDoV= 1
 ScaDFX=  1.000000  1.000000  1.000000  1.000000
 FoFCou: FMM=F IPFlag=           0 FMFlag=      100000 FMFlg1=           0
         NFxFlg=           0 DoJE=T BraDBF=F KetDBF=T FulRan=T
         Omega=  0.000000  0.000000  1.000000  0.000000  0.000000 ICntrl=     500 IOpCl=  0
         NMat0=    1 NMatS0=    1 NMatT0=    0 NMatD0=    1 NMtDS0=    0 NMtDT0=    0
         I1Cent=           4 NGrid=           0.
 Petite list used in FoFCou.
 Initial guess orbital symmetries:
       Occupied  (A) (A) (A) (A) (A) (A) (A) (A) (A) (A) (A) (A)
                 (A) (A) (A) (A) (A) (A) (A) (A) (A)
       Virtual   (A) (A) (A) (A) (A) (A) (A) (A) (A) (A) (A) (A)
                 (A) (A) (A) (A) (A) (A) (A) (A) (A) (A) (A) (A)
                 (A) (A) (A) (A) (A) (A) (A) (A) (A) (A) (A) (A)
                 (A) (A) (A) (A) (A) (A) (A) (A) (A) (A) (A) (A)
                 (A) (A) (A) (A) (A) (A) (A) (A) (A) (A) (A) (A)
                 (A) (A) (A) (A) (A) (A) (A) (A) (A) (A) (A) (A)
                 (A) (A) (A) (A) (A) (A) (A) (A) (A) (A) (A) (A)
                 (A) (A) (A) (A) (A) (A) (A) (A) (A) (A) (A) (A)
                 (A) (A) (A) (A) (A) (A) (A) (A) (A) (A) (A) (A)
                 (A) (A) (A) (A) (A) (A) (A) (A) (A) (A) (A) (A)
                 (A) (A) (A) (A) (A) (A) (A) (A) (A) (A) (A) (A)
                 (A) (A) (A) (A) (A) (A) (A) (A) (A) (A) (A) (A)
                 (A) (A) (A) (A) (A) (A) (A) (A) (A) (A) (A) (A)
                 (A) (A) (A) (A) (A) (A) (A) (A) (A) (A) (A) (A)
                 (A) (A) (A) (A) (A) (A) (A) (A) (A) (A) (A) (A)
                 (A) (A) (A) (A) (A) (A) (A) (A) (A) (A) (A) (A)
                 (A) (A) (A) (A) (A) (A) (A) (A) (A) (A) (A) (A)
                 (A) (A) (A) (A) (A) (A) (A) (A) (A) (A) (A) (A)
                 (A) (A) (A) (A) (A) (A) (A) (A) (A) (A) (A) (A)
                 (A) (A) (A) (A) (A) (A) (A) (A) (A) (A) (A) (A)
                 (A) (A) (A) (A) (A) (A) (A) (A) (A) (A) (A) (A)
                 (A) (A) (A) (A) (A) (A) (A) (A) (A) (A) (A) (A)
                 (A) (A) (A) (A) (A) (A) (A) (A) (A) (A) (A) (A)
                 (A) (A) (A) (A) (A) (A) (A)
 The electronic state of the initial guess is 1-A.
 Requested convergence on RMS density matrix=1.00D-08 within 128 cycles.
 Requested convergence on MAX density matrix=1.00D-06.
 Requested convergence on             energy=1.00D-06.
 No special actions if energy rises.
 Keep R1 ints in memory in canonical form, NReq=1700485347.
 SCF Done:  E(RHF) =  -228.767187822     A.U. after   11 cycles
             Convg  =    0.4820D-08             -V/T =  2.0020
 ExpMin= 1.03D-01 ExpMax= 1.14D+04 ExpMxC= 3.89D+02 IAcc=1 IRadAn=         1 AccDes= 0.00D+00
 HarFok:  IExCor=  205 AccDes= 0.00D+00 IRadAn=         1 IDoV=-2
 ScaDFX=  1.000000  1.000000  1.000000  1.000000
 Range of M.O.s used for correlation:     6   304
 NBasis=   304 NAE=    21 NBE=    21 NFC=     5 NFV=     0
 NROrb=    299 NOA=    16 NOB=    16 NVA=   283 NVB=   283

 **** Warning!!: The largest alpha MO coefficient is  0.12655426D+02

 Fully direct method using O(OVN) memory.
 JobTyp=1 Pass  1:  I=   1 to  16 NPSUse=  8 ParTrn=T ParDer=T DoDerP=F.
 Spin components of T(2) and E(2):
     alpha-alpha T2 =       0.3310698459D-01 E2=     -0.1076196017D+00
     alpha-beta  T2 =       0.2084597757D+00 E2=     -0.7382036404D+00
     beta-beta   T2 =       0.3310698459D-01 E2=     -0.1076196017D+00
 ANorm=    0.1129014502D+01
 E2 =    -0.9534428439D+00 EUMP2 =    -0.22972063066557D+03

 **********************************************************************

            Population analysis using the SCF density.

 **********************************************************************

 Orbital symmetries:
       Occupied  (A) (A) (A) (A) (A) (A) (A) (A) (A) (A) (A) (A)
                 (A) (A) (A) (A) (A) (A) (A) (A) (A)
       Virtual   (A) (A) (A) (A) (A) (A) (A) (A) (A) (A) (A) (A)
                 (A) (A) (A) (A) (A) (A) (A) (A) (A) (A) (A) (A)
                 (A) (A) (A) (A) (A) (A) (A) (A) (A) (A) (A) (A)
                 (A) (A) (A) (A) (A) (A) (A) (A) (A) (A) (A) (A)
                 (A) (A) (A) (A) (A) (A) (A) (A) (A) (A) (A) (A)
                 (A) (A) (A) (A) (A) (A) (A) (A) (A) (A) (A) (A)
                 (A) (A) (A) (A) (A) (A) (A) (A) (A) (A) (A) (A)
                 (A) (A) (A) (A) (A) (A) (A) (A) (A) (A) (A) (A)
                 (A) (A) (A) (A) (A) (A) (A) (A) (A) (A) (A) (A)
                 (A) (A) (A) (A) (A) (A) (A) (A) (A) (A) (A) (A)
                 (A) (A) (A) (A) (A) (A) (A) (A) (A) (A) (A) (A)
                 (A) (A) (A) (A) (A) (A) (A) (A) (A) (A) (A) (A)
                 (A) (A) (A) (A) (A) (A) (A) (A) (A) (A) (A) (A)
                 (A) (A) (A) (A) (A) (A) (A) (A) (A) (A) (A) (A)
                 (A) (A) (A) (A) (A) (A) (A) (A) (A) (A) (A) (A)
                 (A) (A) (A) (A) (A) (A) (A) (A) (A) (A) (A) (A)
                 (A) (A) (A) (A) (A) (A) (A) (A) (A) (A) (A) (A)
                 (A) (A) (A) (A) (A) (A) (A) (A) (A) (A) (A) (A)
                 (A) (A) (A) (A) (A) (A) (A) (A) (A) (A) (A) (A)
                 (A) (A) (A) (A) (A) (A) (A) (A) (A) (A) (A) (A)
                 (A) (A) (A) (A) (A) (A) (A) (A) (A) (A) (A) (A)
                 (A) (A) (A) (A) (A) (A) (A) (A) (A) (A) (A) (A)
                 (A) (A) (A) (A) (A) (A) (A) (A) (A) (A) (A) (A)
                 (A) (A) (A) (A) (A) (A) (A)
 The electronic state is 1-A.
 Alpha  occ. eigenvalues --  -15.89121 -15.65808 -11.47817 -11.39518 -11.39459
 Alpha  occ. eigenvalues --   -1.50324  -1.30663  -1.21521  -1.07750  -0.98716
 Alpha  occ. eigenvalues --   -0.96551  -0.93707  -0.84184  -0.81761  -0.77882
 Alpha  occ. eigenvalues --   -0.75599  -0.70431  -0.68046  -0.66473  -0.63274
 Alpha  occ. eigenvalues --   -0.51432
 Alpha virt. eigenvalues --   -0.07355  -0.01075  -0.00927  -0.00115   0.03580
 Alpha virt. eigenvalues --    0.04968   0.06057   0.07838   0.08762   0.10716
 Alpha virt. eigenvalues --    0.11066   0.13965   0.15461   0.17550   0.21731
 Alpha virt. eigenvalues --    0.22708   0.25616   0.26213   0.27594   0.30498
 Alpha virt. eigenvalues --    0.31410   0.36797   0.37963   0.39570   0.39770
 Alpha virt. eigenvalues --    0.40757   0.41514   0.44748   0.46107   0.46318
 Alpha virt. eigenvalues --    0.46687   0.47576   0.48519   0.50134   0.50984
 Alpha virt. eigenvalues --    0.51828   0.52921   0.55785   0.56423   0.59268
 Alpha virt. eigenvalues --    0.60677   0.62649   0.65728   0.67758   0.71311
 Alpha virt. eigenvalues --    0.75190   0.75467   0.77795   0.80787   0.83212
 Alpha virt. eigenvalues --    0.86261   0.89157   0.90283   0.91287   0.94904
 Alpha virt. eigenvalues --    0.96475   0.99446   1.01782   1.04361   1.06145
 Alpha virt. eigenvalues --    1.07675   1.08920   1.11921   1.13083   1.14431
 Alpha virt. eigenvalues --    1.16115   1.16991   1.18686   1.19400   1.20904
 Alpha virt. eigenvalues --    1.22963   1.24148   1.25440   1.25886   1.28755
 Alpha virt. eigenvalues --    1.29813   1.31054   1.31774   1.34586   1.37859
 Alpha virt. eigenvalues --    1.40167   1.40767   1.42464   1.43930   1.47849
 Alpha virt. eigenvalues --    1.49107   1.50845   1.52792   1.53575   1.56224
 Alpha virt. eigenvalues --    1.56581   1.57793   1.62188   1.66858   1.68702
 Alpha virt. eigenvalues --    1.69561   1.75395   1.75793   1.77235   1.84406
 Alpha virt. eigenvalues --    1.87095   1.90768   1.92322   1.97024   2.34037
 Alpha virt. eigenvalues --    2.41451   2.44491   2.46235   2.50064   2.53708
 Alpha virt. eigenvalues --    2.56539   2.57617   2.61193   2.64178   2.65613
 Alpha virt. eigenvalues --    2.67837   2.71801   2.74684   2.78419   2.79870
 Alpha virt. eigenvalues --    2.82124   2.84902   2.88387   2.89653   2.91566
 Alpha virt. eigenvalues --    2.96772   2.97930   2.98622   3.01070   3.06679
 Alpha virt. eigenvalues --    3.11583   3.11934   3.14583   3.17085   3.17428
 Alpha virt. eigenvalues --    3.18573   3.19460   3.21398   3.22063   3.23078
 Alpha virt. eigenvalues --    3.24132   3.24363   3.25979   3.28308   3.28611
 Alpha virt. eigenvalues --    3.30817   3.33815   3.35380   3.36591   3.37229
 Alpha virt. eigenvalues --    3.38093   3.40907   3.42555   3.43634   3.45653
 Alpha virt. eigenvalues --    3.47661   3.50610   3.52235   3.55462   3.56474
 Alpha virt. eigenvalues --    3.58581   3.59872   3.60804   3.62973   3.64086
 Alpha virt. eigenvalues --    3.68969   3.69224   3.70220   3.72747   3.73185
 Alpha virt. eigenvalues --    3.76160   3.76950   3.78747   3.81297   3.83759
 Alpha virt. eigenvalues --    3.86587   3.89105   3.90329   3.91621   3.92362
 Alpha virt. eigenvalues --    3.94617   3.95564   3.96870   3.99662   4.00565
 Alpha virt. eigenvalues --    4.02694   4.05514   4.06361   4.08689   4.09626
 Alpha virt. eigenvalues --    4.12861   4.13420   4.15485   4.16323   4.16595
 Alpha virt. eigenvalues --    4.20938   4.22486   4.24346   4.24826   4.26042
 Alpha virt. eigenvalues --    4.28479   4.28711   4.30934   4.34113   4.35416
 Alpha virt. eigenvalues --    4.38341   4.39040   4.39724   4.42494   4.42803
 Alpha virt. eigenvalues --    4.44164   4.44997   4.47424   4.51301   4.53118
 Alpha virt. eigenvalues --    4.54399   4.55704   4.58415   4.59307   4.63516
 Alpha virt. eigenvalues --    4.66939   4.69482   4.72292   4.80600   4.83431
 Alpha virt. eigenvalues --    4.86167   4.90162   4.93104   4.98986   5.02110
 Alpha virt. eigenvalues --    5.03590   5.06266   5.11042   5.13469   5.15233
 Alpha virt. eigenvalues --    5.16953   5.17374   5.21028   5.23995   5.28292
 Alpha virt. eigenvalues --    5.29754   5.33560   5.36019   5.41410   5.43045
 Alpha virt. eigenvalues --    5.49362   5.51240   5.55976   5.56592   5.56836
 Alpha virt. eigenvalues --    5.59806   5.65079   5.66207   5.66413   5.72296
 Alpha virt. eigenvalues --    5.75154   5.79603   5.83371   5.88072   5.95757
 Alpha virt. eigenvalues --    5.96179   5.98462   6.00831   6.02674   6.07311
 Alpha virt. eigenvalues --    6.10483   6.14112   6.16793   6.20801   6.23215
 Alpha virt. eigenvalues --    6.23933   6.25658   6.30736   6.43367   6.54767
 Alpha virt. eigenvalues --    7.01201   7.04288   7.20070  12.41954  12.78941
 Alpha virt. eigenvalues --   13.24291  13.71823  14.36921
          Condensed to atoms (all electrons):
              1          2          3          4          5          6
     1  C    4.658772   0.310780  -0.031744   0.000458   0.343850   0.427917
     2  C    0.310780   5.023013   0.272306  -0.027924  -0.049898  -0.027449
     3  C   -0.031744   0.272306   4.867423   0.260109   0.004469  -0.004586
     4  N    0.000458  -0.027924   0.260109   5.643293  -0.000027   0.000086
     5  N    0.343850  -0.049898   0.004469  -0.000027   6.371840  -0.029082
     6  H    0.427917  -0.027449  -0.004586   0.000086  -0.029082   0.564286
     7  H    0.455569  -0.071645   0.009090   0.000009  -0.048851  -0.040063
     8  H   -0.033433  -0.000246  -0.000082   0.000004   0.388200   0.006861
     9  H   -0.028765   0.007148  -0.000523   0.000003   0.388976  -0.009822
    10  H    0.002284  -0.031552   0.426997  -0.023372  -0.000007   0.000078
    11  H    0.001224  -0.030854   0.427616  -0.023395   0.000001   0.001017
    12  H    0.000147   0.001183  -0.020375   0.383095  -0.000044   0.000021
    13  H   -0.000162   0.002744  -0.015542   0.391678   0.000006   0.000004
    14  H    0.000177  -0.000657  -0.018582   0.383392  -0.000011  -0.000010
    15  H   -0.019396   0.412094  -0.033087  -0.002538  -0.001474   0.005062
    16  H   -0.016587   0.394363  -0.022691  -0.002792   0.011148  -0.005416
              7          8          9         10         11         12
     1  C    0.455569  -0.033433  -0.028765   0.002284   0.001224   0.000147
     2  C   -0.071645  -0.000246   0.007148  -0.031552  -0.030854   0.001183
     3  C    0.009090  -0.000082  -0.000523   0.426997   0.427616  -0.020375
     4  N    0.000009   0.000004   0.000003  -0.023372  -0.023395   0.383095
     5  N   -0.048851   0.388200   0.388976  -0.000007   0.000001  -0.000044
     6  H   -0.040063   0.006861  -0.009822   0.000078   0.001017   0.000021
     7  H    0.604094  -0.008633  -0.000064   0.001330  -0.000174  -0.000056
     8  H   -0.008633   0.528660  -0.040834  -0.000033   0.000001   0.000003
     9  H   -0.000064  -0.040834   0.511769   0.000002  -0.000008   0.000002
    10  H    0.001330  -0.000033   0.000002   0.485534  -0.021822   0.004288
    11  H   -0.000174   0.000001  -0.000008  -0.021822   0.484543  -0.004035
    12  H   -0.000056   0.000003   0.000002   0.004288  -0.004035   0.471009
    13  H    0.000052   0.000000  -0.000001  -0.003231  -0.003277  -0.023071
    14  H   -0.000023  -0.000003   0.000001  -0.004110   0.004255  -0.020747
    15  H   -0.004617   0.001837  -0.000283  -0.003036   0.004087  -0.000706
    16  H    0.007359  -0.001163   0.000074   0.003874  -0.002831   0.001938
             13         14         15         16
     1  C   -0.000162   0.000177  -0.019396  -0.016587
     2  C    0.002744  -0.000657   0.412094   0.394363
     3  C   -0.015542  -0.018582  -0.033087  -0.022691
     4  N    0.391678   0.383392  -0.002538  -0.002792
     5  N    0.000006  -0.000011  -0.001474   0.011148
     6  H    0.000004  -0.000010   0.005062  -0.005416
     7  H    0.000052  -0.000023  -0.004617   0.007359
     8  H    0.000000  -0.000003   0.001837  -0.001163
     9  H   -0.000001   0.000001  -0.000283   0.000074
    10  H   -0.003231  -0.004110  -0.003036   0.003874
    11  H   -0.003277   0.004255   0.004087  -0.002831
    12  H   -0.023071  -0.020747  -0.000706   0.001938
    13  H    0.460133  -0.022755  -0.000090   0.000114
    14  H   -0.022755   0.471260   0.002565  -0.000817
    15  H   -0.000090   0.002565   0.551245  -0.026379
    16  H    0.000114  -0.000817  -0.026379   0.530203
 Mulliken atomic charges:
              1
     1  C   -0.071089
     2  C   -0.183405
     3  C   -0.120799
     4  N    0.017922
     5  N   -0.379097
     6  H    0.111099
     7  H    0.096624
     8  H    0.158861
     9  H    0.172325
    10  H    0.162777
    11  H    0.163653
    12  H    0.207347
    13  H    0.213397
    14  H    0.206066
    15  H    0.114716
    16  H    0.129603
 Sum of Mulliken atomic charges =   1.00000
 Mulliken charges with hydrogens summed into heavy atoms:
              1
     1  C    0.136635
     2  C    0.060914
     3  C    0.205631
     4  N    0.644731
     5  N   -0.047911
 Sum of Mulliken charges with hydrogens summed into heavy atoms =   1.00000
 Electronic spatial extent (au):  <R**2>=            671.3668
 Charge=              1.0000 electrons
 Dipole moment (field-independent basis, Debye):
    X=              8.4177    Y=              0.0330    Z=              0.6529  Tot=              8.4431
 Quadrupole moment (field-independent basis, Debye-Ang):
   XX=              1.5039   YY=            -29.1546   ZZ=            -28.1710
   XY=             -4.7158   XZ=             -2.0165   YZ=             -1.7118
 Traceless Quadrupole moment (field-independent basis, Debye-Ang):
   XX=             20.1111   YY=            -10.5474   ZZ=             -9.5637
   XY=             -4.7158   XZ=             -2.0165   YZ=             -1.7118
 Octapole moment (field-independent basis, Debye-Ang**2):
  XXX=             59.9630  YYY=             -1.7403  ZZZ=              0.5718  XYY=             11.0531
  XXY=             -3.2165  XXZ=              2.5291  XZZ=              6.8601  YZZ=             -2.0363
  YYZ=              1.3386  XYZ=              4.7007
 Hexadecapole moment (field-independent basis, Debye-Ang**3):
 XXXX=           -327.9156 YYYY=            -97.2974 ZZZZ=            -52.4481 XXXY=            -23.1273
 XXXZ=             -5.7354 YYYX=             -9.1882 YYYZ=             -3.0641 ZZZX=             -4.3897
 ZZZY=             -1.3164 XXYY=           -113.7328 XXZZ=           -100.5159 YYZZ=            -19.7004
 XXYZ=            -12.6219 YYXZ=             -3.4689 ZZXY=             -5.0820
 N-N= 1.945159224133D+02 E-N=-9.144831371790D+02  KE= 2.283177076470D+02
 1\1\GINC-ROCK\SP\RMP2-FC\CC-pVTZ\C3H11N2(1+)\STYLIANAKIS\20-Mar-2016\0
 \\# mp2/cc-pVTZ\\propanediamine_H_plus_TTg_single_point\\1,1\C\C,1,1.5
 43193\C,2,1.52283,1,111.985\N,3,1.530774,2,110.322,1,-178.743,0\N,1,1.
 456608,2,109.063,3,177.566,0\H,1,1.095619,2,108.893,3,59.76,0\H,1,1.10
 2906,2,109.375,3,-56.704,0\H,5,1.015738,1,112.496,2,82.499,0\H,5,1.014
 48,1,111.949,2,-155.94,0\H,3,1.092655,2,112.92,1,62.933,0\H,3,1.092783
 ,2,112.532,1,-60.821,0\H,4,1.026233,3,110.793,2,59.216,0\H,4,1.025929,
 3,112.206,2,179.756,0\H,4,1.026107,3,110.918,2,-59.633,0\H,2,1.09857,1
 ,108.945,5,-60.673,0\H,2,1.096773,1,107.738,5,55.572,0\\Version=EM64L-
 G09RevA.01\State=1-A\HF=-228.7671878\MP2=-229.7206307\RMSD=4.820e-09\P
 G=C01 [X(C3H11N2)]\\@


 NEVER LOSE YOUR IGNORANCE, IT CAN'T BE REPLACED.
   -- ANDY CAPP
 Job cpu time:  0 days  0 hours 33 minutes 21.6 seconds.
 File lengths (MBytes):  RWF=     38 Int=      0 D2E=      0 Chk=      5 Scr=      1
 Normal termination of Gaussian 09 at Sun Mar 20 10:22:13 2016.
