 Entering Gaussian System, Link 0=g09
 Input=propylamine_g.gjf
 Output=propylamine_g.out
 Initial command:
 /usr/local/g09/l1.exe /home/scratch/stylianakis/Gau-9137.inp -scrdir=/home/scratch/stylianakis/
 Entering Link 1 = /usr/local/g09/l1.exe PID=      9138.
  
 Copyright (c) 1988,1990,1992,1993,1995,1998,2003,2009, Gaussian, Inc.
                  All Rights Reserved.
  
 This is part of the Gaussian(R) 09 program.  It is based on
 the Gaussian(R) 03 system (copyright 2003, Gaussian, Inc.),
 the Gaussian(R) 98 system (copyright 1998, Gaussian, Inc.),
 the Gaussian(R) 94 system (copyright 1995, Gaussian, Inc.),
 the Gaussian 92(TM) system (copyright 1992, Gaussian, Inc.),
 the Gaussian 90(TM) system (copyright 1990, Gaussian, Inc.),
 the Gaussian 88(TM) system (copyright 1988, Gaussian, Inc.),
 the Gaussian 86(TM) system (copyright 1986, Carnegie Mellon
 University), and the Gaussian 82(TM) system (copyright 1983,
 Carnegie Mellon University). Gaussian is a federally registered
 trademark of Gaussian, Inc.
  
 This software contains proprietary and confidential information,
 including trade secrets, belonging to Gaussian, Inc.
  
 This software is provided under written license and may be
 used, copied, transmitted, or stored only in accord with that
 written license.
  
 The following legend is applicable only to US Government
 contracts under FAR:
  
                    RESTRICTED RIGHTS LEGEND
  
 Use, reproduction and disclosure by the US Government is
 subject to restrictions as set forth in subparagraphs (a)
 and (c) of the Commercial Computer Software - Restricted
 Rights clause in FAR 52.227-19.
  
 Gaussian, Inc.
 340 Quinnipiac St., Bldg. 40, Wallingford CT 06492
  
  
 ---------------------------------------------------------------
 Warning -- This program may not be used in any manner that
 competes with the business of Gaussian, Inc. or will provide
 assistance to any competitor of Gaussian, Inc.  The licensee
 of this program is prohibited from giving any competitor of
 Gaussian, Inc. access to this program.  By using this program,
 the user acknowledges that Gaussian, Inc. is engaged in the
 business of creating and licensing software in the field of
 computational chemistry and represents and warrants to the
 licensee that it is not a competitor of Gaussian, Inc. and that
 it will not use this program in any manner prohibited above.
 ---------------------------------------------------------------
  

 Cite this work as:
 Gaussian 09, Revision A.01,
 M. J. Frisch, G. W. Trucks, H. B. Schlegel, G. E. Scuseria, 
 M. A. Robb, J. R. Cheeseman, G. Scalmani, V. Barone, B. Mennucci, 
 G. A. Petersson, H. Nakatsuji, M. Caricato, X. Li, H. P. Hratchian, 
 A. F. Izmaylov, J. Bloino, G. Zheng, J. L. Sonnenberg, M. Hada, 
 M. Ehara, K. Toyota, R. Fukuda, J. Hasegawa, M. Ishida, T. Nakajima, 
 Y. Honda, O. Kitao, H. Nakai, T. Vreven, J. A. Montgomery, Jr., 
 J. E. Peralta, F. Ogliaro, M. Bearpark, J. J. Heyd, E. Brothers, 
 K. N. Kudin, V. N. Staroverov, R. Kobayashi, J. Normand, 
 K. Raghavachari, A. Rendell, J. C. Burant, S. S. Iyengar, J. Tomasi, 
 M. Cossi, N. Rega, J. M. Millam, M. Klene, J. E. Knox, J. B. Cross, 
 V. Bakken, C. Adamo, J. Jaramillo, R. Gomperts, R. E. Stratmann, 
 O. Yazyev, A. J. Austin, R. Cammi, C. Pomelli, J. W. Ochterski, 
 R. L. Martin, K. Morokuma, V. G. Zakrzewski, G. A. Voth, 
 P. Salvador, J. J. Dannenberg, S. Dapprich, A. D. Daniels, 
 O. Farkas, J. B. Foresman, J. V. Ortiz, J. Cioslowski, 
 and D. J. Fox, Gaussian, Inc., Wallingford CT, 2009.
 
 ******************************************
 Gaussian 09:  EM64L-G09RevA.01  8-May-2009
                20-Mar-2016 
 ******************************************
 %mem=16000Mb
 %nproc=8
 Will use up to    8 processors via shared memory.
 -------------
 # mp2/cc-pVTZ
 -------------
 1/38=1/1;
 2/12=2,17=6,18=5,40=1/2;
 3/5=16,6=1,11=9,16=1,25=1,30=1/1,2,3;
 4//1;
 5/5=2,38=5/2;
 8/10=1/1;
 9/16=-3/6;
 6/7=2,8=2,9=2,10=2/1;
 99/5=1,9=1/99;
 --------------------------
 propylamine_g_single_point
 --------------------------
 Symbolic Z-matrix:
 Charge =  0 Multiplicity = 1
 c
 c                    1    cc2
 c                    2    cc3      1    ccc3
 n                    3    nc4      2    ncc4     1    dih4     0
 h                    4    hn5      3    hnc5     2    dih5     0
 h                    3    hc6      2    hcc6     1    dih6     0
 h                    3    hc7      2    hcc7     1    dih7     0
 h                    2    hc8      3    hcc8     4    dih8     0
 h                    2    hc9      3    hcc9     4    dih9     0
 h                    4    hn10     3    hnc10    2    dih10    0
 h                    1    hc11     2    hcc11    3    dih11    0
 h                    1    hc12     2    hcc12    3    dih12    0
 h                    1    hc13     2    hcc13    3    dih13    0
       Variables:
  cc2                   1.53248                  
  cc3                   1.53362                  
  ccc3                113.861                    
  nc4                   1.46981                  
  ncc4                111.269                    
  dih4                -63.956                    
  hn5                   1.01727                  
  hnc5                110.813                    
  dih5                -68.564                    
  hc6                   1.1038                   
  hcc6                108.892                    
  dih6                170.605                    
  hc7                   1.09753                  
  hcc7                109.181                    
  dih7                 54.414                    
  hc8                   1.10005                  
  hcc8                108.76                     
  dih8                 58.754                    
  hc9                   1.09812                  
  hcc9                108.244                    
  dih9                173.463                    
  hn10                  1.01583                  
  hnc10               111.285                    
  dih10               172.207                    
  hc11                  1.09559                  
  hcc11               111.169                    
  dih11               178.269                    
  hc12                  1.09692                  
  hcc12               110.84                     
  dih12               -61.994                    
  hc13                  1.09343                  
  hcc13               110.867                    
  dih13                57.527                    
 
                          Input orientation:                          
 ---------------------------------------------------------------------
 Center     Atomic      Atomic             Coordinates (Angstroms)
 Number     Number       Type             X           Y           Z
 ---------------------------------------------------------------------
      1          6           0        0.000000    0.000000    0.000000
      2          6           0        0.000000    0.000000    1.532475
      3          6           0        1.402538    0.000000    2.152852
      4          7           0        2.133405   -1.230611    1.818550
      5          1           0        1.717678   -2.035120    2.281985
      6          1           0        1.312597    0.170477    3.239690
      7          1           0        1.976330    0.843009    1.747055
      8          1           0       -0.551234   -0.876424    1.904125
      9          1           0       -0.541579    0.878797    1.907012
     10          1           0        3.102219   -1.177363    2.119333
     11          1           0       -1.021192   -0.030861   -0.395639
     12          1           0        0.481375    0.905106   -0.390238
     13          1           0        0.548557   -0.861958   -0.389478
 ---------------------------------------------------------------------
                    Distance matrix (angstroms):
                    1          2          3          4          5
     1  C    0.000000
     2  C    1.532475   0.000000
     3  C    2.569414   1.533617   0.000000
     4  N    3.061526   2.479447   1.469805   0.000000
     5  H    3.507077   2.766567   2.063419   1.017269   0.000000
     6  H    3.499652   2.160222   1.103797   2.157872   2.438431
     7  H    2.769250   2.159303   1.097530   2.080788   2.938822
     8  H    2.167411   1.100046   2.155738   2.709254   2.575522
     9  H    2.168475   1.098121   2.147629   3.407780   3.706178
    10  H    3.937197   3.369621   2.067903   1.015828   1.636813
    11  H    1.095589   2.182065   3.517133   4.036522   4.322977
    12  H    1.096916   2.178937   2.852204   3.488443   4.161028
    13  H    1.093425   2.176646   2.817037   2.742815   3.143226
                    6          7          8          9         10
     6  H    0.000000
     7  H    1.766578   0.000000
     8  H    2.520635   3.060996   0.000000
     9  H    2.390757   2.523239   1.755250   0.000000
    10  H    2.504919   2.342673   3.672138   4.189289   0.000000
    11  H    4.324665   3.786810   2.494946   2.521846   4.964078
    12  H    3.795654   2.608979   3.082894   2.514853   4.183712
    13  H    3.849745   3.083865   2.543691   3.080988   3.593717
                   11         12         13
    11  H    0.000000
    12  H    1.770246   0.000000
    13  H    1.776195   1.768340   0.000000
 Stoichiometry    C3H9N
 Framework group  C1[X(C3H9N)]
 Deg. of freedom    33
 Full point group                 C1      NOp   1
 Largest Abelian subgroup         C1      NOp   1
 Largest concise Abelian subgroup C1      NOp   1
                         Standard orientation:                         
 ---------------------------------------------------------------------
 Center     Atomic      Atomic             Coordinates (Angstroms)
 Number     Number       Type             X           Y           Z
 ---------------------------------------------------------------------
      1          6           0        1.579111   -0.537177    0.129547
      2          6           0        0.669333    0.614239   -0.312067
      3          6           0       -0.730899    0.572958    0.312135
      4          7           0       -1.471242   -0.621809   -0.117689
      5          1           0       -1.702685   -0.567228   -1.106775
      6          1           0       -1.254383    1.516173    0.078303
      7          1           0       -0.637424    0.525748    1.404658
      8          1           0        0.568642    0.609191   -1.407484
      9          1           0        1.131861    1.576588   -0.055512
     10          1           0       -2.345269   -0.716919    0.391168
     11          1           0        2.555285   -0.482034   -0.364780
     12          1           0        1.751584   -0.504992    1.212341
     13          1           0        1.125807   -1.503983   -0.105782
 ---------------------------------------------------------------------
 Rotational constants (GHZ):     13.9810367      4.8228131      4.1611423
 Standard basis: CC-pVTZ (5D, 7F)
 There are   246 symmetry adapted basis functions of A   symmetry.
 Integral buffers will be    131072 words long.
 Raffenetti 1 integral format.
 Two-electron integral symmetry is turned on.
   246 basis functions,   361 primitive gaussians,   275 cartesian basis functions
    17 alpha electrons       17 beta electrons
       nuclear repulsion energy       132.6713446043 Hartrees.
 NAtoms=   13 NActive=   13 NUniq=   13 SFac= 7.50D-01 NAtFMM=   80 NAOKFM=F Big=F
 One-electron integrals computed using PRISM.
 NBasis=   246 RedAO= T  NBF=   246
 NBsUse=   246 1.00D-06 NBFU=   246
 Harris functional with IExCor=  205 diagonalized for initial guess.
 ExpMin= 1.03D-01 ExpMax= 1.14D+04 ExpMxC= 3.89D+02 IAcc=1 IRadAn=         1 AccDes= 0.00D+00
 HarFok:  IExCor=  205 AccDes= 0.00D+00 IRadAn=         1 IDoV= 1
 ScaDFX=  1.000000  1.000000  1.000000  1.000000
 FoFCou: FMM=F IPFlag=           0 FMFlag=      100000 FMFlg1=           0
         NFxFlg=           0 DoJE=T BraDBF=F KetDBF=T FulRan=T
         Omega=  0.000000  0.000000  1.000000  0.000000  0.000000 ICntrl=     500 IOpCl=  0
         NMat0=    1 NMatS0=    1 NMatT0=    0 NMatD0=    1 NMtDS0=    0 NMtDT0=    0
         I1Cent=           4 NGrid=           0.
 Petite list used in FoFCou.
 Initial guess orbital symmetries:
       Occupied  (A) (A) (A) (A) (A) (A) (A) (A) (A) (A) (A) (A)
                 (A) (A) (A) (A) (A)
       Virtual   (A) (A) (A) (A) (A) (A) (A) (A) (A) (A) (A) (A)
                 (A) (A) (A) (A) (A) (A) (A) (A) (A) (A) (A) (A)
                 (A) (A) (A) (A) (A) (A) (A) (A) (A) (A) (A) (A)
                 (A) (A) (A) (A) (A) (A) (A) (A) (A) (A) (A) (A)
                 (A) (A) (A) (A) (A) (A) (A) (A) (A) (A) (A) (A)
                 (A) (A) (A) (A) (A) (A) (A) (A) (A) (A) (A) (A)
                 (A) (A) (A) (A) (A) (A) (A) (A) (A) (A) (A) (A)
                 (A) (A) (A) (A) (A) (A) (A) (A) (A) (A) (A) (A)
                 (A) (A) (A) (A) (A) (A) (A) (A) (A) (A) (A) (A)
                 (A) (A) (A) (A) (A) (A) (A) (A) (A) (A) (A) (A)
                 (A) (A) (A) (A) (A) (A) (A) (A) (A) (A) (A) (A)
                 (A) (A) (A) (A) (A) (A) (A) (A) (A) (A) (A) (A)
                 (A) (A) (A) (A) (A) (A) (A) (A) (A) (A) (A) (A)
                 (A) (A) (A) (A) (A) (A) (A) (A) (A) (A) (A) (A)
                 (A) (A) (A) (A) (A) (A) (A) (A) (A) (A) (A) (A)
                 (A) (A) (A) (A) (A) (A) (A) (A) (A) (A) (A) (A)
                 (A) (A) (A) (A) (A) (A) (A) (A) (A) (A) (A) (A)
                 (A) (A) (A) (A) (A) (A) (A) (A) (A) (A) (A) (A)
                 (A) (A) (A) (A) (A) (A) (A) (A) (A) (A) (A) (A)
                 (A)
 The electronic state of the initial guess is 1-A.
 Requested convergence on RMS density matrix=1.00D-08 within 128 cycles.
 Requested convergence on MAX density matrix=1.00D-06.
 Requested convergence on             energy=1.00D-06.
 No special actions if energy rises.
 Keep R1 ints in memory in canonical form, NReq=730881626.
 SCF Done:  E(RHF) =  -173.350575564     A.U. after   11 cycles
             Convg  =    0.9773D-08             -V/T =  2.0018
 ExpMin= 1.03D-01 ExpMax= 1.14D+04 ExpMxC= 3.89D+02 IAcc=1 IRadAn=         1 AccDes= 0.00D+00
 HarFok:  IExCor=  205 AccDes= 0.00D+00 IRadAn=         1 IDoV=-2
 ScaDFX=  1.000000  1.000000  1.000000  1.000000
 Range of M.O.s used for correlation:     5   246
 NBasis=   246 NAE=    17 NBE=    17 NFC=     4 NFV=     0
 NROrb=    242 NOA=    13 NOB=    13 NVA=   229 NVB=   229

 **** Warning!!: The largest alpha MO coefficient is  0.11957739D+02

 Fully in-core method, ICMem=  1488306175.
 JobTyp=1 Pass  1 fully in-core, NPsUse=  8.
 Spin components of T(2) and E(2):
     alpha-alpha T2 =       0.2695759230D-01 E2=     -0.8360705644D-01
     alpha-beta  T2 =       0.1721871813D+00 E2=     -0.5862174913D+00
     beta-beta   T2 =       0.2695759230D-01 E2=     -0.8360705644D-01
 ANorm=    0.1107295067D+01
 E2 =    -0.7534316042D+00 EUMP2 =    -0.17410400716779D+03

 **********************************************************************

            Population analysis using the SCF density.

 **********************************************************************

 Orbital symmetries:
       Occupied  (A) (A) (A) (A) (A) (A) (A) (A) (A) (A) (A) (A)
                 (A) (A) (A) (A) (A)
       Virtual   (A) (A) (A) (A) (A) (A) (A) (A) (A) (A) (A) (A)
                 (A) (A) (A) (A) (A) (A) (A) (A) (A) (A) (A) (A)
                 (A) (A) (A) (A) (A) (A) (A) (A) (A) (A) (A) (A)
                 (A) (A) (A) (A) (A) (A) (A) (A) (A) (A) (A) (A)
                 (A) (A) (A) (A) (A) (A) (A) (A) (A) (A) (A) (A)
                 (A) (A) (A) (A) (A) (A) (A) (A) (A) (A) (A) (A)
                 (A) (A) (A) (A) (A) (A) (A) (A) (A) (A) (A) (A)
                 (A) (A) (A) (A) (A) (A) (A) (A) (A) (A) (A) (A)
                 (A) (A) (A) (A) (A) (A) (A) (A) (A) (A) (A) (A)
                 (A) (A) (A) (A) (A) (A) (A) (A) (A) (A) (A) (A)
                 (A) (A) (A) (A) (A) (A) (A) (A) (A) (A) (A) (A)
                 (A) (A) (A) (A) (A) (A) (A) (A) (A) (A) (A) (A)
                 (A) (A) (A) (A) (A) (A) (A) (A) (A) (A) (A) (A)
                 (A) (A) (A) (A) (A) (A) (A) (A) (A) (A) (A) (A)
                 (A) (A) (A) (A) (A) (A) (A) (A) (A) (A) (A) (A)
                 (A) (A) (A) (A) (A) (A) (A) (A) (A) (A) (A) (A)
                 (A) (A) (A) (A) (A) (A) (A) (A) (A) (A) (A) (A)
                 (A) (A) (A) (A) (A) (A) (A) (A) (A) (A) (A) (A)
                 (A) (A) (A) (A) (A) (A) (A) (A) (A) (A) (A) (A)
                 (A)
 The electronic state is 1-A.
 Alpha  occ. eigenvalues --  -15.53309 -11.24525 -11.21632 -11.20297  -1.16993
 Alpha  occ. eigenvalues --   -1.02514  -0.89787  -0.78775  -0.65759  -0.62336
 Alpha  occ. eigenvalues --   -0.59882  -0.55481  -0.52611  -0.48961  -0.47157
 Alpha  occ. eigenvalues --   -0.46555  -0.38411
 Alpha virt. eigenvalues --    0.13971   0.16744   0.17523   0.18269   0.21686
 Alpha virt. eigenvalues --    0.22213   0.23265   0.25261   0.26213   0.30386
 Alpha virt. eigenvalues --    0.35144   0.36797   0.40147   0.40997   0.43958
 Alpha virt. eigenvalues --    0.45297   0.49616   0.50913   0.54659   0.56870
 Alpha virt. eigenvalues --    0.59648   0.59753   0.61670   0.63099   0.64676
 Alpha virt. eigenvalues --    0.65109   0.66250   0.67442   0.68395   0.69050
 Alpha virt. eigenvalues --    0.71950   0.72726   0.73697   0.77495   0.79871
 Alpha virt. eigenvalues --    0.81693   0.88053   0.93437   0.95283   0.97530
 Alpha virt. eigenvalues --    0.99796   1.02330   1.08242   1.10097   1.11747
 Alpha virt. eigenvalues --    1.16003   1.18546   1.19633   1.20838   1.22912
 Alpha virt. eigenvalues --    1.24184   1.27843   1.29192   1.33397   1.35347
 Alpha virt. eigenvalues --    1.37018   1.38259   1.39424   1.40102   1.41221
 Alpha virt. eigenvalues --    1.42536   1.45708   1.47572   1.50770   1.51343
 Alpha virt. eigenvalues --    1.53277   1.55483   1.58745   1.60459   1.61444
 Alpha virt. eigenvalues --    1.64162   1.67765   1.68692   1.73405   1.76979
 Alpha virt. eigenvalues --    1.79853   1.81842   1.82314   1.86622   1.91427
 Alpha virt. eigenvalues --    1.92160   2.02533   2.06065   2.14849   2.53068
 Alpha virt. eigenvalues --    2.58015   2.63659   2.64347   2.68456   2.71832
 Alpha virt. eigenvalues --    2.76834   2.76990   2.80285   2.82718   2.85066
 Alpha virt. eigenvalues --    2.89650   2.91057   2.94686   2.98349   3.01113
 Alpha virt. eigenvalues --    3.05655   3.11098   3.12052   3.13986   3.14865
 Alpha virt. eigenvalues --    3.18866   3.19355   3.22461   3.24725   3.27746
 Alpha virt. eigenvalues --    3.29240   3.34831   3.35199   3.37315   3.39307
 Alpha virt. eigenvalues --    3.41363   3.41993   3.43778   3.44000   3.47161
 Alpha virt. eigenvalues --    3.47651   3.49985   3.51888   3.57029   3.59273
 Alpha virt. eigenvalues --    3.61474   3.63475   3.65593   3.67841   3.68546
 Alpha virt. eigenvalues --    3.71941   3.73350   3.76767   3.78173   3.78780
 Alpha virt. eigenvalues --    3.80237   3.84247   3.84880   3.87548   3.90644
 Alpha virt. eigenvalues --    3.92008   3.93992   3.96171   4.01183   4.05246
 Alpha virt. eigenvalues --    4.06306   4.08218   4.08656   4.12603   4.15290
 Alpha virt. eigenvalues --    4.16935   4.17916   4.18732   4.20694   4.23302
 Alpha virt. eigenvalues --    4.24706   4.26098   4.28784   4.31211   4.33255
 Alpha virt. eigenvalues --    4.34882   4.36410   4.37747   4.41203   4.42748
 Alpha virt. eigenvalues --    4.45211   4.47025   4.48185   4.49414   4.52048
 Alpha virt. eigenvalues --    4.56999   4.60329   4.62333   4.63128   4.64277
 Alpha virt. eigenvalues --    4.66866   4.70802   4.74023   4.76583   4.77896
 Alpha virt. eigenvalues --    4.81326   4.85360   4.90726   4.92842   5.04768
 Alpha virt. eigenvalues --    5.08621   5.09724   5.16901   5.20446   5.21994
 Alpha virt. eigenvalues --    5.23769   5.24276   5.31782   5.32780   5.35817
 Alpha virt. eigenvalues --    5.39726   5.42380   5.43178   5.53002   5.54368
 Alpha virt. eigenvalues --    5.58342   5.61110   5.68748   5.69519   5.71197
 Alpha virt. eigenvalues --    5.72780   5.73559   5.79422   5.82406   5.87274
 Alpha virt. eigenvalues --    5.88492   5.91887   5.95453   6.00303   6.09411
 Alpha virt. eigenvalues --    6.21649   6.27062   6.30280   6.32661   6.32894
 Alpha virt. eigenvalues --    6.38143   6.44190   6.54808   6.62660   7.31865
 Alpha virt. eigenvalues --   12.50898  13.20238  13.55015  14.00950
          Condensed to atoms (all electrons):
              1          2          3          4          5          6
     1  C    4.816718   0.336543  -0.042236  -0.008673  -0.000128   0.008097
     2  C    0.336543   4.874423   0.343243  -0.047857  -0.002006  -0.063578
     3  C   -0.042236   0.343243   4.707441   0.324819  -0.038690   0.461292
     4  N   -0.008673  -0.047857   0.324819   6.423217   0.382475  -0.054037
     5  H   -0.000128  -0.002006  -0.038690   0.382475   0.559878  -0.007052
     6  H    0.008097  -0.063578   0.461292  -0.054037  -0.007052   0.638332
     7  H   -0.007346  -0.022659   0.411668  -0.033489   0.008348  -0.047977
     8  H   -0.038544   0.419837  -0.035542  -0.004649   0.003298  -0.007061
     9  H   -0.032465   0.424327  -0.038395   0.004660  -0.000164  -0.001347
    10  H   -0.000086   0.007733  -0.031931   0.381825  -0.044849  -0.003943
    11  H    0.423763  -0.038021   0.006654   0.000058  -0.000039  -0.000245
    12  H    0.413802  -0.038366  -0.003086   0.000024   0.000011  -0.000069
    13  H    0.412033  -0.033102  -0.005621   0.017230  -0.000714   0.000890
              7          8          9         10         11         12
     1  C   -0.007346  -0.038544  -0.032465  -0.000086   0.423763   0.413802
     2  C   -0.022659   0.419837   0.424327   0.007733  -0.038021  -0.038366
     3  C    0.411668  -0.035542  -0.038395  -0.031931   0.006654  -0.003086
     4  N   -0.033489  -0.004649   0.004660   0.381825   0.000058   0.000024
     5  H    0.008348   0.003298  -0.000164  -0.044849  -0.000039   0.000011
     6  H   -0.047977  -0.007061  -0.001347  -0.003943  -0.000245  -0.000069
     7  H    0.612240   0.007365  -0.003736  -0.007397  -0.000163   0.002407
     8  H    0.007365   0.614132  -0.035148  -0.000009  -0.005263   0.006860
     9  H   -0.003736  -0.035148   0.594721  -0.000527  -0.004736  -0.004491
    10  H   -0.007397  -0.000009  -0.000527   0.556833   0.000036  -0.000022
    11  H   -0.000163  -0.005263  -0.004736   0.000036   0.588192  -0.032827
    12  H    0.002407   0.006860  -0.004491  -0.000022  -0.032827   0.605202
    13  H   -0.000793  -0.004015   0.006685  -0.000778  -0.030692  -0.029286
             13
     1  C    0.412033
     2  C   -0.033102
     3  C   -0.005621
     4  N    0.017230
     5  H   -0.000714
     6  H    0.000890
     7  H   -0.000793
     8  H   -0.004015
     9  H    0.006685
    10  H   -0.000778
    11  H   -0.030692
    12  H   -0.029286
    13  H    0.564404
 Mulliken atomic charges:
              1
     1  C   -0.281477
     2  C   -0.160518
     3  C   -0.059618
     4  N   -0.385602
     5  H    0.139632
     6  H    0.076698
     7  H    0.081531
     8  H    0.078740
     9  H    0.090616
    10  H    0.143115
    11  H    0.093283
    12  H    0.079841
    13  H    0.103759
 Sum of Mulliken atomic charges =   0.00000
 Mulliken charges with hydrogens summed into heavy atoms:
              1
     1  C   -0.004593
     2  C    0.008837
     3  C    0.098611
     4  N   -0.102855
 Sum of Mulliken charges with hydrogens summed into heavy atoms =   0.00000
 Electronic spatial extent (au):  <R**2>=            363.0654
 Charge=              0.0000 electrons
 Dipole moment (field-independent basis, Debye):
    X=             -0.8843    Y=              0.9441    Z=             -0.2413  Tot=              1.3158
 Quadrupole moment (field-independent basis, Debye-Ang):
   XX=            -24.9355   YY=            -29.7172   ZZ=            -26.0563
   XY=              0.1361   XZ=              0.2718   YZ=              0.3533
 Traceless Quadrupole moment (field-independent basis, Debye-Ang):
   XX=              1.9675   YY=             -2.8142   ZZ=              0.8467
   XY=              0.1361   XZ=              0.2718   YZ=              0.3533
 Octapole moment (field-independent basis, Debye-Ang**2):
  XXX=            -14.7892  YYY=              1.6813  ZZZ=             -1.3929  XYY=             -0.3976
  XXY=             -2.0793  XXZ=             -0.4039  XZZ=             -4.1483  YZZ=             -1.2080
  YYZ=             -0.2689  XYZ=              0.2072
 Hexadecapole moment (field-independent basis, Debye-Ang**3):
 XXXX=           -284.1727 YYYY=           -118.7627 ZZZZ=            -61.5331 XXXY=             12.6267
 XXXZ=             -4.3256 YYYX=              0.7072 YYYZ=              1.1079 ZZZX=              3.9695
 ZZZY=              1.2085 XXYY=            -72.0578 XXZZ=            -57.7454 YYZZ=            -31.4447
 XXYZ=             -0.0364 YYXZ=              0.7368 ZZXY=              2.6249
 N-N= 1.326713446043D+02 E-N=-6.693837250301D+02  KE= 1.730395819935D+02
 1\1\GINC-ROCK\SP\RMP2-FC\CC-pVTZ\C3H9N1\STYLIANAKIS\20-Mar-2016\0\\# m
 p2/cc-pVTZ\\propylamine_g_single_point\\0,1\C\C,1,1.532475\C,2,1.53361
 7,1,113.861\N,3,1.469805,2,111.269,1,-63.956,0\H,4,1.017269,3,110.813,
 2,-68.564,0\H,3,1.103797,2,108.892,1,170.605,0\H,3,1.09753,2,109.181,1
 ,54.414,0\H,2,1.100046,3,108.76,4,58.754,0\H,2,1.098121,3,108.244,4,17
 3.463,0\H,4,1.015828,3,111.285,2,172.207,0\H,1,1.095589,2,111.169,3,17
 8.269,0\H,1,1.096916,2,110.84,3,-61.994,0\H,1,1.093425,2,110.867,3,57.
 527,0\\Version=EM64L-G09RevA.01\State=1-A\HF=-173.3505756\MP2=-174.104
 0072\RMSD=9.773e-09\PG=C01 [X(C3H9N1)]\\@


 THE LENGTH OF A MEETING IS PROPORTIONAL TO THE
 SQUARE OF THE PARTICIPANTS.
 Job cpu time:  0 days  0 hours 25 minutes 46.7 seconds.
 File lengths (MBytes):  RWF=     27 Int=      0 D2E=      0 Chk=      4 Scr=      1
 Normal termination of Gaussian 09 at Sun Mar 20 10:10:59 2016.
