 Entering Gaussian System, Link 0=g09
 Input=pyrrolidine_eq.gjf
 Output=pyrrolidine_eq.out
 Initial command:
 /usr/local/g09/l1.exe /home/scratch/stylianakis/Gau-8951.inp -scrdir=/home/scratch/stylianakis/
 Entering Link 1 = /usr/local/g09/l1.exe PID=      8952.
  
 Copyright (c) 1988,1990,1992,1993,1995,1998,2003,2009, Gaussian, Inc.
                  All Rights Reserved.
  
 This is part of the Gaussian(R) 09 program.  It is based on
 the Gaussian(R) 03 system (copyright 2003, Gaussian, Inc.),
 the Gaussian(R) 98 system (copyright 1998, Gaussian, Inc.),
 the Gaussian(R) 94 system (copyright 1995, Gaussian, Inc.),
 the Gaussian 92(TM) system (copyright 1992, Gaussian, Inc.),
 the Gaussian 90(TM) system (copyright 1990, Gaussian, Inc.),
 the Gaussian 88(TM) system (copyright 1988, Gaussian, Inc.),
 the Gaussian 86(TM) system (copyright 1986, Carnegie Mellon
 University), and the Gaussian 82(TM) system (copyright 1983,
 Carnegie Mellon University). Gaussian is a federally registered
 trademark of Gaussian, Inc.
  
 This software contains proprietary and confidential information,
 including trade secrets, belonging to Gaussian, Inc.
  
 This software is provided under written license and may be
 used, copied, transmitted, or stored only in accord with that
 written license.
  
 The following legend is applicable only to US Government
 contracts under FAR:
  
                    RESTRICTED RIGHTS LEGEND
  
 Use, reproduction and disclosure by the US Government is
 subject to restrictions as set forth in subparagraphs (a)
 and (c) of the Commercial Computer Software - Restricted
 Rights clause in FAR 52.227-19.
  
 Gaussian, Inc.
 340 Quinnipiac St., Bldg. 40, Wallingford CT 06492
  
  
 ---------------------------------------------------------------
 Warning -- This program may not be used in any manner that
 competes with the business of Gaussian, Inc. or will provide
 assistance to any competitor of Gaussian, Inc.  The licensee
 of this program is prohibited from giving any competitor of
 Gaussian, Inc. access to this program.  By using this program,
 the user acknowledges that Gaussian, Inc. is engaged in the
 business of creating and licensing software in the field of
 computational chemistry and represents and warrants to the
 licensee that it is not a competitor of Gaussian, Inc. and that
 it will not use this program in any manner prohibited above.
 ---------------------------------------------------------------
  

 Cite this work as:
 Gaussian 09, Revision A.01,
 M. J. Frisch, G. W. Trucks, H. B. Schlegel, G. E. Scuseria, 
 M. A. Robb, J. R. Cheeseman, G. Scalmani, V. Barone, B. Mennucci, 
 G. A. Petersson, H. Nakatsuji, M. Caricato, X. Li, H. P. Hratchian, 
 A. F. Izmaylov, J. Bloino, G. Zheng, J. L. Sonnenberg, M. Hada, 
 M. Ehara, K. Toyota, R. Fukuda, J. Hasegawa, M. Ishida, T. Nakajima, 
 Y. Honda, O. Kitao, H. Nakai, T. Vreven, J. A. Montgomery, Jr., 
 J. E. Peralta, F. Ogliaro, M. Bearpark, J. J. Heyd, E. Brothers, 
 K. N. Kudin, V. N. Staroverov, R. Kobayashi, J. Normand, 
 K. Raghavachari, A. Rendell, J. C. Burant, S. S. Iyengar, J. Tomasi, 
 M. Cossi, N. Rega, J. M. Millam, M. Klene, J. E. Knox, J. B. Cross, 
 V. Bakken, C. Adamo, J. Jaramillo, R. Gomperts, R. E. Stratmann, 
 O. Yazyev, A. J. Austin, R. Cammi, C. Pomelli, J. W. Ochterski, 
 R. L. Martin, K. Morokuma, V. G. Zakrzewski, G. A. Voth, 
 P. Salvador, J. J. Dannenberg, S. Dapprich, A. D. Daniels, 
 O. Farkas, J. B. Foresman, J. V. Ortiz, J. Cioslowski, 
 and D. J. Fox, Gaussian, Inc., Wallingford CT, 2009.
 
 ******************************************
 Gaussian 09:  EM64L-G09RevA.01  8-May-2009
                20-Mar-2016 
 ******************************************
 %mem=16000Mb
 %nproc=8
 Will use up to    8 processors via shared memory.
 -------------
 # mp2/cc-pVTZ
 -------------
 1/38=1/1;
 2/12=2,17=6,18=5,40=1/2;
 3/5=16,6=1,11=9,16=1,25=1,30=1/1,2,3;
 4//1;
 5/5=2,38=5/2;
 8/10=1/1;
 9/16=-3/6;
 6/7=2,8=2,9=2,10=2/1;
 99/5=1,9=1/99;
 ---------------------------
 pyrrolidine_eq_single_point
 ---------------------------
 Symbolic Z-matrix:
 Charge =  0 Multiplicity = 1
 c
 c                    1    cc2
 n                    2    nc3      1    ncc3
 c                    3    cn4      2    cnc4     1    dih4     0
 c                    4    cc5      3    ccn5     2    dih5     0
 h                    3    hn6      4    hnc6     5    dih6     0
 h                    4    hc7      3    hcn7     2    dih7     0
 h                    4    hc8      3    hcn8     2    dih8     0
 h                    2    hc9      3    hcn9     4    dih9     0
 h                    2    hc10     3    hcn10    4    dih10    0
 h                    5    hc11     4    hcc11    3    dih11    0
 h                    5    hc12     4    hcc12    3    dih12    0
 h                    1    hc13     2    hcc13    3    dih13    0
 h                    1    hc14     2    hcc14    3    dih14    0
       Variables:
  cc2                   1.54382                  
  nc3                   1.46687                  
  ncc3                102.819                    
  cn4                   1.46687                  
  cnc4                105.148                    
  dih4                -44.042                    
  cc5                   1.54381                  
  ccn5                102.818                    
  dih5                 44.048                    
  hn6                   1.01617                  
  hnc6                112.777                    
  dih6                167.324                    
  hc7                   1.10653                  
  hcn7                112.471                    
  dih7                -73.904                    
  hc8                   1.09473                  
  hcn8                110.803                    
  dih8                165.225                    
  hc9                   1.09473                  
  hcn9                110.802                    
  dih9               -165.22                     
  hc10                  1.10653                  
  hcn10               112.471                    
  dih10                73.91                     
  hc11                  1.09413                  
  hcc11               111.514                    
  dih11              -147.692                    
  hc12                  1.09385                  
  hcc12               110.37                     
  dih12                92.869                    
  hc13                  1.09385                  
  hcc13               110.372                    
  dih13               -92.884                    
  hc14                  1.09413                  
  hcc14               111.513                    
  dih14               147.677                    
 
                          Input orientation:                          
 ---------------------------------------------------------------------
 Center     Atomic      Atomic             Coordinates (Angstroms)
 Number     Number       Type             X           Y           Z
 ---------------------------------------------------------------------
      1          6           0        0.000000    0.000000    0.000000
      2          6           0        0.000000    0.000000    1.543818
      3          7           0        1.430311    0.000000    1.869276
      4          6           0        2.029890   -0.984315    0.961896
      5          6           0        1.358063   -0.658368   -0.389304
      6          1           0        1.611102   -0.205691    2.847846
      7          1           0        1.796226   -2.025815    1.253589
      8          1           0        3.119165   -0.877851    0.937641
      9          1           0       -0.496640    0.875558    1.974151
     10          1           0       -0.518732   -0.903229    1.917320
     11          1           0        1.228716   -1.556831   -1.000171
     12          1           0        1.973022    0.042737   -0.960964
     13          1           0       -0.051594    1.024137   -0.380786
     14          1           0       -0.860180   -0.544267   -0.401231
 ---------------------------------------------------------------------
                    Distance matrix (angstroms):
                    1          2          3          4          5
     1  C    0.000000
     2  C    1.543818   0.000000
     3  N    2.353717   1.466872   0.000000
     4  C    2.452463   2.329799   1.466870   0.000000
     5  C    1.558634   2.452497   2.353688   1.543805   0.000000
     6  H    3.278442   2.082893   1.016166   2.082894   3.278427
     7  H    2.983595   2.722974   2.148695   1.106529   2.181971
     8  H    3.373275   3.296553   2.119149   1.094734   2.215950
     9  H    2.215971   1.094733   2.119137   3.296535   3.373243
    10  H    2.181977   1.106530   2.148697   2.723028   2.983761
    11  H    2.221217   3.225731   3.270793   2.195304   1.094132
    12  H    2.195015   3.188820   2.882120   2.180701   1.093854
    13  H    1.093854   2.180738   2.882304   3.188926   2.195001
    14  H    1.094131   2.195302   3.270746   3.225564   2.221208
                    6          7          8          9         10
     6  H    0.000000
     7  H    2.426680   0.000000
     8  H    2.524864   1.779834   0.000000
     9  H    2.524880   3.767547   4.150041   0.000000
    10  H    2.426649   2.657023   3.767586   1.779832   0.000000
    11  H    4.096221   2.370959   2.791044   4.211883   3.463022
    12  H    3.834023   3.035524   2.401214   3.925267   3.922780
    13  H    3.834201   3.922732   3.925496   2.401222   3.035498
    14  H    4.096141   3.462645   4.211775   2.791148   2.370891
                   11         12         13         14
    11  H    0.000000
    12  H    1.764694   0.000000
    13  H    2.946901   2.323536   0.000000
    14  H    2.397394   2.947016   1.764687   0.000000
 Stoichiometry    C4H9N
 Framework group  C1[X(C4H9N)]
 Deg. of freedom    36
 Full point group                 C1      NOp   1
 Largest Abelian subgroup         C1      NOp   1
 Largest concise Abelian subgroup C1      NOp   1
                         Standard orientation:                         
 ---------------------------------------------------------------------
 Center     Atomic      Atomic             Coordinates (Angstroms)
 Number     Number       Type             X           Y           Z
 ---------------------------------------------------------------------
      1          6           0        0.778866    1.030119   -0.056937
      2          6           0        1.165103   -0.447185    0.170590
      3          7           0        0.000491   -1.171847   -0.349274
      4          6           0       -1.164695   -0.448169    0.170667
      5          6           0       -0.779768    1.029435   -0.057037
      6          1           0        0.000917   -2.154508   -0.090489
      7          1           0       -1.328163   -0.629512    1.249925
      8          1           0       -2.074723   -0.742753   -0.361793
      9          1           0        2.075318   -0.740947   -0.362001
     10          1           0        1.328859   -0.628473    1.249815
     11          1           0       -1.199488    1.677471    0.718210
     12          1           0       -1.162320    1.378419   -1.020562
     13          1           0        1.161216    1.379634   -1.020351
     14          1           0        1.197906    1.678397    0.718475
 ---------------------------------------------------------------------
 Rotational constants (GHZ):      6.8294901      6.7753128      3.8700998
 Standard basis: CC-pVTZ (5D, 7F)
 There are   276 symmetry adapted basis functions of A   symmetry.
 Integral buffers will be    131072 words long.
 Raffenetti 1 integral format.
 Two-electron integral symmetry is turned on.
   276 basis functions,   413 primitive gaussians,   310 cartesian basis functions
    20 alpha electrons       20 beta electrons
       nuclear repulsion energy       189.6340605196 Hartrees.
 NAtoms=   14 NActive=   14 NUniq=   14 SFac= 7.50D-01 NAtFMM=   80 NAOKFM=F Big=F
 One-electron integrals computed using PRISM.
 NBasis=   276 RedAO= T  NBF=   276
 NBsUse=   276 1.00D-06 NBFU=   276
 Harris functional with IExCor=  205 diagonalized for initial guess.
 ExpMin= 1.03D-01 ExpMax= 1.14D+04 ExpMxC= 3.89D+02 IAcc=1 IRadAn=         1 AccDes= 0.00D+00
 HarFok:  IExCor=  205 AccDes= 0.00D+00 IRadAn=         1 IDoV= 1
 ScaDFX=  1.000000  1.000000  1.000000  1.000000
 FoFCou: FMM=F IPFlag=           0 FMFlag=      100000 FMFlg1=           0
         NFxFlg=           0 DoJE=T BraDBF=F KetDBF=T FulRan=T
         Omega=  0.000000  0.000000  1.000000  0.000000  0.000000 ICntrl=     500 IOpCl=  0
         NMat0=    1 NMatS0=    1 NMatT0=    0 NMatD0=    1 NMtDS0=    0 NMtDT0=    0
         I1Cent=           4 NGrid=           0.
 Petite list used in FoFCou.
 Initial guess orbital symmetries:
       Occupied  (A) (A) (A) (A) (A) (A) (A) (A) (A) (A) (A) (A)
                 (A) (A) (A) (A) (A) (A) (A) (A)
       Virtual   (A) (A) (A) (A) (A) (A) (A) (A) (A) (A) (A) (A)
                 (A) (A) (A) (A) (A) (A) (A) (A) (A) (A) (A) (A)
                 (A) (A) (A) (A) (A) (A) (A) (A) (A) (A) (A) (A)
                 (A) (A) (A) (A) (A) (A) (A) (A) (A) (A) (A) (A)
                 (A) (A) (A) (A) (A) (A) (A) (A) (A) (A) (A) (A)
                 (A) (A) (A) (A) (A) (A) (A) (A) (A) (A) (A) (A)
                 (A) (A) (A) (A) (A) (A) (A) (A) (A) (A) (A) (A)
                 (A) (A) (A) (A) (A) (A) (A) (A) (A) (A) (A) (A)
                 (A) (A) (A) (A) (A) (A) (A) (A) (A) (A) (A) (A)
                 (A) (A) (A) (A) (A) (A) (A) (A) (A) (A) (A) (A)
                 (A) (A) (A) (A) (A) (A) (A) (A) (A) (A) (A) (A)
                 (A) (A) (A) (A) (A) (A) (A) (A) (A) (A) (A) (A)
                 (A) (A) (A) (A) (A) (A) (A) (A) (A) (A) (A) (A)
                 (A) (A) (A) (A) (A) (A) (A) (A) (A) (A) (A) (A)
                 (A) (A) (A) (A) (A) (A) (A) (A) (A) (A) (A) (A)
                 (A) (A) (A) (A) (A) (A) (A) (A) (A) (A) (A) (A)
                 (A) (A) (A) (A) (A) (A) (A) (A) (A) (A) (A) (A)
                 (A) (A) (A) (A) (A) (A) (A) (A) (A) (A) (A) (A)
                 (A) (A) (A) (A) (A) (A) (A) (A) (A) (A) (A) (A)
                 (A) (A) (A) (A) (A) (A) (A) (A) (A) (A) (A) (A)
                 (A) (A) (A) (A) (A) (A) (A) (A) (A) (A) (A) (A)
                 (A) (A) (A) (A)
 The electronic state of the initial guess is 1-A.
 Requested convergence on RMS density matrix=1.00D-08 within 128 cycles.
 Requested convergence on MAX density matrix=1.00D-06.
 Requested convergence on             energy=1.00D-06.
 No special actions if energy rises.
 Keep R1 ints in memory in canonical form, NReq=1177236283.
 SCF Done:  E(RHF) =  -211.219798314     A.U. after   11 cycles
             Convg  =    0.3949D-08             -V/T =  2.0018
 ExpMin= 1.03D-01 ExpMax= 1.14D+04 ExpMxC= 3.89D+02 IAcc=1 IRadAn=         1 AccDes= 0.00D+00
 HarFok:  IExCor=  205 AccDes= 0.00D+00 IRadAn=         1 IDoV=-2
 ScaDFX=  1.000000  1.000000  1.000000  1.000000
 Range of M.O.s used for correlation:     6   276
 NBasis=   276 NAE=    20 NBE=    20 NFC=     5 NFV=     0
 NROrb=    271 NOA=    15 NOB=    15 NVA=   256 NVB=   256

 **** Warning!!: The largest alpha MO coefficient is  0.12546336D+02

 Fully direct method using O(OVN) memory.
 JobTyp=1 Pass  1:  I=   1 to  15 NPSUse=  8 ParTrn=T ParDer=T DoDerP=F.
 Spin components of T(2) and E(2):
     alpha-alpha T2 =       0.3379963593D-01 E2=     -0.1038211479D+00
     alpha-beta  T2 =       0.2056305302D+00 E2=     -0.6927107305D+00
     beta-beta   T2 =       0.3379963593D-01 E2=     -0.1038211479D+00
 ANorm=    0.1128374850D+01
 E2 =    -0.9003530263D+00 EUMP2 =    -0.21212015134060D+03

 **********************************************************************

            Population analysis using the SCF density.

 **********************************************************************

 Orbital symmetries:
       Occupied  (A) (A) (A) (A) (A) (A) (A) (A) (A) (A) (A) (A)
                 (A) (A) (A) (A) (A) (A) (A) (A)
       Virtual   (A) (A) (A) (A) (A) (A) (A) (A) (A) (A) (A) (A)
                 (A) (A) (A) (A) (A) (A) (A) (A) (A) (A) (A) (A)
                 (A) (A) (A) (A) (A) (A) (A) (A) (A) (A) (A) (A)
                 (A) (A) (A) (A) (A) (A) (A) (A) (A) (A) (A) (A)
                 (A) (A) (A) (A) (A) (A) (A) (A) (A) (A) (A) (A)
                 (A) (A) (A) (A) (A) (A) (A) (A) (A) (A) (A) (A)
                 (A) (A) (A) (A) (A) (A) (A) (A) (A) (A) (A) (A)
                 (A) (A) (A) (A) (A) (A) (A) (A) (A) (A) (A) (A)
                 (A) (A) (A) (A) (A) (A) (A) (A) (A) (A) (A) (A)
                 (A) (A) (A) (A) (A) (A) (A) (A) (A) (A) (A) (A)
                 (A) (A) (A) (A) (A) (A) (A) (A) (A) (A) (A) (A)
                 (A) (A) (A) (A) (A) (A) (A) (A) (A) (A) (A) (A)
                 (A) (A) (A) (A) (A) (A) (A) (A) (A) (A) (A) (A)
                 (A) (A) (A) (A) (A) (A) (A) (A) (A) (A) (A) (A)
                 (A) (A) (A) (A) (A) (A) (A) (A) (A) (A) (A) (A)
                 (A) (A) (A) (A) (A) (A) (A) (A) (A) (A) (A) (A)
                 (A) (A) (A) (A) (A) (A) (A) (A) (A) (A) (A) (A)
                 (A) (A) (A) (A) (A) (A) (A) (A) (A) (A) (A) (A)
                 (A) (A) (A) (A) (A) (A) (A) (A) (A) (A) (A) (A)
                 (A) (A) (A) (A) (A) (A) (A) (A) (A) (A) (A) (A)
                 (A) (A) (A) (A) (A) (A) (A) (A) (A) (A) (A) (A)
                 (A) (A) (A) (A)
 The electronic state is 1-A.
 Alpha  occ. eigenvalues --  -15.53338 -11.24254 -11.24252 -11.21704 -11.21650
 Alpha  occ. eigenvalues --   -1.21081  -1.01610  -0.96795  -0.80248  -0.77907
 Alpha  occ. eigenvalues --   -0.68256  -0.65191  -0.58445  -0.55261  -0.50980
 Alpha  occ. eigenvalues --   -0.50867  -0.47716  -0.46926  -0.45427  -0.36463
 Alpha virt. eigenvalues --    0.13756   0.16904   0.17706   0.17936   0.20822
 Alpha virt. eigenvalues --    0.21393   0.22067   0.22698   0.27699   0.30031
 Alpha virt. eigenvalues --    0.31604   0.31636   0.36481   0.40133   0.42105
 Alpha virt. eigenvalues --    0.42233   0.43707   0.44331   0.50953   0.53133
 Alpha virt. eigenvalues --    0.55799   0.56826   0.57743   0.58355   0.61426
 Alpha virt. eigenvalues --    0.61664   0.62522   0.62616   0.65289   0.65480
 Alpha virt. eigenvalues --    0.66582   0.66882   0.67852   0.70172   0.70906
 Alpha virt. eigenvalues --    0.72513   0.75146   0.75483   0.79183   0.87155
 Alpha virt. eigenvalues --    0.89722   0.90403   0.98614   1.00464   1.02794
 Alpha virt. eigenvalues --    1.04038   1.09506   1.09973   1.10206   1.16359
 Alpha virt. eigenvalues --    1.16506   1.17320   1.19493   1.20550   1.21665
 Alpha virt. eigenvalues --    1.25439   1.27799   1.28802   1.29374   1.30538
 Alpha virt. eigenvalues --    1.34323   1.34422   1.36263   1.36478   1.37600
 Alpha virt. eigenvalues --    1.39522   1.40667   1.41213   1.43377   1.48443
 Alpha virt. eigenvalues --    1.49066   1.51821   1.52449   1.55543   1.57433
 Alpha virt. eigenvalues --    1.58416   1.59325   1.63790   1.65507   1.67351
 Alpha virt. eigenvalues --    1.69456   1.72154   1.76809   1.77213   1.78947
 Alpha virt. eigenvalues --    1.81714   1.81740   1.85083   1.87986   1.92155
 Alpha virt. eigenvalues --    1.94076   2.02389   2.11858   2.13681   2.16732
 Alpha virt. eigenvalues --    2.46340   2.59651   2.64083   2.66435   2.70345
 Alpha virt. eigenvalues --    2.73267   2.76315   2.80308   2.80823   2.84329
 Alpha virt. eigenvalues --    2.85251   2.89691   2.93755   2.94290   2.94754
 Alpha virt. eigenvalues --    2.96890   3.00618   3.02283   3.03027   3.03517
 Alpha virt. eigenvalues --    3.11723   3.14825   3.15547   3.16834   3.17842
 Alpha virt. eigenvalues --    3.19711   3.20911   3.23534   3.24586   3.27758
 Alpha virt. eigenvalues --    3.30395   3.32547   3.36004   3.36736   3.38618
 Alpha virt. eigenvalues --    3.39872   3.43051   3.44462   3.44603   3.45565
 Alpha virt. eigenvalues --    3.47508   3.49955   3.50576   3.54722   3.56416
 Alpha virt. eigenvalues --    3.57028   3.59788   3.60369   3.62525   3.67756
 Alpha virt. eigenvalues --    3.68610   3.70970   3.72339   3.73445   3.77122
 Alpha virt. eigenvalues --    3.78029   3.80424   3.83722   3.85818   3.86527
 Alpha virt. eigenvalues --    3.87566   3.88961   3.90341   3.93143   3.94614
 Alpha virt. eigenvalues --    3.98521   4.00646   4.03035   4.03126   4.06888
 Alpha virt. eigenvalues --    4.08662   4.08721   4.09227   4.10989   4.17052
 Alpha virt. eigenvalues --    4.17877   4.22040   4.22328   4.24293   4.27037
 Alpha virt. eigenvalues --    4.27976   4.28559   4.30265   4.33575   4.34039
 Alpha virt. eigenvalues --    4.36947   4.38378   4.39328   4.41746   4.42147
 Alpha virt. eigenvalues --    4.45364   4.48365   4.50026   4.54367   4.56918
 Alpha virt. eigenvalues --    4.58288   4.59134   4.61353   4.63102   4.64630
 Alpha virt. eigenvalues --    4.64983   4.65926   4.71452   4.73900   4.75193
 Alpha virt. eigenvalues --    4.78433   4.81296   4.82047   4.88551   4.94290
 Alpha virt. eigenvalues --    4.96656   4.99122   5.00783   5.06200   5.10495
 Alpha virt. eigenvalues --    5.14822   5.18098   5.22250   5.23626   5.27421
 Alpha virt. eigenvalues --    5.30649   5.32983   5.34226   5.34274   5.38600
 Alpha virt. eigenvalues --    5.41672   5.44813   5.49150   5.51686   5.53889
 Alpha virt. eigenvalues --    5.55833   5.57827   5.61012   5.61555   5.63932
 Alpha virt. eigenvalues --    5.70113   5.71815   5.74081   5.78537   5.82680
 Alpha virt. eigenvalues --    5.86666   5.90508   5.96656   5.98641   6.09596
 Alpha virt. eigenvalues --    6.10701   6.12408   6.20336   6.24586   6.30168
 Alpha virt. eigenvalues --    6.33396   6.36379   6.40067   6.51944   6.54814
 Alpha virt. eigenvalues --    6.99567  11.63144  12.21275  12.68674  13.29426
 Alpha virt. eigenvalues --   13.80405
          Condensed to atoms (all electrons):
              1          2          3          4          5          6
     1  C    4.897709   0.347917  -0.045198  -0.055566   0.332566   0.007969
     2  C    0.347917   4.726715   0.334896  -0.056523  -0.055572  -0.031822
     3  N   -0.045198   0.334896   6.506723   0.334887  -0.045192   0.373622
     4  C   -0.055566  -0.056523   0.334887   4.726714   0.347937  -0.031815
     5  C    0.332566  -0.055572  -0.045192   0.347937   4.897653   0.007967
     6  H    0.007969  -0.031822   0.373622  -0.031815   0.007967   0.576525
     7  H    0.000032  -0.001309  -0.062741   0.441601  -0.057555  -0.009692
     8  H    0.005447   0.005541  -0.028205   0.425695  -0.023982  -0.000498
     9  H   -0.023974   0.425686  -0.028206   0.005543   0.005443  -0.000497
    10  H   -0.057574   0.441628  -0.062741  -0.001320   0.000046  -0.009693
    11  H   -0.033799   0.004727   0.003692  -0.034108   0.425472  -0.000467
    12  H   -0.035858   0.005619   0.002020  -0.034893   0.426107  -0.000430
    13  H    0.426105  -0.034891   0.002020   0.005620  -0.035859  -0.000430
    14  H    0.425465  -0.034104   0.003691   0.004724  -0.033792  -0.000467
              7          8          9         10         11         12
     1  C    0.000032   0.005447  -0.023974  -0.057574  -0.033799  -0.035858
     2  C   -0.001309   0.005541   0.425686   0.441628   0.004727   0.005619
     3  N   -0.062741  -0.028205  -0.028206  -0.062741   0.003692   0.002020
     4  C    0.441601   0.425695   0.005543  -0.001320  -0.034108  -0.034893
     5  C   -0.057555  -0.023982   0.005443   0.000046   0.425472   0.426107
     6  H   -0.009692  -0.000498  -0.000497  -0.009693  -0.000467  -0.000430
     7  H    0.664025  -0.050446  -0.000650   0.009875  -0.004161   0.007077
     8  H   -0.050446   0.580846  -0.000104  -0.000650   0.000764  -0.008206
     9  H   -0.000650  -0.000104   0.580852  -0.050449  -0.000313  -0.000281
    10  H    0.009875  -0.000650  -0.050449   0.664015   0.000962  -0.000092
    11  H   -0.004161   0.000764  -0.000313   0.000962   0.576015  -0.034351
    12  H    0.007077  -0.008206  -0.000281  -0.000092  -0.034351   0.580200
    13  H   -0.000092  -0.000280  -0.008205   0.007076   0.004124  -0.009815
    14  H    0.000962  -0.000313   0.000766  -0.004164  -0.006827   0.004125
             13         14
     1  C    0.426105   0.425465
     2  C   -0.034891  -0.034104
     3  N    0.002020   0.003691
     4  C    0.005620   0.004724
     5  C   -0.035859  -0.033792
     6  H   -0.000430  -0.000467
     7  H   -0.000092   0.000962
     8  H   -0.000280  -0.000313
     9  H   -0.008205   0.000766
    10  H    0.007076  -0.004164
    11  H    0.004124  -0.006827
    12  H   -0.009815   0.004125
    13  H    0.580198  -0.034352
    14  H   -0.034352   0.576019
 Mulliken atomic charges:
              1
     1  C   -0.191242
     2  C   -0.078507
     3  N   -0.289270
     4  C   -0.078497
     5  C   -0.191238
     6  H    0.119727
     7  H    0.063074
     8  H    0.094390
     9  H    0.094388
    10  H    0.063081
    11  H    0.098269
    12  H    0.098777
    13  H    0.098782
    14  H    0.098267
 Sum of Mulliken atomic charges =   0.00000
 Mulliken charges with hydrogens summed into heavy atoms:
              1
     1  C    0.005806
     2  C    0.078961
     3  N   -0.169543
     4  C    0.078967
     5  C    0.005808
 Sum of Mulliken charges with hydrogens summed into heavy atoms =   0.00000
 Electronic spatial extent (au):  <R**2>=            392.6360
 Charge=              0.0000 electrons
 Dipole moment (field-independent basis, Debye):
    X=              0.0001    Y=             -0.0718    Z=              0.9774  Tot=              0.9800
 Quadrupole moment (field-independent basis, Debye-Ang):
   XX=            -31.8875   YY=            -31.1730   ZZ=            -33.9661
   XY=             -0.0004   XZ=              0.0005   YZ=             -1.3353
 Traceless Quadrupole moment (field-independent basis, Debye-Ang):
   XX=              0.4547   YY=              1.1692   ZZ=             -1.6239
   XY=             -0.0004   XZ=              0.0005   YZ=             -1.3353
 Octapole moment (field-independent basis, Debye-Ang**2):
  XXX=              0.0022  YYY=            -10.2885  ZZZ=              0.9780  XYY=              0.0026
  XXY=             -2.0016  XXZ=             -1.8356  XZZ=             -0.0007  YZZ=              2.2343
  YYZ=              1.8063  XYZ=             -0.0016
 Hexadecapole moment (field-independent basis, Debye-Ang**3):
 XXXX=           -236.4423 YYYY=           -210.0727 ZZZZ=            -72.3650 XXXY=             -0.0003
 XXXZ=             -0.0032 YYYX=             -0.0099 YYYZ=             -0.1105 ZZZX=              0.0015
 ZZZY=             -2.8863 XXYY=            -77.9366 XXZZ=            -50.1791 YYZZ=            -50.8970
 XXYZ=              2.1494 YYXZ=              0.0013 ZZXY=              0.0004
 N-N= 1.896340605196D+02 E-N=-8.715705855004D+02  KE= 2.108303186258D+02
 1\1\GINC-ROCK\SP\RMP2-FC\CC-pVTZ\C4H9N1\STYLIANAKIS\20-Mar-2016\0\\# m
 p2/cc-pVTZ\\pyrrolidine_eq_single_point\\0,1\C\C,1,1.543818\N,2,1.4668
 72,1,102.819\C,3,1.46687,2,105.148,1,-44.042,0\C,4,1.543805,3,102.818,
 2,44.048,0\H,3,1.016166,4,112.777,5,167.324,0\H,4,1.106529,3,112.471,2
 ,-73.904,0\H,4,1.094734,3,110.803,2,165.225,0\H,2,1.094733,3,110.802,4
 ,-165.22,0\H,2,1.10653,3,112.471,4,73.91,0\H,5,1.094132,4,111.514,3,-1
 47.692,0\H,5,1.093854,4,110.37,3,92.869,0\H,1,1.093854,2,110.372,3,-92
 .884,0\H,1,1.094131,2,111.513,3,147.677,0\\Version=EM64L-G09RevA.01\St
 ate=1-A\HF=-211.2197983\MP2=-212.1201513\RMSD=3.949e-09\PG=C01 [X(C4H9
 N1)]\\@


 The theorems and results in mathematical physics are
 not theorems and results about Nature, but about our
 description of it.
                   --Gerard 't Hooft
 Job cpu time:  0 days  0 hours 23 minutes 17.3 seconds.
 File lengths (MBytes):  RWF=     32 Int=      0 D2E=      0 Chk=      4 Scr=      1
 Normal termination of Gaussian 09 at Sun Mar 20 10:04:38 2016.
