 Entering Link 1 = C:\G03W\l1.exe PID=      1736.
  
 Copyright (c) 1988,1990,1992,1993,1995,1998,2003,2004, Gaussian, Inc.
                  All Rights Reserved.
  
 This is the Gaussian(R) 03 program.  It is based on the
 the Gaussian(R) 98 system (copyright 1998, Gaussian, Inc.),
 the Gaussian(R) 94 system (copyright 1995, Gaussian, Inc.),
 the Gaussian 92(TM) system (copyright 1992, Gaussian, Inc.),
 the Gaussian 90(TM) system (copyright 1990, Gaussian, Inc.),
 the Gaussian 88(TM) system (copyright 1988, Gaussian, Inc.),
 the Gaussian 86(TM) system (copyright 1986, Carnegie Mellon
 University), and the Gaussian 82(TM) system (copyright 1983,
 Carnegie Mellon University). Gaussian is a federally registered
 trademark of Gaussian, Inc.
  
 This software contains proprietary and confidential information,
 including trade secrets, belonging to Gaussian, Inc.
  
 This software is provided under written license and may be
 used, copied, transmitted, or stored only in accord with that
 written license.
  
 The following legend is applicable only to US Government
 contracts under FAR:
  
                    RESTRICTED RIGHTS LEGEND
  
 Use, reproduction and disclosure by the US Government is
 subject to restrictions as set forth in subparagraphs (a)
 and (c) of the Commercial Computer Software - Restricted
 Rights clause in FAR 52.227-19.
  
 Gaussian, Inc.
 340 Quinnipiac St., Bldg. 40, Wallingford CT 06492
  
  
 ---------------------------------------------------------------
 Warning -- This program may not be used in any manner that
 competes with the business of Gaussian, Inc. or will provide
 assistance to any competitor of Gaussian, Inc.  The licensee
 of this program is prohibited from giving any competitor of
 Gaussian, Inc. access to this program.  By using this program,
 the user acknowledges that Gaussian, Inc. is engaged in the
 business of creating and licensing software in the field of
 computational chemistry and represents and warrants to the
 licensee that it is not a competitor of Gaussian, Inc. and that
 it will not use this program in any manner prohibited above.
 ---------------------------------------------------------------
  

 Cite this work as:
 Gaussian 03, Revision D.01,
 M. J. Frisch, G. W. Trucks, H. B. Schlegel, G. E. Scuseria, 
 M. A. Robb, J. R. Cheeseman, J. A. Montgomery, Jr., T. Vreven, 
 K. N. Kudin, J. C. Burant, J. M. Millam, S. S. Iyengar, J. Tomasi, 
 V. Barone, B. Mennucci, M. Cossi, G. Scalmani, N. Rega, 
 G. A. Petersson, H. Nakatsuji, M. Hada, M. Ehara, K. Toyota, 
 R. Fukuda, J. Hasegawa, M. Ishida, T. Nakajima, Y. Honda, O. Kitao, 
 H. Nakai, M. Klene, X. Li, J. E. Knox, H. P. Hratchian, J. B. Cross, 
 V. Bakken, C. Adamo, J. Jaramillo, R. Gomperts, R. E. Stratmann, 
 O. Yazyev, A. J. Austin, R. Cammi, C. Pomelli, J. W. Ochterski, 
 P. Y. Ayala, K. Morokuma, G. A. Voth, P. Salvador, J. J. Dannenberg, 
 V. G. Zakrzewski, S. Dapprich, A. D. Daniels, M. C. Strain, 
 O. Farkas, D. K. Malick, A. D. Rabuck, K. Raghavachari, 
 J. B. Foresman, J. V. Ortiz, Q. Cui, A. G. Baboul, S. Clifford, 
 J. Cioslowski, B. B. Stefanov, G. Liu, A. Liashenko, P. Piskorz, 
 I. Komaromi, R. L. Martin, D. J. Fox, T. Keith, M. A. Al-Laham, 
 C. Y. Peng, A. Nanayakkara, M. Challacombe, P. M. W. Gill, 
 B. Johnson, W. Chen, M. W. Wong, C. Gonzalez, and J. A. Pople, 
 Gaussian, Inc., Wallingford CT, 2004.
 
 ******************************************
 Gaussian 03:  IA32W-G03RevD.01 13-Oct-2005
                13-Dec-2007 
 ******************************************
 ---------
 # opt uff
 ---------
 1/6=10,10=10,14=-1,18=4000020,38=1,56=1,64=2/1,3;
 2/9=110,17=6,18=5,40=1/2;
 3/5=30,11=9,16=1,25=1,30=1/1;
 4/20=10,22=1001,24=3/2;
 7/44=-1/16;
 1/6=10,10=10,14=-1,18=4000020,64=2/3(2);
 2/9=110/2;
 99//99;
 2/9=110/2;
 3/5=30,11=9,16=1,25=1,30=1/1;
 4/16=2,20=10,22=1001,24=3/2;
 7/44=-1/16;
 1/6=10,10=10,14=-1,18=4000020,64=2/3(-4);
 2/9=110/2;
 99//99;
 -------------
 butaclahol-1e
 -------------
 Symbolic Z-matrix:
 Charge =  0 Multiplicity = 1
 C                    -3.1197    0.62301  -1.79248 
 C                    -3.2597    1.66201  -0.88048 
 C                    -2.2437    1.99201   0.02652 
 C                    -1.9727   -0.15899  -1.72848 
 C                    -0.9557    0.10701  -0.80348 
 C                    -1.0317    1.26701  -0.00148 
 C                    -2.6017    3.13401   0.95952 
 C                    -1.7117    3.39801   2.17552 
 C                    -0.4127    3.95301   1.65652 
 C                     0.1673    1.61601   0.86752 
 C                     0.4753    3.10801   0.97552 
 C                    -0.1417    5.31901   1.79552 
 C                     1.0243    5.87701   1.27552 
 C                     1.6373    3.69501   0.44952 
 C                     1.9163    5.05501   0.59252 
 C                     0.2273   -0.85599  -0.74748 
 C                     1.4143    0.80901   0.45652 
 N                     1.0943   -0.60099   0.39552 
 C                    -0.2067   -2.33899  -0.68348 
 C                     0.9713   -3.33999  -0.70748 
 C                     1.9523   -2.91899   0.40352 
 C                     2.2933   -1.42299   0.34652 
 C                     0.5273   -4.84199  -0.61848 
 C                    -0.4337   -5.10899   0.56352 
 C                     1.7473   -5.77899  -0.43948 
 C                    -0.2007   -5.29599  -1.90848 
 O                     1.6523   -3.15899  -1.93548 
 H                     1.0253   -3.25499  -2.63148 
 H                    -3.9177    0.39801  -2.51948 
 H                    -4.1987    2.24101  -0.89648 
 H                    -1.8917   -0.99199  -2.44348 
 H                    -3.6207    2.92001   1.36152 
 H                    -2.6887    4.06701   0.35352 
 H                    -1.5777    2.49001   2.80552 
 H                    -2.2057    4.14401   2.84152 
 H                    -0.0767    1.24601   1.89152 
 H                    -0.8607    5.98001   2.30752 
 H                     1.2303    6.95601   1.38752 
 H                     2.3883    3.10801  -0.09748 
 H                     2.8393    5.48101   0.16552 
 H                     0.7903   -0.68499  -1.69748 
 H                     2.2113    0.98601   1.21852 
 H                     1.8053    1.12401  -0.53948 
 H                    -0.7977   -2.46199   0.25352 
 H                    -0.8777   -2.59499  -1.53048 
 H                     2.9063   -3.49299   0.32852 
 H                     1.5083   -3.13699   1.40152 
 H                     2.9463   -1.18899   1.22252 
 H                     2.8883   -1.19099  -0.56948 
 H                    -0.6597   -6.19499   0.66252 
 H                    -1.4157   -4.60299   0.43052 
 H                    -0.0067   -4.78199   1.53652 
 H                     1.4523   -6.85099  -0.49948 
 H                     2.2323   -5.65099   0.55352 
 H                     2.5163   -5.61199  -1.22648 
 H                    -0.5287   -6.35899  -1.83648 
 H                     0.4543   -5.22899  -2.80648 
 H                    -1.1177   -4.69999  -2.10948 
 
 I=    1 IAn=  6 Valence=36.
          JB=  1 J=    2 IAn=  6 IBT=12 Dist= 1.39D+00
          JB=  2 J=    4 IAn=  6 IBT=12 Dist= 1.39D+00
          JB=  3 J=   29 IAn=  1 IBT= 1 Dist= 1.10D+00
 I=    2 IAn=  6 Valence=36.
          JB=  1 J=    1 IAn=  6 IBT=12 Dist= 1.39D+00
          JB=  2 J=    3 IAn=  6 IBT=12 Dist= 1.40D+00
          JB=  3 J=   30 IAn=  1 IBT= 1 Dist= 1.10D+00
 I=    3 IAn=  6 Valence=36.
          JB=  1 J=    2 IAn=  6 IBT=12 Dist= 1.40D+00
          JB=  2 J=    6 IAn=  6 IBT=12 Dist= 1.41D+00
          JB=  3 J=    7 IAn=  6 IBT= 1 Dist= 1.52D+00
 I=    4 IAn=  6 Valence=36.
          JB=  1 J=    1 IAn=  6 IBT=12 Dist= 1.39D+00
          JB=  2 J=    5 IAn=  6 IBT=12 Dist= 1.40D+00
          JB=  3 J=   31 IAn=  1 IBT= 1 Dist= 1.10D+00
 I=    5 IAn=  6 Valence=36.
          JB=  1 J=    4 IAn=  6 IBT=12 Dist= 1.40D+00
          JB=  2 J=    6 IAn=  6 IBT=12 Dist= 1.41D+00
          JB=  3 J=   16 IAn=  6 IBT= 1 Dist= 1.53D+00
 I=    6 IAn=  6 Valence=36.
          JB=  1 J=    3 IAn=  6 IBT=12 Dist= 1.41D+00
          JB=  2 J=    5 IAn=  6 IBT=12 Dist= 1.41D+00
          JB=  3 J=   10 IAn=  6 IBT= 1 Dist= 1.52D+00
 I=   11 IAn=  6 Valence=36.
          JB=  1 J=    9 IAn=  6 IBT=12 Dist= 1.40D+00
          JB=  2 J=   10 IAn=  6 IBT= 1 Dist= 1.53D+00
          JB=  3 J=   14 IAn=  6 IBT=12 Dist= 1.40D+00
 I=   12 IAn=  6 Valence=36.
          JB=  1 J=    9 IAn=  6 IBT=12 Dist= 1.40D+00
          JB=  2 J=   13 IAn=  6 IBT=12 Dist= 1.39D+00
          JB=  3 J=   37 IAn=  1 IBT= 1 Dist= 1.10D+00
 I=   13 IAn=  6 Valence=36.
          JB=  1 J=   12 IAn=  6 IBT=12 Dist= 1.39D+00
          JB=  2 J=   15 IAn=  6 IBT=12 Dist= 1.39D+00
          JB=  3 J=   38 IAn=  1 IBT= 1 Dist= 1.10D+00
 I=   14 IAn=  6 Valence=36.
          JB=  1 J=   11 IAn=  6 IBT=12 Dist= 1.40D+00
          JB=  2 J=   15 IAn=  6 IBT=12 Dist= 1.40D+00
          JB=  3 J=   39 IAn=  1 IBT= 1 Dist= 1.10D+00
 I=   15 IAn=  6 Valence=36.
          JB=  1 J=   13 IAn=  6 IBT=12 Dist= 1.39D+00
          JB=  2 J=   14 IAn=  6 IBT=12 Dist= 1.40D+00
          JB=  3 J=   40 IAn=  1 IBT= 1 Dist= 1.10D+00
 Include all MM classes
 MMInit generated parameter data with length LenPar=  7248.

 GradGradGradGradGradGradGradGradGradGradGradGradGradGradGradGradGradGrad
 Berny optimization.
 Initialization pass.
 No Z-matrix variables, so optimization will use Cartesian coordinates.
 Trust Radius=1.00D-01 FncErr=1.00D-07 GrdErr=1.00D-07
 Number of steps in this run=   2 maximum allowed number of steps=   2.
 GradGradGradGradGradGradGradGradGradGradGradGradGradGradGradGradGradGrad

 Stoichiometry    C25H31NO
 Framework group  C1[X(C25H31NO)]
 Deg. of freedom   168
 Full point group                 C1
 Largest Abelian subgroup         C1      NOp   1
 Largest concise Abelian subgroup C1      NOp   1
                         Standard orientation:                         
 ---------------------------------------------------------------------
 Center     Atomic     Atomic              Coordinates (Angstroms)
 Number     Number      Type              X           Y           Z
 ---------------------------------------------------------------------
    1          6      10061000        0.619834    3.438362   -1.061666
    2          6      10061000        1.832410    3.261945   -0.406378
    3          6      10061000        2.214170    2.021291    0.121677
    4          6      10061000       -0.266686    2.369046   -1.104979
    5          6      10061000        0.056470    1.126755   -0.545558
    6          6      10061000        1.356276    0.910399   -0.037351
    7          6      10061003        3.557699    2.042191    0.826880
    8          6      10061003        3.953880    0.844318    1.692092
    9          6      10061000        4.228245   -0.301660    0.756012
   10          6      10061003        1.726378   -0.497261    0.405458
   11          6      10061000        3.159944   -0.918690    0.089426
   12          6      10061000        5.550286   -0.687662    0.507159
   13          6      10061000        5.843603   -1.705698   -0.397766
   14          6      10061000        3.480690   -1.933150   -0.826806
   15          6      10061000        4.796744   -2.327525   -1.072490
   16          6      10061003       -1.011878    0.036666   -0.563813
   17          6      10061003        0.706310   -1.534092   -0.104074
   18          7      10071003       -0.636545   -1.118993    0.240389
   19          6      10061003       -2.386172    0.532661   -0.056816
   20          6      10061003       -3.507163   -0.528774   -0.140466
   21          6      10061003       -2.991062   -1.796207    0.567471
   22          6      10061003       -1.591354   -2.205502    0.087012
   23          6      10061003       -4.893582   -0.028621    0.396891
   24          6      10061003       -4.794035    0.596502    1.808005
   25          6      10061003       -5.916064   -1.188852    0.479385
   26          6      10061003       -5.509206    1.045569   -0.534410
   27          8      10081003       -3.665442   -0.866842   -1.506176
   28          1      10011000       -3.824322   -0.071724   -1.985034
   29          1      10011000        0.350211    4.414509   -1.498011
   30          1      10011000        2.506171    4.131571   -0.322629
   31          1      10011000       -1.231726    2.536196   -1.607407
   32          1      10011000        3.556432    2.928216    1.505642
   33          1      10011000        4.350684    2.227569    0.063923
   34          1      10011000        3.184341    0.605719    2.460336
   35          1      10011000        4.874846    1.092959    2.270113
   36          1      10011000        1.606040   -0.512569    1.514646
   37          1      10011000        6.384707   -0.176030    1.015097
   38          1      10011000        6.889315   -2.003438   -0.590271
   39          1      10011000        2.707083   -2.470972   -1.392544
   40          1      10011000        5.010533   -3.128272   -1.799699
   41          1      10011000       -1.108657   -0.261643   -1.636359
   42          1      10011000        0.936586   -2.515534    0.376474
   43          1      10011000        0.760998   -1.664044   -1.210529
   44          1      10011000       -2.242010    0.858263    0.999394
   45          1      10011000       -2.725932    1.420799   -0.630366
   46          1      10011000       -3.680392   -2.656245    0.393187
   47          1      10011000       -2.944657   -1.622104    1.666652
   48          1      10011000       -1.264838   -3.082667    0.697348
   49          1      10011000       -1.625847   -2.547610   -0.975380
   50          1      10011000       -5.800991    0.857504    2.205738
   51          1      10011000       -4.209831    1.543473    1.808902
   52          1      10011000       -4.329773   -0.095330    2.544087
   53          1      10011000       -6.933483   -0.819903    0.741193
   54          1      10011000       -5.648078   -1.928932    1.265593
   55          1      10011000       -6.008580   -1.728540   -0.489530
   56          1      10011000       -6.486883    1.410368   -0.142229
   57          1      10011000       -5.707605    0.651627   -1.556841
   58          1      10011000       -4.859420    1.942413   -0.634189
 ---------------------------------------------------------------------
 Rotational constants (GHZ):      0.4107310      0.1056597      0.0922120
 Standard basis: Dummy (5D, 7F)
 There are    58 symmetry adapted basis functions of A   symmetry.
 Integral buffers will be    262144 words long.
 Raffenetti 1 integral format.
 Two-electron integral symmetry is turned on.
    58 basis functions,    58 primitive gaussians,    58 cartesian basis functions
    42 alpha electrons       42 beta electrons
       nuclear repulsion energy       445.7782861696 Hartrees.
 NAtoms=   58 NActive=   58 NUniq=   58 SFac= 7.50D-01 NAtFMM=   80 NAOKFM=F Big=F
 UFF calculation of energy and first derivatives.
 MO and density RWFs will be updated without deorthogonalization.
 NRF= 0 NRA=   0 NVA=  58 HaveQM=F
 Convergence limit is  0.750E-04 MaxStp=  5000 StMxLn= 1.00D-04 StpMin= 1.00D-06.
 Convergence criteria           0.00011250 0.00007500 0.00045000 0.00030000
  Step  NS  ND Rises OKQ   Scale  Max. Force  RMS Force Max. Disp.  RMS Disp.     Energy   Flag
     1   0   0   F    T  1.00D+00 0.04541254 0.00983018 0.04541254 0.00983018    0.1577461 ----
     2   0   0   F    F -1.71D-02 0.04541254 0.00983018 0.04541254 0.00983018    0.1494805 ----
     3   0   0   F    T  2.32D+00 0.01912471 0.00387729 0.01465152 0.00416799    0.1494780 ----
     4   0   0   F    F -3.15D-01 0.01912471 0.00387729 0.03396631 0.00966257    0.1478414 ----
     5   0   0   F    T  1.79D+00 0.01185763 0.00288305 0.01630505 0.00368862    0.1474028 ----
     6   0   0   F    F  1.90D-01 0.01185763 0.00288305 0.02925159 0.00661746    0.1459041 ----
     7   0   0   F    T  1.97D+00 0.01019556 0.00260617 0.02149595 0.00400513    0.1458651 ----
     8   0   0   F    F  1.90D-02 0.01019556 0.00260617 0.04227967 0.00787756    0.1446837 ----
     9   0   0   F    T  2.03D+00 0.01074540 0.00230011 0.02046110 0.00394503    0.1446833 ----
    10   0   0   F    F -1.74D-01 0.01074540 0.00230011 0.04163263 0.00802704    0.1439451 ----
    11   0   0   F    T  2.71D+00 0.00513138 0.00157451 0.01373293 0.00245024    0.1439107 ----
    12   0   0   F    F -2.18D-01 0.00513138 0.00157451 0.03715008 0.00662836    0.1434915 ----
    13   0   0   F    T  2.58D+00 0.00444920 0.00125227 0.01180911 0.00201084    0.1434563 ----
    14   0   0   F    F -3.39D-01 0.00444920 0.00125227 0.03042392 0.00518055    0.1432854 ----
    15   0   0   F    T  2.03D+00 0.00332200 0.00101900 0.01042195 0.00168917    0.1432242 ----
    16   0   0   F    F -1.13D-02 0.00332200 0.00101900 0.02111394 0.00342211    0.1430433 ----
    17   0   0   F    T  1.77D+00 0.00290872 0.00100118 0.01219103 0.00191542    0.1430433 ----
    18   0   0   F    F  1.06D-01 0.00290872 0.00100118 0.02153548 0.00338360    0.1428745 ----
    19   0   0   F    T  2.28D+00 0.00275679 0.00085700 0.01058889 0.00164414    0.1428729 ----
    20   0   0   F    F -7.32D-02 0.00275679 0.00085700 0.02409575 0.00374135    0.1427391 ----
    21   0   0   F    T  2.50D+00 0.00240912 0.00072533 0.00874887 0.00138670    0.1427383 ----
    22   0   0   F    F -1.93D-01 0.00240912 0.00072533 0.02187762 0.00346762    0.1426511 ----
    23   0   0   F    T  2.21D+00 0.00312786 0.00064266 0.00768116 0.00126636    0.1426459 ----
    24   0   0   F    F  2.30D-02 0.00312786 0.00064266 0.01698187 0.00279973    0.1425646 ----
    25   0   0   F    T  2.13D+00 0.00185163 0.00062376 0.00766388 0.00134347    0.1425645 ----
    26   0   0   F    F -3.95D-02 0.00185163 0.00062376 0.01633790 0.00286402    0.1424954 ----
    27   0   0   F    T  2.91D+00 0.00134201 0.00048561 0.00473144 0.00094673    0.1424952 ----
    28   0   0   F    F -1.26D-01 0.00134201 0.00048561 0.01374800 0.00275088    0.1424442 ----
    29   0   0   F    T  2.00D+00 0.00147286 0.00051884 0.00536876 0.00120105    0.1424432 ----
    30   0   0   F    F  1.08D-01 0.00147286 0.00051884 0.01074923 0.00240471    0.1423917 ----
    31   0   0   F    T  1.87D+00 0.00215824 0.00054400 0.00592605 0.00142843    0.1423912 ----
    32   0   0   F    F -8.57D-02 0.00215824 0.00054400 0.01105350 0.00266437    0.1423477 ----
    33   0   0   F    T  2.19D+00 0.00142717 0.00045883 0.00393575 0.00111325    0.1423473 ----
    34   0   0   F    F  2.70D-01 0.00142717 0.00045883 0.00861185 0.00243592    0.1422987 ----
    35   0   0   F    T  2.37D+00 0.00160857 0.00047949 0.00486274 0.00130845    0.1422964 ----
    36   0   0   F    F -3.86D-02 0.00160857 0.00047949 0.01150158 0.00309481    0.1422510 ----
    37   0   0   F    T  2.29D+00 0.00172930 0.00046199 0.00548705 0.00130102    0.1422509 ----
    38   0   0   F    F -1.13D-01 0.00172930 0.00046199 0.01254905 0.00297547    0.1422138 ----
    39   0   0   F    T  1.97D+00 0.00192841 0.00045518 0.00592427 0.00134209    0.1422132 ----
    40   0   0   F    F  1.90D-01 0.00192841 0.00045518 0.01165340 0.00263997    0.1421721 ----
    41   0   0   F    T  1.97D+00 0.00183212 0.00048389 0.00725928 0.00159237    0.1421710 ----
    42   0   0   F    F  9.87D-02 0.00183212 0.00048389 0.01431605 0.00314031    0.1421273 ----
    43   0   0   F    T  2.73D+00 0.00149010 0.00041904 0.00596608 0.00126548    0.1421269 ----
    44   0   0   F    F  1.14D-01 0.00149010 0.00041904 0.01626605 0.00345023    0.1420810 ----
    45   0   0   F    T  2.40D+00 0.00156411 0.00046124 0.00736940 0.00160157    0.1420805 ----
    46   0   0   F    F -9.01D-02 0.00156411 0.00046124 0.01768445 0.00384331    0.1420405 ----
    47   0   0   F    T  2.03D+00 0.00180749 0.00046925 0.00771453 0.00172193    0.1420401 ----
    48   0   0   F    T  2.06D+00 0.00166392 0.00045849 0.00738244 0.00169589    0.1420009 ----
    49   0   0   F    F -2.19D-02 0.00166392 0.00045849 0.01522354 0.00349715    0.1419639 ----
    50   0   0   F    T  2.29D+00 0.00128780 0.00041949 0.00664691 0.00149592    0.1419638 ----
    51   0   0   F    F  7.38D-02 0.00128780 0.00041949 0.01519865 0.00342054    0.1419264 ----
    52   0   0   F    T  2.51D+00 0.00129695 0.00040844 0.00672544 0.00146497    0.1419262 ----
    53   0   0   F    F -6.34D-02 0.00129695 0.00040844 0.01686136 0.00367282    0.1418923 ----
    54   0   0   F    T  2.12D+00 0.00211131 0.00042227 0.00724307 0.00162149    0.1418922 ----
    55   0   0   F    F -4.78D-02 0.00211131 0.00042227 0.01536656 0.00344009    0.1418609 ----
    56   0   0   F    T  2.63D+00 0.00127085 0.00036224 0.00519728 0.00124730    0.1418608 ----
    57   0   0   F    F -2.26D-01 0.00127085 0.00036224 0.01364944 0.00327574    0.1418396 ----
    58   0   0   F    T  2.08D+00 0.00125550 0.00035045 0.00483288 0.00121771    0.1418376 ----
    59   0   0   F    F  1.25D-01 0.00125550 0.00035045 0.01006701 0.00253652    0.1418129 ----
    60   0   0   F    T  2.11D+00 0.00159049 0.00036274 0.00523519 0.00135399    0.1418126 ----
    61   0   0   F    F  3.10D-02 0.00159049 0.00036274 0.01103188 0.00285320    0.1417877 ----
    62   0   0   F    T  2.11D+00 0.00163718 0.00036187 0.00544554 0.00139578    0.1417877 ----
    63   0   0   F    F -9.32D-02 0.00163718 0.00036187 0.01147709 0.00294177    0.1417662 ----
    64   0   0   F    T  2.37D+00 0.00081323 0.00031802 0.00458992 0.00112423    0.1417659 ----
    65   0   0   F    F  2.26D-01 0.00081323 0.00031802 0.01089151 0.00266770    0.1417412 ----
    66   0   0   F    T  2.86D+00 0.00128721 0.00031451 0.00472263 0.00114549    0.1417403 ----
    67   0   0   F    F -2.38D-01 0.00128721 0.00031451 0.01348426 0.00327067    0.1417234 ----
    68   0   0   F    T  2.47D+00 0.00114740 0.00028889 0.00406592 0.00100919    0.1417216 ----
    69   0   0   F    F -2.00D-01 0.00114740 0.00028889 0.01003901 0.00249176    0.1417082 ----
    70   0   0   F    T  2.20D+00 0.00113825 0.00026749 0.00345096 0.00090523    0.1417073 ----
    71   0   0   F    F -1.04D-01 0.00113825 0.00026749 0.00760277 0.00199430    0.1416951 ----
    72   0   0   F    T  1.96D+00 0.00096709 0.00026265 0.00320496 0.00091106    0.1416950 ----
    73   0   0   F    F  4.43D-01 0.00096709 0.00026265 0.00628486 0.00178656    0.1416796 ----
    74   0   0   F    T  2.34D+00 0.00088028 0.00028386 0.00388937 0.00110100    0.1416780 ----
    75   0   0   F    T  2.43D+00 0.00109442 0.00027427 0.00375995 0.00105923    0.1416615 ----
    76   0   0   F    F -1.41D-01 0.00109442 0.00027427 0.00915269 0.00257844    0.1416481 ----
    77   0   0   F    T  1.87D+00 0.00114635 0.00028468 0.00421670 0.00118416    0.1416477 ----
    78   0   0   F    T  2.13D+00 0.00086934 0.00026363 0.00370627 0.00104138    0.1416345 ----
    79   0   0   F    F  3.33D-01 0.00086934 0.00026363 0.00788664 0.00221596    0.1416184 ----
    80   0   0   F    T  2.76D+00 0.00078652 0.00026243 0.00365790 0.00106935    0.1416173 ----
    81   0   0   F    F -6.82D-02 0.00078652 0.00026243 0.01010053 0.00295280    0.1416020 ----
    82   0   0   F    T  2.65D+00 0.00086840 0.00025502 0.00325726 0.00103996    0.1416019 ----
    83   0   0   F    T  2.15D+00 0.00109558 0.00027976 0.00410829 0.00128148    0.1415869 ----
    84   0   0   F    T  2.12D+00 0.00132003 0.00027835 0.00422038 0.00129945    0.1415722 ----
    85   0   0   F    F  1.37D-01 0.00132003 0.00027835 0.00893610 0.00275142    0.1415562 ----
    86   0   0   F    T  1.92D+00 0.00112938 0.00030808 0.00525793 0.00162799    0.1415560 ----
    87   0   0   F    F  1.01D-02 0.00112938 0.00030808 0.01010077 0.00312745    0.1415400 ----
    88   0   0   F    T  3.31D+00 0.00079204 0.00023302 0.00293962 0.00095452    0.1415399 ----
    89   0   0   F    F -4.12D-01 0.00079204 0.00023302 0.00972918 0.00315914    0.1415353 ----
    90   0   0   F    T  1.73D+00 0.00068829 0.00024370 0.00313805 0.00107193    0.1415307 ----
    91   0   0   F    F  4.20D-01 0.00068829 0.00024370 0.00544189 0.00185891    0.1415191 ----
    92   0   0   F    T  2.20D+00 0.00084959 0.00025513 0.00368244 0.00120187    0.1415180 ----
    93   0   0   F    F  3.82D-01 0.00084959 0.00025513 0.00808688 0.00263938    0.1415022 ----
    94   0   0   F    T  2.46D+00 0.00098390 0.00028102 0.00430612 0.00148565    0.1415008 ----
    95   0   0   F    F -2.75D-01 0.00098390 0.00028102 0.01057313 0.00364784    0.1414904 ----
    96   0   0   F    T  2.16D+00 0.00098551 0.00025232 0.00348839 0.00122517    0.1414886 ----
    97   0   0   F    F  5.74D-02 0.00098551 0.00025232 0.00752642 0.00264339    0.1414760 ----
    98   0   0   F    T  2.67D+00 0.00080719 0.00023025 0.00321125 0.00104583    0.1414760 ----
    99   0   0   F    F -2.12D-01 0.00080719 0.00023025 0.00858289 0.00279525    0.1414670 ----
   100   0   0   F    T  2.33D+00 0.00074500 0.00021602 0.00310829 0.00094542    0.1414663 ----
   101   0   0   F    F  1.01D-01 0.00074500 0.00021602 0.00723923 0.00220190    0.1414560 ----
   102   0   0   F    T  1.86D+00 0.00111227 0.00025099 0.00416796 0.00130208    0.1414559 ----
   103   0   0   F    F  3.82D-01 0.00111227 0.00025099 0.00776155 0.00242472    0.1414428 ----
   104   0   0   F    T  3.13D+00 0.00070024 0.00022475 0.00344178 0.00107066    0.1414418 ----
   105   0   0   F    F -3.79D-01 0.00070024 0.00022475 0.01077410 0.00335157    0.1414364 ----
   106   0   0   F    T  1.73D+00 0.00066101 0.00023571 0.00393001 0.00120130    0.1414332 ----
   107   0   0   F    F  4.42D-01 0.00066101 0.00023571 0.00680615 0.00208047    0.1414223 ----
   108   0   0   F    T  1.94D+00 0.00091327 0.00026517 0.00509517 0.00154326    0.1414212 ----
   109   0   0   F    F  1.03D-01 0.00091327 0.00026517 0.00990365 0.00299969    0.1414081 ----
   110   0   0   F    T  2.28D+00 0.00070354 0.00025536 0.00482430 0.00145384    0.1414080 ----
   111   0   0   F    F  1.19D-01 0.00070354 0.00025536 0.01098407 0.00331014    0.1413937 ----
   112   0   0   F    T  3.16D+00 0.00077614 0.00022734 0.00393639 0.00117382    0.1413936 ----
   113   0   0   F    F -2.44D-01 0.00077614 0.00022734 0.01241942 0.00370343    0.1413840 ----
   114   0   0   F    T  2.54D+00 0.00066655 0.00021837 0.00359901 0.00110362    0.1413828 ----
   115   0   0   F    F -5.95D-02 0.00066655 0.00021837 0.00913328 0.00280068    0.1413730 ----
   116   0   0   F    T  1.63D+00 0.00117017 0.00026287 0.00510734 0.00161953    0.1413729 ----
   117   0   0   F    F  9.63D-02 0.00117017 0.00026287 0.00830686 0.00263408    0.1413623 ----
   118   0   0   F    T  3.04D+00 0.00063646 0.00019929 0.00294997 0.00095142    0.1413622 ----
   119   0   0   F    F -2.04D-01 0.00063646 0.00019929 0.00895374 0.00288774    0.1413544 ----
   120   0   0   F    T  3.59D+00 0.00054573 0.00016073 0.00206916 0.00064062    0.1413539 ----
   121   0   0   F    F -3.81D-01 0.00054573 0.00016073 0.00742024 0.00229734    0.1413508 ----
   122   0   0   F    T  1.79D+00 0.00066540 0.00017676 0.00248016 0.00079510    0.1413489 ----
   123   0   0   F    F  3.66D-01 0.00066540 0.00017676 0.00443238 0.00142096    0.1413427 ----
   124   0   0   F    T  2.04D+00 0.00062683 0.00019145 0.00283294 0.00095267    0.1413423 ----
   125   0   0   F    F -7.60D-02 0.00062683 0.00019145 0.00577010 0.00194039    0.1413363 ----
   126   0   0   F    T  3.20D+00 0.00041764 0.00014439 0.00169160 0.00056081    0.1413363 ----
   127   0   0   F    F -4.04D-01 0.00041764 0.00014439 0.00540822 0.00179296    0.1413344 ----
   128   0   0   F    T  2.08D+00 0.00059637 0.00013583 0.00164486 0.00051443    0.1413328 ----
   129   0   0   F    F  5.52D-01 0.00059637 0.00013583 0.00341612 0.00106838    0.1413283 ----
   130   0   0   F    T  2.24D+00 0.00066156 0.00016092 0.00234181 0.00073941    0.1413276 ----
   131   0   0   F    F -2.42D-01 0.00066156 0.00016092 0.00525200 0.00165828    0.1413242 ----
   132   0   0   F    T  2.52D+00 0.00060841 0.00012988 0.00159240 0.00049893    0.1413238 ----
   133   0   0   F    F -2.06D-01 0.00060841 0.00012988 0.00401172 0.00125694    0.1413211 ----
   134   0   0   F    T  1.88D+00 0.00037986 0.00013190 0.00165920 0.00053128    0.1413209 ----
   135   0   0   F    F  4.32D-01 0.00037986 0.00013190 0.00311610 0.00099779    0.1413172 ----
   136   0   0   F    T  2.76D+00 0.00050975 0.00012825 0.00153703 0.00051844    0.1413168 ----
   137   0   0   F    F -3.86D-01 0.00050975 0.00012825 0.00423507 0.00142849    0.1413153 ----
   138   0   0   F    T  2.36D+00 0.00028695 0.00010625 0.00117709 0.00037127    0.1413144 ----
   139   0   0   F    T  2.46D+00 0.00032263 0.00010198 0.00115838 0.00035658    0.1413121 ----
   140   0   0   F    F -9.22D-02 0.00032263 0.00010198 0.00284923 0.00087708    0.1413101 ----
   141   0   0   F    T  2.54D+00 0.00031354 0.00009335 0.00102273 0.00031374    0.1413100 ----
   142   0   0   F    F -5.55D-02 0.00031354 0.00009335 0.00259552 0.00079623    0.1413082 ----
   143   0   0   F    T  2.40D+00 0.00035563 0.00009128 0.00098544 0.00031329    0.1413082 ----
   144   0   0   F    F -5.61D-02 0.00035563 0.00009128 0.00236564 0.00075208    0.1413066 ----
   145   0   0   F    T  2.12D+00 0.00030500 0.00009252 0.00103527 0.00033490    0.1413066 ----
   146   0   0   F    F -9.17D-02 0.00030500 0.00009252 0.00219449 0.00070990    0.1413052 ----
   147   0   0   F    T  1.84D+00 0.00038613 0.00009291 0.00104250 0.00035030    0.1413051 ----
   148   0   0   F    F  9.32D-02 0.00038613 0.00009291 0.00191896 0.00064480    0.1413036 ----
   149   0   0   F    T  2.73D+00 0.00023429 0.00007792 0.00073496 0.00025845    0.1413036 ---+
   150   0   0   F    F  3.78D-01 0.00023429 0.00007792 0.00200457 0.00070491    0.1413018 ----
   151   0   0   F    T  1.94D+00 0.00035827 0.00010729 0.00135465 0.00050160    0.1413016 ----
   152   0   0   F    F  1.62D-01 0.00035827 0.00010729 0.00262322 0.00097132    0.1412994 ----
   153   0   0   F    T  2.29D+00 0.00040951 0.00010507 0.00127713 0.00049219    0.1412994 ----
   154   0   0   F    F -2.04D-01 0.00040951 0.00010507 0.00292744 0.00112821    0.1412978 ----
   155   0   0   F    T  2.02D+00 0.00032694 0.00009875 0.00116612 0.00044568    0.1412976 ----
   156   0   0   F    F  3.95D-01 0.00032694 0.00009875 0.00234980 0.00089807    0.1412954 ----
   157   0   0   F    T  2.69D+00 0.00030072 0.00009978 0.00122862 0.00046585    0.1412953 ----
   158   0   0   F    F -7.46D-02 0.00030072 0.00009978 0.00330520 0.00125321    0.1412931 ----
   159   0   0   F    T  2.01D+00 0.00030277 0.00011005 0.00148888 0.00057747    0.1412931 ----
   160   0   0   F    F  4.05D-01 0.00030277 0.00011005 0.00299002 0.00115969    0.1412904 ----
   161   0   0   F    T  3.02D+00 0.00040119 0.00010541 0.00139151 0.00054029    0.1412901 ----
   162   0   0   F    F -4.58D-01 0.00040119 0.00010541 0.00419626 0.00162931    0.1412897 ----
   163   0   0   F    T  1.82D+00 0.00044393 0.00009876 0.00130436 0.00048449    0.1412885 ----
   164   0   0   F    F  2.82D-01 0.00044393 0.00009876 0.00237763 0.00088315    0.1412867 ----
   165   0   0   F    T  2.81D+00 0.00031436 0.00008900 0.00112087 0.00040342    0.1412866 ----
   166   0   0   F    F -3.33D-01 0.00031436 0.00008900 0.00314691 0.00113262    0.1412856 ----
   167   0   0   F    T  2.23D+00 0.00037096 0.00008043 0.00096212 0.00033923    0.1412853 ----
   168   0   0   F    T  2.39D+00 0.00026983 0.00007666 0.00088236 0.00031530    0.1412840 ----
   169   0   0   F    F -1.31D-01 0.00026983 0.00007666 0.00211268 0.00075494    0.1412830 ----
   170   0   0   F    T  2.64D+00 0.00022576 0.00006627 0.00066796 0.00024887    0.1412829 -+-+
   171   0   0   F    F -1.00D-01 0.00022576 0.00006627 0.00176142 0.00065628    0.1412820 -+--
   172   0   0   F    T  2.31D+00 0.00030208 0.00006615 0.00072626 0.00025505    0.1412820 -+-+
   173   0   0   F    T  2.48D+00 0.00021785 0.00006274 0.00071221 0.00023820    0.1412812 -+-+
   174   0   0   F    F -1.10D-01 0.00021785 0.00006274 0.00176522 0.00059038    0.1412804 -+--
   175   0   0   F    T  1.84D+00 0.00022656 0.00006771 0.00085668 0.00028498    0.1412804 -+-+
   176   0   0   F    T  2.47D+00 0.00020032 0.00005883 0.00065017 0.00021262    0.1412796 -+-+
   177   0   0   F    T  2.65D+00 0.00016574 0.00005458 0.00058657 0.00019837    0.1412788 -+-+
   178   0   0   F    F  4.18D-01 0.00016574 0.00005458 0.00155344 0.00052534    0.1412779 -+--
   179   0   0   F    T  1.62D+00 0.00029391 0.00008141 0.00136103 0.00045900    0.1412778 ----
   180   0   0   F    T  2.55D+00 0.00021361 0.00006456 0.00090917 0.00029171    0.1412769 -+-+
   181   0   0   F    T  2.29D+00 0.00026231 0.00006908 0.00099646 0.00032594    0.1412760 -+--
   182   0   0   F    T  2.69D+00 0.00022371 0.00006366 0.00083205 0.00027641    0.1412751 -+-+
   183   0   0   F    F -2.15D-01 0.00022371 0.00006366 0.00224217 0.00074485    0.1412744 -+--
   184   0   0   F    T  2.38D+00 0.00016842 0.00005765 0.00076066 0.00024560    0.1412743 -+-+
   185   0   0   F    F -2.01D-01 0.00016842 0.00005765 0.00181111 0.00058478    0.1412738 -+--
   186   0   0   F    T  1.92D+00 0.00020416 0.00005698 0.00079335 0.00024358    0.1412738 -+-+
   187   0   0   F    F  2.01D-01 0.00020416 0.00005698 0.00152116 0.00046703    0.1412732 -+--
   188   0   0   F    T  2.25D+00 0.00019345 0.00005692 0.00087848 0.00024973    0.1412731 -+-+
   189   0   0   F    T  2.23D+00 0.00026167 0.00005553 0.00093933 0.00025165    0.1412725 -+-+
   190   0   0   F    F  1.04D-01 0.00026167 0.00005553 0.00209351 0.00056087    0.1412719 -+--
   191   0   0   F    T  3.25D+00 0.00019498 0.00004972 0.00073574 0.00019041    0.1412719 -+-+
   192   0   0   F    F -4.39D-01 0.00019498 0.00004972 0.00239220 0.00061910    0.1412717 -+--
   193   0   0   F    T  1.90D+00 0.00017753 0.00004745 0.00072401 0.00018286    0.1412715 -+-+
   194   0   0   F    F  3.25D-01 0.00017753 0.00004745 0.00137591 0.00034751    0.1412710 -+--
   195   0   0   F    T  1.91D+00 0.00022363 0.00005378 0.00095661 0.00024099    0.1412710 -+-+
   196   0   0   F    F  2.24D-01 0.00022363 0.00005378 0.00182818 0.00046056    0.1412704 -+--
   197   0   0   F    T  1.79D+00 0.00026619 0.00006090 0.00122761 0.00031498    0.1412704 -+--
   198   0   0   F    F  2.16D-01 0.00026619 0.00006090 0.00219753 0.00056383    0.1412697 -+--
   199   0   0   F    T  3.79D+00 0.00013750 0.00004543 0.00065039 0.00018115    0.1412697 -+-+
   200   0   0   F    F -2.39D-01 0.00013750 0.00004543 0.00246187 0.00068568    0.1412692 -+--
   201   0   0   F    T  1.60D+00 0.00029908 0.00006047 0.00110965 0.00032661    0.1412692 -+--
   202   0   0   F    F  2.08D-01 0.00029908 0.00006047 0.00177170 0.00052148    0.1412686 -+--
   203   0   0   F    T  2.18D+00 0.00017134 0.00005632 0.00100484 0.00028879    0.1412686 -+-+
   204   0   0   F    F  3.81D-01 0.00017134 0.00005632 0.00219256 0.00063015    0.1412678 -+--
   205   0   0   F    T  2.33D+00 0.00025703 0.00006355 0.00130125 0.00037318    0.1412677 -+--
   206   0   0   F    F -6.30D-02 0.00025703 0.00006355 0.00303538 0.00087050    0.1412670 -+--
   207   0   0   F    T  2.16D+00 0.00019876 0.00006346 0.00130586 0.00037738    0.1412670 -+--
   208   0   0   F    F  2.18D-01 0.00019876 0.00006346 0.00282252 0.00081568    0.1412661 -+--
   209   0   0   F    T  2.07D+00 0.00053722 0.00007113 0.00163080 0.00047923    0.1412661 -+--
   210   0   0   F    F -5.11D-02 0.00053722 0.00007113 0.00338076 0.00099347    0.1412652 -+--
   211   0   0   F    T  2.46D+00 0.00030167 0.00006321 0.00126732 0.00038375    0.1412652 -+--
   212   0   0   F    F -1.14D-01 0.00030167 0.00006321 0.00311335 0.00094273    0.1412644 -+--
   213   0   0   F    T  2.16D+00 0.00023627 0.00006298 0.00125199 0.00038625    0.1412644 -+--
   214   0   0   F    T  2.03D+00 0.00021975 0.00006386 0.00130920 0.00041221    0.1412637 -+--
   215   0   0   F    T  2.24D+00 0.00029512 0.00006299 0.00115205 0.00037192    0.1412630 -+--
   216   0   0   F    F  1.45D-01 0.00029512 0.00006299 0.00258581 0.00083480    0.1412621 -+--
   217   0   0   F    T  2.45D+00 0.00017624 0.00006138 0.00118943 0.00039025    0.1412621 -+--
   218   0   0   F    F  5.53D-02 0.00017624 0.00006138 0.00291428 0.00095616    0.1412612 -+--
   219   0   0   F    T  3.12D+00 0.00020378 0.00005654 0.00095809 0.00032390    0.1412612 -+--
   220   0   0   F    F -3.66D-01 0.00020378 0.00005654 0.00298457 0.00100900    0.1412609 -+--
   221   0   0   F    T  1.76D+00 0.00019541 0.00005955 0.00105155 0.00036423    0.1412607 -+--
   222   0   0   F    F  5.14D-01 0.00019541 0.00005955 0.00184690 0.00063972    0.1412600 -+--
   223   0   0   F    T  1.98D+00 0.00025644 0.00006862 0.00140441 0.00048840    0.1412599 -+--
   224   0   0   F    F -1.34D-01 0.00025644 0.00006862 0.00278415 0.00096822    0.1412592 -+--
   225   0   0   F    T  3.08D+00 0.00015929 0.00005075 0.00079217 0.00027193    0.1412592 -+-+
   226   0   0   F    F -1.60D-01 0.00015929 0.00005075 0.00244146 0.00083810    0.1412586 -+--
   227   0   0   F    T  2.03D+00 0.00018009 0.00005686 0.00101460 0.00034614    0.1412586 -+--
   228   0   0   F    F  1.74D-01 0.00018009 0.00005686 0.00206409 0.00070419    0.1412579 -+--
   229   0   0   F    T  2.22D+00 0.00027997 0.00005866 0.00109143 0.00037302    0.1412579 -+--
   230   0   0   F    F -2.66D-01 0.00027997 0.00005866 0.00241836 0.00082653    0.1412575 -+--
   231   0   0   F    T  2.41D+00 0.00017171 0.00004777 0.00073705 0.00025190    0.1412574 -+-+
   232   0   0   F    F  8.26D-02 0.00017171 0.00004777 0.00177490 0.00060660    0.1412569 -+--
   233   0   0   F    T  2.25D+00 0.00021324 0.00005106 0.00087687 0.00029217    0.1412569 -+-+
   234   0   0   F    F  1.40D-01 0.00021324 0.00005106 0.00197088 0.00065669    0.1412563 -+--
   235   0   0   F    T  2.87D+00 0.00014308 0.00004784 0.00078206 0.00026085    0.1412563 -+-+
   236   0   0   F    F -9.20D-02 0.00014308 0.00004784 0.00224373 0.00074839    0.1412558 -+--
   237   0   0   F    T  1.80D+00 0.00022345 0.00005718 0.00113040 0.00037698    0.1412558 -+--
   238   0   0   F    F  2.69D-01 0.00022345 0.00005718 0.00203767 0.00067955    0.1412552 -+--
   239   0   0   F    T  1.96D+00 0.00019098 0.00006152 0.00132175 0.00044072    0.1412552 -+--
   240   0   0   F    F  6.98D-02 0.00019098 0.00006152 0.00258704 0.00086261    0.1412545 -+--
   241   0   0   F    T  2.08D+00 0.00023495 0.00006140 0.00131340 0.00044324    0.1412545 -+--
   242   0   0   F    F  1.38D-01 0.00023495 0.00006140 0.00273455 0.00092284    0.1412537 -+--
   243   0   0   F    T  2.71D+00 0.00023463 0.00005714 0.00116754 0.00038797    0.1412537 -+--
   244   0   0   F    F -1.69D-01 0.00023463 0.00005714 0.00315942 0.00104987    0.1412531 -+--
   245   0   0   F    T  1.93D+00 0.00024858 0.00006135 0.00136315 0.00045151    0.1412530 -+--
   246   0   0   F    F  2.98D-01 0.00024858 0.00006135 0.00263356 0.00087229    0.1412523 -+--
   247   0   0   F    T  2.34D+00 0.00024597 0.00006324 0.00144931 0.00048380    0.1412522 -+--
   248   0   0   F    F -2.13D-01 0.00024597 0.00006324 0.00339310 0.00113267    0.1412516 -+--
   249   0   0   F    T  2.91D+00 0.00015822 0.00005001 0.00095003 0.00030675    0.1412516 -+--
   250   0   0   F    F -1.68D-01 0.00015822 0.00005001 0.00276059 0.00089135    0.1412511 -+--
   251   0   0   F    T  1.75D+00 0.00024251 0.00005846 0.00135430 0.00042325    0.1412511 -+--
   252   0   0   F    F  3.47D-01 0.00024251 0.00005846 0.00237332 0.00074172    0.1412504 -+--
   253   0   0   F    T  2.29D+00 0.00023782 0.00005900 0.00143483 0.00043526    0.1412504 -+--
   254   0   0   F    F -1.93D-01 0.00023782 0.00005900 0.00329268 0.00099884    0.1412498 -+--
   255   0   0   F    T  2.58D+00 0.00015760 0.00004965 0.00109668 0.00031229    0.1412498 -+--
   256   0   0   F    T  2.24D+00 0.00025521 0.00005226 0.00133365 0.00036017    0.1412493 -+--
   257   0   0   F    T  2.19D+00 0.00015362 0.00005438 0.00140893 0.00036838    0.1412487 -+--
   258   0   0   F    F -7.41D-02 0.00015362 0.00005438 0.00308148 0.00080569    0.1412482 -+--
   259   0   0   F    T  2.00D+00 0.00021799 0.00005349 0.00144328 0.00037228    0.1412482 -+--
   260   0   0   F    F  6.88D-02 0.00021799 0.00005349 0.00289201 0.00074596    0.1412477 -+--
   261   0   0   F    T  2.77D+00 0.00015053 0.00004675 0.00113072 0.00028780    0.1412477 -+-+
   262   0   0   F    F -1.12D-01 0.00015053 0.00004675 0.00313249 0.00079730    0.1412472 -+--
   263   0   0   F    T  2.59D+00 0.00014703 0.00004526 0.00108822 0.00027356    0.1412472 -+-+
   264   0   0   F    T  1.81D+00 0.00017859 0.00005448 0.00158788 0.00039218    0.1412467 -+--
   265   0   0   F    F  3.75D-02 0.00017859 0.00005448 0.00286750 0.00070823    0.1412463 -+--
   266   0   0   F    T  1.93D+00 0.00014446 0.00005180 0.00157007 0.00038125    0.1412463 -+--
   267   0   0   F    F  4.78D-01 0.00014446 0.00005180 0.00302610 0.00073481    0.1412457 -+--
   268   0   0   F    T  3.15D+00 0.00020105 0.00005023 0.00141364 0.00034464    0.1412456 -+--
   269   0   0   F    F -3.50D-01 0.00020105 0.00005023 0.00445427 0.00108592    0.1412453 -+--
   270   0   0   F    T  2.32D+00 0.00022198 0.00004696 0.00124731 0.00030480    0.1412451 -+--
   271   0   0   F    F  1.23D-01 0.00022198 0.00004696 0.00288801 0.00070574    0.1412446 -+--
   272   0   0   F    T  2.55D+00 0.00017353 0.00004711 0.00126169 0.00031041    0.1412446 -+--
   273   0   0   F    F -1.66D-01 0.00017353 0.00004711 0.00322206 0.00079271    0.1412442 -+--
   274   0   0   F    T  2.54D+00 0.00012790 0.00004286 0.00105337 0.00026036    0.1412442 -+-+
   275   0   0   F    F -2.26D-01 0.00012790 0.00004286 0.00267443 0.00066103    0.1412439 -+--
   276   0   0   F    T  2.18D+00 0.00014273 0.00004037 0.00094930 0.00023454    0.1412439 -+-+
   277   0   0   F    F -1.65D-01 0.00014273 0.00004037 0.00207027 0.00051150    0.1412437 -+--
   278   0   0   F    T  2.55D+00 0.00011047 0.00003380 0.00067552 0.00016791    0.1412437 ++-+
   279   0   0   F    F -1.18D-01 0.00011047 0.00003380 0.00171934 0.00042735    0.1412434 ++--
   280   0   0   F    T  1.98D+00 0.00015121 0.00003567 0.00075394 0.00019036    0.1412434 -+-+
   281   0   0   F    F  3.02D-01 0.00015121 0.00003567 0.00149273 0.00037689    0.1412432 -+--
   282   0   0   F    T  2.39D+00 0.00016155 0.00003675 0.00080762 0.00020536    0.1412431 -+-+
   283   0   0   F    F -1.83D-01 0.00016155 0.00003675 0.00192936 0.00049060    0.1412429 -+--
   284   0   0   F    T  2.41D+00 0.00010160 0.00003278 0.00064533 0.00016656    0.1412429 ++-+
   285   0   0   F    F -1.37D-01 0.00010160 0.00003278 0.00155374 0.00040101    0.1412427 ++--
   286   0   0   F    T  2.60D+00 0.00010713 0.00002893 0.00049497 0.00013298    0.1412427 ++-+
   287   0   0   F    F -1.62D-01 0.00010713 0.00002893 0.00128880 0.00034626    0.1412426 ++--
   288   0   0   F    T  2.20D+00 0.00009412 0.00002849 0.00052820 0.00013209    0.1412426 ++-+
   289   0   0   F    F  9.57D-02 0.00009412 0.00002849 0.00116080 0.00029029    0.1412424 ++-+
   290   0   0   F    T  2.18D+00 0.00011882 0.00002961 0.00059746 0.00014571    0.1412424 -+-+
   291   0   0   F    T  2.28D+00 0.00008412 0.00002768 0.00057578 0.00013924    0.1412422 ++-+
   292   0   0   F    F -1.29D-01 0.00008412 0.00002768 0.00131524 0.00031807    0.1412421 ++--
   293   0   0   F    T  3.14D+00 0.00007246 0.00002383 0.00035319 0.00008822    0.1412421 ====
 Energy=    0.141242114739 NIter=   0.
 Dipole moment=       0.000000       0.000000       0.000000
 ***** Axes restored to original set *****
 -------------------------------------------------------------------
 Center     Atomic                   Forces (Hartrees/Bohr)
 Number     Number              X              Y              Z
 -------------------------------------------------------------------
    1          6          -0.000002985   -0.000029132   -0.000052909
    2          6          -0.000019739   -0.000016124   -0.000016066
    3          6          -0.000001507    0.000010268   -0.000001054
    4          6           0.000038098    0.000013896   -0.000012292
    5          6          -0.000046471   -0.000016447   -0.000063140
    6          6           0.000044284    0.000002017    0.000005664
    7          6           0.000002105   -0.000025994    0.000061977
    8          6          -0.000010139   -0.000020213    0.000051546
    9          6          -0.000066274    0.000016172   -0.000034917
   10          6          -0.000016733   -0.000028461   -0.000011263
   11          6           0.000053526   -0.000053768   -0.000024817
   12          6           0.000018719   -0.000020496    0.000039574
   13          6           0.000040397   -0.000022074   -0.000008920
   14          6          -0.000016384    0.000009072   -0.000001704
   15          6          -0.000006968    0.000033505    0.000011862
   16          6          -0.000038230    0.000013880    0.000070313
   17          6          -0.000022815    0.000029969   -0.000007101
   18          7           0.000004233   -0.000030462   -0.000016171
   19          6          -0.000020637   -0.000025382   -0.000016926
   20          6           0.000021947    0.000011403   -0.000025054
   21          6           0.000034671   -0.000001810    0.000019573
   22          6           0.000023105   -0.000004534   -0.000008777
   23          6          -0.000021341   -0.000020029   -0.000003344
   24          6           0.000010326   -0.000003410    0.000012998
   25          6           0.000032995   -0.000035869   -0.000009155
   26          6          -0.000008931   -0.000004638    0.000025446
   27          8           0.000017162    0.000002504    0.000061386
   28          1          -0.000026704    0.000025433   -0.000025432
   29          1          -0.000008998    0.000005944    0.000037762
   30          1           0.000002322   -0.000006540    0.000008116
   31          1          -0.000012964    0.000028207    0.000005850
   32          1          -0.000014687    0.000006157   -0.000003352
   33          1          -0.000011654    0.000041066   -0.000055716
   34          1           0.000017014   -0.000002932    0.000008296
   35          1          -0.000015137    0.000023607   -0.000017956
   36          1           0.000010812   -0.000018885    0.000033539
   37          1           0.000013907   -0.000001743    0.000005306
   38          1          -0.000012932    0.000002083   -0.000012516
   39          1          -0.000008559    0.000002853    0.000014444
   40          1           0.000021641    0.000012292   -0.000010846
   41          1           0.000031568   -0.000007124   -0.000022165
   42          1           0.000018053   -0.000016307   -0.000037010
   43          1          -0.000006022    0.000003150   -0.000014435
   44          1           0.000009871    0.000010749    0.000022409
   45          1          -0.000003519    0.000013320   -0.000016170
   46          1          -0.000029196    0.000025001    0.000009951
   47          1          -0.000001254   -0.000015333   -0.000023274
   48          1          -0.000020733    0.000001799    0.000004494
   49          1          -0.000010402   -0.000001737    0.000047673
   50          1          -0.000013010    0.000017982   -0.000013127
   51          1           0.000036274    0.000016466    0.000007709
   52          1          -0.000009716   -0.000020763   -0.000031546
   53          1          -0.000008135    0.000007184    0.000013833
   54          1           0.000016297    0.000019698    0.000032751
   55          1           0.000001717   -0.000019747   -0.000014111
   56          1           0.000027092    0.000026362   -0.000002353
   57          1          -0.000020027    0.000011218    0.000005188
   58          1          -0.000015332    0.000026696   -0.000004042
 -------------------------------------------------------------------
 Cartesian Forces:  Max     0.000070313 RMS     0.000023828

 GradGradGradGradGradGradGradGradGradGradGradGradGradGradGradGradGradGrad
 Berny optimization.
 Search for a local minimum.
 Step number   1 out of a maximum of   2
 All quantities printed in internal units (Hartrees-Bohrs-Radians)
 Second derivative matrix not updated -- unit matrix used.
 RFO step:  Lambda=-9.87886879D-08.
 Linear search not attempted -- first point.
 TrRot=  0.000000  0.000000  0.000000  0.000000  0.000000  0.000000
 Variable       Old X    -DE/DX   Delta X   Delta X   Delta X     New X
                                 (Linear)    (Quad)   (Total)
    X1       -5.64345   0.00000   0.00000   0.00000   0.00000  -5.64345
    Y1        1.40351  -0.00003   0.00000  -0.00003  -0.00003   1.40348
    Z1       -3.68491  -0.00005   0.00000  -0.00005  -0.00005  -3.68497
    X2       -6.03079  -0.00002   0.00000  -0.00002  -0.00002  -6.03081
    Y2        3.23387  -0.00002   0.00000  -0.00002  -0.00002   3.23385
    Z2       -1.84923  -0.00002   0.00000  -0.00002  -0.00002  -1.84925
    X3       -4.20922   0.00000   0.00000   0.00000   0.00000  -4.20922
    Y3        3.72449   0.00001   0.00000   0.00001   0.00001   3.72450
    Z3        0.02212   0.00000   0.00000   0.00000   0.00000   0.02212
    X4       -3.49742   0.00004   0.00000   0.00004   0.00004  -3.49738
    Y4       -0.09515   0.00001   0.00000   0.00001   0.00001  -0.09513
    Z4       -3.60779  -0.00001   0.00000  -0.00001  -0.00001  -3.60780
    X5       -1.67796  -0.00005   0.00000  -0.00005  -0.00005  -1.67800
    Y5        0.23623  -0.00002   0.00000  -0.00002  -0.00002   0.23621
    Z5       -1.70371  -0.00006   0.00000  -0.00006  -0.00006  -1.70378
    X6       -1.86943   0.00004   0.00000   0.00004   0.00004  -1.86938
    Y6        2.35121   0.00000   0.00000   0.00000   0.00000   2.35121
    Z6       -0.03420   0.00001   0.00000   0.00001   0.00001  -0.03419
    X7       -5.01912   0.00000   0.00000   0.00000   0.00000  -5.01911
    Y7        5.69667  -0.00003   0.00000  -0.00003  -0.00003   5.69664
    Z7        1.95739   0.00006   0.00000   0.00006   0.00006   1.95745
    X8       -3.24660  -0.00001   0.00000  -0.00001  -0.00001  -3.24661
    Y8        6.26284  -0.00002   0.00000  -0.00002  -0.00002   6.26282
    Z8        4.15654   0.00005   0.00000   0.00005   0.00005   4.15659
    X9       -0.83383  -0.00007   0.00000  -0.00007  -0.00007  -0.83390
    Y9        7.38793   0.00002   0.00000   0.00002   0.00002   7.38794
    Z9        3.18013  -0.00003   0.00000  -0.00003  -0.00003   3.18010
   X10        0.42056  -0.00002   0.00000  -0.00002  -0.00002   0.42054
   Y10        3.03001  -0.00003   0.00000  -0.00003  -0.00003   3.02998
   Z10        1.61096  -0.00001   0.00000  -0.00001  -0.00001   1.61095
   X11        0.88981   0.00005   0.00000   0.00005   0.00005   0.88986
   Y11        5.88578  -0.00005   0.00000  -0.00005  -0.00005   5.88573
   Z11        1.80237  -0.00002   0.00000  -0.00002  -0.00002   1.80234
   X12       -0.37293   0.00002   0.00000   0.00002   0.00002  -0.37291
   Y12        9.98166  -0.00002   0.00000  -0.00002  -0.00002   9.98164
   Z12        3.52739   0.00004   0.00000   0.00004   0.00004   3.52743
   X13        1.77572   0.00004   0.00000   0.00004   0.00004   1.77576
   Y13       11.10524  -0.00002   0.00000  -0.00002  -0.00002  11.10522
   Z13        2.50459  -0.00001   0.00000  -0.00001  -0.00001   2.50458
   X14        3.05393  -0.00002   0.00000  -0.00002  -0.00002   3.05391
   Y14        7.07805   0.00001   0.00000   0.00001   0.00001   7.07806
   Z14        0.76893   0.00000   0.00000   0.00000   0.00000   0.76893
   X15        3.47856  -0.00001   0.00000  -0.00001  -0.00001   3.47855
   Y15        9.65842   0.00003   0.00000   0.00003   0.00003   9.65845
   Z15        1.11899   0.00001   0.00000   0.00001   0.00001   1.11901
   X16        0.51984  -0.00004   0.00000  -0.00004  -0.00004   0.51981
   Y16       -1.63668   0.00001   0.00000   0.00001   0.00001  -1.63667
   Z16       -1.55173   0.00007   0.00000   0.00007   0.00007  -1.55166
   X17        2.78618  -0.00002   0.00000  -0.00002  -0.00002   2.78616
   Y17        1.55262   0.00003   0.00000   0.00003   0.00003   1.55265
   Z17        0.77489  -0.00001   0.00000  -0.00001  -0.00001   0.77488
   X18        2.13613   0.00000   0.00000   0.00000   0.00000   2.13613
   Y18       -1.13436  -0.00003   0.00000  -0.00003  -0.00003  -1.13439
   Z18        0.66835  -0.00002   0.00000  -0.00002  -0.00002   0.66834
   X19       -0.42443  -0.00002   0.00000  -0.00002  -0.00002  -0.42445
   Y19       -4.39866  -0.00003   0.00000  -0.00003  -0.00003  -4.39869
   Z19       -1.35337  -0.00002   0.00000  -0.00002  -0.00002  -1.35339
   X20        1.83227   0.00002   0.00000   0.00002   0.00002   1.83229
   Y20       -6.31636   0.00001   0.00000   0.00001   0.00001  -6.31635
   Z20       -1.36226  -0.00003   0.00000  -0.00003  -0.00003  -1.36229
   X21        3.68126   0.00003   0.00000   0.00003   0.00003   3.68129
   Y21       -5.51725   0.00000   0.00000   0.00000   0.00000  -5.51725
   Z21        0.78298   0.00002   0.00000   0.00002   0.00002   0.78300
   X22        4.42135   0.00002   0.00000   0.00002   0.00002   4.42137
   Y22       -2.72089   0.00000   0.00000   0.00000   0.00000  -2.72090
   Z22        0.58350  -0.00001   0.00000  -0.00001  -0.00001   0.58349
   X23        0.91814  -0.00002   0.00000  -0.00002  -0.00002   0.91812
   Y23       -9.17985  -0.00002   0.00000  -0.00002  -0.00002  -9.17987
   Z23       -1.05636   0.00000   0.00000   0.00000   0.00000  -1.05636
   X24       -0.73793   0.00001   0.00000   0.00001   0.00001  -0.73792
   Y24       -9.60204   0.00000   0.00000   0.00000   0.00000  -9.60204
   Z24        1.32415   0.00001   0.00000   0.00001   0.00001   1.32416
   X25        3.22007   0.00003   0.00000   0.00003   0.00003   3.22010
   Y25      -10.98177  -0.00004   0.00000  -0.00004  -0.00004 -10.98181
   Z25       -0.86984  -0.00001   0.00000  -0.00001  -0.00001  -0.86984
   X26       -0.65767  -0.00001   0.00000  -0.00001  -0.00001  -0.65768
   Y26      -10.04652   0.00000   0.00000   0.00000   0.00000 -10.04652
   Z26       -3.37223   0.00003   0.00000   0.00003   0.00003  -3.37221
   X27        3.19705   0.00002   0.00000   0.00002   0.00002   3.19707
   Y27       -6.09375   0.00000   0.00000   0.00000   0.00000  -6.09375
   Z27       -3.64931   0.00006   0.00000   0.00006   0.00006  -3.64925
   X28        1.98877  -0.00003   0.00000  -0.00003  -0.00003   1.98875
   Y28       -5.92696   0.00003   0.00000   0.00003   0.00003  -5.92693
   Z28       -5.07318  -0.00003   0.00000  -0.00003  -0.00003  -5.07321
   X29       -7.05113  -0.00001   0.00000  -0.00001  -0.00001  -7.05114
   Y29        1.09820   0.00001   0.00000   0.00001   0.00001   1.09820
   Z29       -5.13770   0.00004   0.00000   0.00004   0.00004  -5.13766
   X30       -7.78221   0.00000   0.00000   0.00000   0.00000  -7.78221
   Y30        4.29573  -0.00001   0.00000  -0.00001  -0.00001   4.29572
   Z30       -1.89303   0.00001   0.00000   0.00001   0.00001  -1.89302
   X31       -3.27137  -0.00001   0.00000  -0.00001  -0.00001  -3.27139
   Y31       -1.53667   0.00003   0.00000   0.00003   0.00003  -1.53664
   Z31       -5.03976   0.00001   0.00000   0.00001   0.00001  -5.03975
   X32       -6.84195  -0.00001   0.00000  -0.00001  -0.00001  -6.84196
   Y32        5.06521   0.00001   0.00000   0.00001   0.00001   5.06522
   Z32        2.79320   0.00000   0.00000   0.00000   0.00000   2.79320
   X33       -5.41126  -0.00001   0.00000  -0.00001  -0.00001  -5.41127
   Y33        7.49896   0.00004   0.00000   0.00004   0.00004   7.49900
   Z33        0.94624  -0.00006   0.00000  -0.00006  -0.00006   0.94619
   X34       -2.91295   0.00002   0.00000   0.00002   0.00002  -2.91293
   Y34        4.55605   0.00000   0.00000   0.00000   0.00000   4.55605
   Z34        5.32434   0.00001   0.00000   0.00001   0.00001   5.32434
   X35       -4.21846  -0.00002   0.00000  -0.00002  -0.00002  -4.21847
   Y35        7.62570   0.00002   0.00000   0.00002   0.00002   7.62573
   Z35        5.42826  -0.00002   0.00000  -0.00002  -0.00002   5.42824
   X36        0.02747   0.00001   0.00000   0.00001   0.00001   0.02748
   Y36        2.31442  -0.00002   0.00000  -0.00002  -0.00002   2.31440
   Z36        3.54326   0.00003   0.00000   0.00003   0.00003   3.54329
   X37       -1.69744   0.00001   0.00000   0.00001   0.00001  -1.69743
   Y37       11.14689   0.00000   0.00000   0.00000   0.00000  11.14689
   Z37        4.56504   0.00001   0.00000   0.00001   0.00001   4.56504
   X38        2.11275  -0.00001   0.00000  -0.00001  -0.00001   2.11273
   Y38       13.10480   0.00000   0.00000   0.00000   0.00000  13.10480
   Z38        2.77309  -0.00001   0.00000  -0.00001  -0.00001   2.77307
   X39        4.45478  -0.00001   0.00000  -0.00001  -0.00001   4.45477
   Y39        6.05776   0.00000   0.00000   0.00000   0.00000   6.05777
   Z39       -0.30206   0.00001   0.00000   0.00001   0.00001  -0.30204
   X40        5.14420   0.00002   0.00000   0.00002   0.00002   5.14422
   Y40       10.53673   0.00001   0.00000   0.00001   0.00001  10.53674
   Z40        0.31965  -0.00001   0.00000  -0.00001  -0.00001   0.31964
   X41        1.62928   0.00003   0.00000   0.00003   0.00003   1.62931
   Y41       -1.41860  -0.00001   0.00000  -0.00001  -0.00001  -1.41861
   Z41       -3.32963  -0.00002   0.00000  -0.00002  -0.00002  -3.32966
   X42        4.31176   0.00002   0.00000   0.00002   0.00002   4.31178
   Y42        1.89038  -0.00002   0.00000  -0.00002  -0.00002   1.89037
   Z42        2.18539  -0.00004   0.00000  -0.00004  -0.00004   2.18535
   X43        3.46113  -0.00001   0.00000  -0.00001  -0.00001   3.46113
   Y43        2.18431   0.00000   0.00000   0.00000   0.00000   2.18432
   Z43       -1.11563  -0.00001   0.00000  -0.00001  -0.00001  -1.11565
   X44       -1.52270   0.00001   0.00000   0.00001   0.00001  -1.52269
   Y44       -4.56193   0.00001   0.00000   0.00001   0.00001  -4.56192
   Z44        0.42650   0.00002   0.00000   0.00002   0.00002   0.42652
   X45       -1.71549   0.00000   0.00000   0.00000   0.00000  -1.71549
   Y45       -4.83192   0.00001   0.00000   0.00001   0.00001  -4.83191
   Z45       -2.93771  -0.00002   0.00000  -0.00002  -0.00002  -2.93773
   X46        5.45130  -0.00003   0.00000  -0.00003  -0.00003   5.45127
   Y46       -6.63971   0.00003   0.00000   0.00003   0.00003  -6.63969
   Z46        0.68865   0.00001   0.00000   0.00001   0.00001   0.68866
   X47        2.82010   0.00000   0.00000   0.00000   0.00000   2.82010
   Y47       -5.81199  -0.00002   0.00000  -0.00002  -0.00002  -5.81201
   Z47        2.67005  -0.00002   0.00000  -0.00002  -0.00002   2.67003
   X48        5.66838  -0.00002   0.00000  -0.00002  -0.00002   5.66836
   Y48       -2.27384   0.00000   0.00000   0.00000   0.00000  -2.27384
   Z48        2.21639   0.00000   0.00000   0.00000   0.00000   2.21639
   X49        5.52021  -0.00001   0.00000  -0.00001  -0.00001   5.52019
   Y49       -2.37351   0.00000   0.00000   0.00000   0.00000  -2.37351
   Z49       -1.17849   0.00005   0.00000   0.00005   0.00005  -1.17845
   X50       -1.21945  -0.00001   0.00000  -0.00001  -0.00001  -1.21947
   Y50      -11.63750   0.00002   0.00000   0.00002   0.00002 -11.63749
   Z50        1.52515  -0.00001   0.00000  -0.00001  -0.00001   1.52514
   X51       -2.55667   0.00004   0.00000   0.00004   0.00004  -2.55663
   Y51       -8.56806   0.00002   0.00000   0.00002   0.00002  -8.56804
   Z51        1.19448   0.00001   0.00000   0.00001   0.00001   1.19449
   X52        0.24729  -0.00001   0.00000  -0.00001  -0.00001   0.24728
   Y52       -9.03838  -0.00002   0.00000  -0.00002  -0.00002  -9.03840
   Z52        3.08231  -0.00003   0.00000  -0.00003  -0.00003   3.08228
   X53        2.61090  -0.00001   0.00000  -0.00001  -0.00001   2.61089
   Y53      -12.99099   0.00001   0.00000   0.00001   0.00001 -12.99098
   Z53       -0.95343   0.00001   0.00000   0.00001   0.00001  -0.95342
   X54        4.23747   0.00002   0.00000   0.00002   0.00002   4.23749
   Y54      -10.73918   0.00002   0.00000   0.00002   0.00002 -10.73916
   Z54        0.94847   0.00003   0.00000   0.00003   0.00003   0.94850
   X55        4.56394   0.00000   0.00000   0.00000   0.00000   4.56394
   Y55      -10.65210  -0.00002   0.00000  -0.00002  -0.00002 -10.65212
   Z55       -2.44824  -0.00001   0.00000  -0.00001  -0.00001  -2.44825
   X56       -1.27251   0.00003   0.00000   0.00003   0.00003  -1.27249
   Y56      -12.04295   0.00003   0.00000   0.00003   0.00003 -12.04292
   Z56       -3.14367   0.00000   0.00000   0.00000   0.00000  -3.14367
   X57        0.46135  -0.00002   0.00000  -0.00002  -0.00002   0.46133
   Y57       -9.95283   0.00001   0.00000   0.00001   0.00001  -9.95282
   Z57       -5.14386   0.00001   0.00000   0.00001   0.00001  -5.14385
   X58       -2.39874  -0.00002   0.00000  -0.00002  -0.00002  -2.39876
   Y58       -8.90549   0.00003   0.00000   0.00003   0.00003  -8.90547
   Z58       -3.60186   0.00000   0.00000   0.00000   0.00000  -3.60186
         Item               Value     Threshold  Converged?
 Maximum Force            0.000070     0.000450     YES
 RMS     Force            0.000024     0.000300     YES
 Maximum Displacement     0.000070     0.001800     YES
 RMS     Displacement     0.000024     0.001200     YES
 Predicted change in Energy=-4.939433D-08
 Optimization completed.
    -- Stationary point found.
 GradGradGradGradGradGradGradGradGradGradGradGradGradGradGradGradGradGrad

 Stoichiometry    C25H31NO
 Framework group  C1[X(C25H31NO)]
 Deg. of freedom   168
 Full point group                 C1
 Largest Abelian subgroup         C1      NOp   1
 Largest concise Abelian subgroup C1      NOp   1
                         Standard orientation:                         
 ---------------------------------------------------------------------
 Center     Atomic     Atomic              Coordinates (Angstroms)
 Number     Number      Type              X           Y           Z
 ---------------------------------------------------------------------
    1          6      10061000        0.702408    3.370035   -1.193356
    2          6      10061000        1.864088    3.227827   -0.449001
    3          6      10061000        2.196468    2.006617    0.163694
    4          6      10061000       -0.200111    2.321798   -1.276509
    5          6      10061000        0.053988    1.101935   -0.628141
    6          6      10061000        1.331602    0.876427   -0.027940
    7          6      10061003        3.469233    2.058465    0.999762
    8          6      10061003        3.878507    0.809949    1.772776
    9          6      10061000        4.195928   -0.299982    0.814181
   10          6      10061003        1.706158   -0.553724    0.384126
   11          6      10061000        3.164534   -0.914051    0.069519
   12          6      10061000        5.536653   -0.671074    0.609535
   13          6      10061000        5.865597   -1.640288   -0.334753
   14          6      10061000        3.526661   -1.891745   -0.890481
   15          6      10061000        4.863181   -2.244467   -1.087028
   16          6      10061003       -1.036422    0.028474   -0.636437
   17          6      10061003        0.703189   -1.575470   -0.185200
   18          7      10071003       -0.647565   -1.142064    0.176597
   19          6      10061003       -2.374146    0.567042   -0.073102
   20          6      10061003       -3.508530   -0.510385   -0.164048
   21          6      10061003       -2.990182   -1.797091    0.543468
   22          6      10061003       -1.621576   -2.233306    0.004144
   23          6      10061003       -4.888997   -0.000019    0.460585
   24          6      10061003       -4.745062    0.491286    1.924373
   25          6      10061003       -5.946018   -1.133730    0.446233
   26          6      10061003       -5.478044    1.176527   -0.361805
   27          8      10081003       -3.726166   -0.861895   -1.516548
   28          1      10011000       -3.712902   -0.040382   -2.072686
   29          1      10011000        0.482815    4.312342   -1.679006
   30          1      10011000        2.519774    4.085717   -0.352249
   31          1      10011000       -1.108389    2.471691   -1.844815
   32          1      10011000        3.352243    2.874961    1.746340
   33          1      10011000        4.314212    2.350743    0.336771
   34          1      10011000        3.103105    0.520402    2.510163
   35          1      10011000        4.777956    1.064274    2.375938
   36          1      10011000        1.569167   -0.623933    1.483459
   37          1      10011000        6.332592   -0.196362    1.169997
   38          1      10011000        6.900468   -1.917234   -0.489555
   39          1      10011000        2.796739   -2.404795   -1.495637
   40          1      10011000        5.121249   -2.995070   -1.823126
   41          1      10011000       -1.185610   -0.270792   -1.700077
   42          1      10011000        0.927283   -2.572097    0.259009
   43          1      10011000        0.783082   -1.651446   -1.293350
   44          1      10011000       -2.197286    0.858559    0.983349
   45          1      10011000       -2.681131    1.474473   -0.624973
   46          1      10011000       -3.692931   -2.641491    0.382910
   47          1      10011000       -2.885009   -1.637459    1.635552
   48          1      10011000       -1.299468   -3.126268    0.584617
   49          1      10011000       -1.701888   -2.533883   -1.065674
   50          1      10011000       -5.739069    0.771418    2.336577
   51          1      10011000       -4.108448    1.397156    1.991370
   52          1      10011000       -4.332591   -0.292015    2.589733
   53          1      10011000       -6.948448   -0.746773    0.732123
   54          1      10011000       -5.694371   -1.931862    1.175506
   55          1      10011000       -6.031910   -1.585502   -0.564876
   56          1      10011000       -6.440349    1.518663    0.078105
   57          1      10011000       -5.691164    0.875550   -1.408712
   58          1      10011000       -4.802071    2.054721   -0.368160
 ---------------------------------------------------------------------
 Rotational constants (GHZ):      0.4071235      0.1051587      0.0926678
 1|1|UNPC-UNK|FOpt|UFF|ZDO|C25H31N1O1|PCUSER|13-Dec-2007|0||# opt uff||
 butaclahol-1e||0,1|C,-2.9863847172,0.7427045404,-1.9499716678|C,-3.191
 3567297,1.7112889105,-0.9785718604|C,-2.227423692,1.9709149129,0.01170
 76838|C,-1.8507553411,-0.0503496054,-1.909158072|C,-0.887935999,0.1250
 071194,-0.9015656455|C,-0.9892586201,1.2442072091,-0.018096537|C,-2.65
 60014455,3.0145474664,1.0358073234|C,-1.7180267397,3.3141532958,2.1995
 462513|C,-0.4412455849,3.9095232773,1.6828548584|C,0.2225511354,1.6034
 13396,0.8524843147|C,0.4708657021,3.1146222923,0.9537718918|C,-0.19734
 40604,5.2820679303,1.8666150691|C,0.9396690613,5.8766389656,1.32537018
 4|C,1.6160708756,3.7455410825,0.4068995336|C,1.8407741832,5.1110164495
 ,0.5921457625|C,0.2750895843,-0.8660961698,-0.8211393632|C,1.474384297
 ,0.821612629,0.4100523907|N,1.1303907692,-0.6002755254,0.3536771753|C,
 -0.2245992246,-2.3276712651,-0.7161744153|C,0.9695957059,-3.3424736861
 ,-0.7208785952|C,1.9480373654,-2.9196031969,0.414333708|C,2.3396751291
 ,-1.439835501,0.3087750771|C,0.485858185,-4.8577695352,-0.5589992662|C
 ,-0.3904981914,-5.0811799895,0.7007075906|C,1.7039850489,-5.8113032568
 ,-0.4602970635|C,-0.348023258,-5.3163882854,-1.7845090931|O,1.69180791
 65,-3.2246761364,-1.9311318852|H,1.0524134661,-3.136411733,-2.68461180
 16|H,-3.7312961214,0.5811404083,-2.7187521584|H,-4.11816789,2.27320069
 35,-1.0017477386|H,-1.731136704,-0.8131683771,-2.6669234829|H,-3.62060
 15843,2.6803958555,1.4780973908|H,-2.8635133145,3.9682794003,0.5007307
 693|H,-1.5414669723,2.4109569274,2.8175172212|H,-2.2323117968,4.035348
 8377,2.8725125025|H,0.0145379332,1.2247358435,1.8750110403|H,-0.898249
 1861,5.8986791251,2.4157131874|H,1.1180167153,6.9347623336,1.467453593
 8|H,2.3573676017,3.2056301957,-0.1598408227|H,2.722193782,5.5757958698
 ,0.1691517236|H,0.8621767441,-0.750690164,-1.7619668899|H,2.2816875311
 ,1.0003469288,1.156457026|H,1.8315534861,1.1558894602,-0.5903677412|H,
 -0.8057791482,-2.4140681063,0.2256938339|H,-0.9077980922,-2.5569442709
 ,-1.5545686358|H,2.8847027225,-3.5135851109,0.364416548|H,1.4923323688
 ,-3.0755730247,1.4129313171|H,2.9995774389,-1.2032651716,1.172862848|H
 ,2.9211666916,-1.256006989,-0.623631772|H,-0.6453068877,-6.1583020386,
 0.8070771818|H,-1.3529297853,-4.5340203765,0.6320938904|H,0.1308617302
 ,-4.7829041482,1.6310902985|H,1.3816271041,-6.8745356006,-0.5045334984
 |H,2.2423735632,-5.6829291715,0.5019075792|H,2.4151338979,-5.636848934
 7,-1.2955507949|H,-0.6733853237,-6.3728542846,-1.6635592742|H,0.244137
 1052,-5.2668112351,-2.7220110392|H,-1.2693592714,-4.7125846663,-1.9060
 196718||Version=IA32W-G03RevD.01|HF=0.1412421|RMSD=0.000e+000|RMSF=2.3
 83e-005|Thermal=0.|Dipole=0.,0.,0.|PG=C01 [X(C25H31N1O1)]||@


 What some people mistake for the high cost
 of living is really the cost of living high.
                              -- Doug Larson
 Job cpu time:  0 days  0 hours  0 minutes  4.0 seconds.
 File lengths (MBytes):  RWF=     12 Int=      0 D2E=      0 Chk=      4 Scr=      1
 Normal termination of Gaussian 03 at Thu Dec 13 15:29:37 2007.
