! Job execution by suborca V 6.07 on ZEUS !
Job started from zeus1, running /scratch/pantazis/1_2_ethanediol_a_a_a__RR597o/orca/orca copied from /opt/orca on zeussn123 in /scratch/pantazis/1_2_ethanediol_a_a_a__RR597o
Job execution start: Thu Jun 27 13:08:27 CEST 2019
Shared library path: /scratch/pantazis/1_2_ethanediol_a_a_a__RR597o/orca:/opt/openmpi_1.10.2/lib:/opt/intel/mkl/lib/intel64:/opt/intel/lib/intel64:
PBS Job ID is: 158099.icqc
izeussn123
izeussn123
izeussn123
izeussn123
izeussn123
izeussn123
izeussn123
izeussn123

                                 *****************
                                 * O   R   C   A *
                                 *****************

           --- An Ab Initio, DFT and Semiempirical electronic structure package ---

                  #######################################################
                  #                        -***-                        #
                  #          Department of theory and spectroscopy      #
                  #               Directorship: Frank Neese             #
                  #        Max Planck Institute fuer Kohlenforschung    #
                  #                Kaiser Wilhelm Platz 1               #
                  #                 D-45470 Muelheim/Ruhr               #
                  #                      Germany                        #
                  #                                                     #
                  #                  All rights reserved                #
                  #                        -***-                        #
                  #######################################################


                         Program Version 4.1.x  -  STABLE  -
                                (SVN: $Rev: 14094$)
                ($Date: 2019-06-14 15:01:15 +0200 (Fri, 14 Jun 2019) $)

                         (BUILD: $Sun Jun 23 06:18:31 CEST 2019$)


 With contributions from (in alphabetic order):
   Daniel Aravena         : Magnetic Properties
   Michael Atanasov       : Ab Initio Ligand Field Theory
   Alexander A. Auer      : GIAO ZORA
   Ute Becker             : Parallelization
   Giovanni Bistoni       : ED, Open-shell LED
   Martin Brehm           : Molecular dynamics
   Dmytro Bykov           : SCF Hessian
   Vijay G. Chilkuri      : MRCI spin determinant printing
   Dipayan Datta          : RHF DLPNO-CCSD density
   Achintya Kumar Dutta   : EOM-CC, STEOM-CC
   Dmitry Ganyushin       : Spin-Orbit,Spin-Spin,Magnetic field MRCI
   Miquel Garcia          : C-PCM Hessian
   Yang Guo               : DLPNO-NEVPT2, CIM, IAO-localization
   Andreas Hansen         : Spin unrestricted coupled pair/coupled cluster methods
   Benjamin Helmich-Paris : CASSCF linear response (MC-RPA)
   Lee Huntington         : MR-EOM, pCC
   Robert Izsak           : Overlap fitted RIJCOSX, COSX-SCS-MP3, EOM
   Christian Kollmar      : KDIIS, OOCD, Brueckner-CCSD(T), CCSD density
   Simone Kossmann        : Meta GGA functionals, TD-DFT gradient, OOMP2, MP2 Hessian
   Martin Krupicka        : AUTO-CI
   Lucas Lang             : DCDCAS
   Dagmar Lenk            : GEPOL surface, SMD
   Dimitrios Liakos       : Extrapolation schemes; parallel MDCI
   Dimitrios Manganas     : ROCIS; embedding schemes
   Dimitrios Pantazis     : SARC Basis sets
   Taras Petrenko         : DFT Hessian,TD-DFT gradient, ASA, ECA, R-Raman, ABS, FL, XAS/XES, NRVS
   Peter Pinski           : DLPNO-MP2, DLPNO-MP2 Gradient
   Christoph Reimann      : Effective Core Potentials
   Marius Retegan         : Local ZFS, SOC
   Christoph Riplinger    : Optimizer, TS searches, QM/MM, DLPNO-CCSD(T), (RO)-DLPNO pert. Triples
   Tobias Risthaus        : Range-separated hybrids, TD-DFT gradient, RPA, STAB
   Michael Roemelt        : Restricted open shell CIS
   Masaaki Saitow         : Open-shell DLPNO
   Barbara Sandhoefer     : DKH picture change effects
   Avijit Sen             : IP-ROCIS
   Kantharuban Sivalingam : CASSCF convergence, NEVPT2, FIC-MRCI
   Bernardo de Souza      : ESD, SOC TD-DFT
   Georgi Stoychev        : AutoAux, RI-MP2 NMR
   Willem Van den Heuvel  : Paramagnetic NMR
   Boris Wezisla          : Elementary symmetry handling
   Frank Wennmohs         : Technical directorship


 We gratefully acknowledge several colleagues who have allowed us to
 interface, adapt or use parts of their codes:
   Stefan Grimme, W. Hujo, H. Kruse,             : VdW corrections, initial TS optimization,
                  C. Bannwarth                     DFT functionals, gCP, sTDA/sTD-DF
   Ed Valeev                                     : LibInt (2-el integral package), F12 methods
   Garnet Chan, S. Sharma, J. Yang, R. Olivares  : DMRG
   Ulf Ekstrom                                   : XCFun DFT Library
   Mihaly Kallay                                 : mrcc  (arbitrary order and MRCC methods)
   Andreas Klamt, Michael Diedenhofen            : otool_cosmo (COSMO solvation model)
   Jiri Pittner, Ondrej Demel                    : Mk-CCSD
   Frank Weinhold                                : gennbo (NPA and NBO analysis)
   Christopher J. Cramer and Donald G. Truhlar   : smd solvation model
   Lars Goerigk                                  : TD-DFT with DH, B97 family of functionals
   V. Asgeirsson, H. Jonsson                     : NEB implementation
   FAccTs GmbH                                   : IRC, NEB, NEB-TS, Multilevel


 Your calculation uses the libint2 library for the computation of 2-el integrals
 For citations please refer to: http://libint.valeyev.net

 This ORCA versions uses:
   CBLAS   interface :  Fast vector & matrix operations
   LAPACKE interface :  Fast linear algebra routines
   SCALAPACK package :  Parallel linear algebra routines




***************************************
The coordinates will be read from file: 1_2_ethanediol_a_a_a.xyz
***************************************


----- Orbital basis set information -----
Your calculation utilizes the basis: cc-pVTZ 
       H, B-Ne : Obtained from the ccRepo (grant-hill.group.shef.ac.uk/ccrepo) Feb. 2017
                 T. H. Dunning, Jr., J. Chem. Phys. 90, 1007 (1989)
            He : Obtained from the ccRepo (grant-hill.group.shef.ac.uk/ccrepo) Feb. 2017
                 D. E. Woon, T. H. Dunning, Jr., J. Chem. Phys. 100, 2975 (1994)
  Li-Be, Na-Mg : Obtained from the ccRepo (grant-hill.group.shef.ac.uk/ccrepo) Feb. 2017
                 B. P. Prascher, D. E. Woon, K. A. Peterson, T. H. Dunning, Jr., A. K. Wilson, Theor. Chem. Acc. 128, 69 (2011)
         Al-Ar : Obtained from the ccRepo (grant-hill.group.shef.ac.uk/ccrepo) Feb. 2017
                 D. E. Woon, T. H. Dunning, Jr., J. Chem. Phys. 98, 1358 (1993)
            Ca : Obtained from the Peterson Research Group Website (tyr0.chem.wsu.edu/~kipeters) Feb. 2017
                 J. Koput, K. A. Peterson, J. Phys. Chem. 106, 9595 (2002)
         Sc-Zn : Obtained from the ccRepo (grant-hill.group.shef.ac.uk/ccrepo) Feb. 2017
                 N. B. Balabanov, K. A. Peterson, J. Chem. Phys. 123, 064107 (2005)
                 N. B. Balabanov, K. A. Peterson, J. Chem. Phys. 125, 074110 (2006)
         Ga-Kr : Obtained from the ccRepo (grant-hill.group.shef.ac.uk/ccrepo) Feb. 2017
                 A. K. Wilson, D. E. Woon, K. A. Peterson, T. H. Dunning, Jr., J. Chem. Phys. 110, 7667 (1999)
             Y : Obtained from the ccRepo (grant-hill.group.shef.ac.uk/ccrepo) Feb. 2017
                 K. A. Peterson, D. Figgen, M. Dolg, H. Stoll, J. Chem. Phys. 126, 124101 (2007)
        Ag, Au : Obtained from the Peterson Research Group Website (tyr0.chem.wsu.edu/~kipeters) Feb. 2017
                 K. A. Peterson, C. Puzzarini, Theor. Chem. Acc. 114, 283 (2005)

----- AuxC basis set information -----
Your calculation utilizes the auxiliary basis: cc-pVTZ/C 
  Obtained from the EMSL Basis Set Exchange (bse.pnl.gov) Feb. 2017
  H-He, B-F, Al-Ar, Ga-Kr : F. Weigend, A. Kohn, C. Hattig, J. Chem. Phys. 116, 3175 (2002)
             Li-Be, Na-Mg : C. Haettig, Phys. Chem. Chem. Phys. 7, 59 (2005)
                       Ne : C. Haettig, Phys. Chem. Chem. Phys. 7, 59 (2005)
                            F. Weigend, A. Kohn, C. Hattig, J. Chem. Phys. 116, 3175 (2002)
                    Sc-Zn : J. G. Hill, J. A. Platts, J. Chem. Phys. 128, 044104 (2008)

----- AuxJK basis set information -----
Your calculation utilizes the auxiliary basis: cc-pVTZ/JK 
  H, B-F, Al-Cl, Ga-Br : Obtained from the TURBOMOLE 7.0 basis set library

================================================================================
                                        WARNINGS
                       Please study these warnings very carefully!
================================================================================


WARNING: MDCI localization with Augmented Hessian Foster-Boys
  ===> : Switching off randomization!

WARNING: Post HF methods need fully converged wavefunctions
  ===> : Setting SCFConvForced true
         You can overwrite this default with %scf ConvForced false 


INFO   : the flag for use of LIBINT has been found!

================================================================================
                                       INPUT FILE
================================================================================
NAME = 1_2_ethanediol_a_a_a.inp
|  1> ! RHF DLPNO-CCSD(T) cc-pVTZ RIJK cc-pVTZ/JK cc-pVTZ/C
|  2> ! KDIIS SOSCF TightSCF TightPNO
|  3> 
|  4> %pal nprocs 8 end
|  5> 
|  6> %maxcore 8000
|  7> 
|  8> %scf maxiter 300
|  9>      shift shift 0.2 erroff 0.1 end
| 10> end
| 11> 
| 12> * xyzfile 0 1 1_2_ethanediol_a_a_a.xyz 
| 13> 
| 14> 
| 15>                          ****END OF INPUT****
================================================================================

                       ****************************
                       * Single Point Calculation *
                       ****************************

---------------------------------
CARTESIAN COORDINATES (ANGSTROEM)
---------------------------------
  C     -0.574610    0.497900    0.000080
  O     -1.784380   -0.260910   -0.000010
  C      0.574610   -0.497890   -0.000010
  O      1.784390    0.260890   -0.000110
  H     -0.501530    1.136820    0.891020
  H     -0.501490    1.136990   -0.890740
  H      0.501550   -1.136910    0.890860
  H      0.501430   -1.136890   -0.890890
  H     -2.537550    0.341860   -0.000170
  H      2.537550   -0.341880    0.000540

----------------------------
CARTESIAN COORDINATES (A.U.)
----------------------------
  NO LB      ZA    FRAG     MASS         X           Y           Z
   0 C     6.0000    0    12.011   -1.085856    0.940895    0.000151
   1 O     8.0000    0    15.999   -3.371990   -0.493048   -0.000019
   2 C     6.0000    0    12.011    1.085856   -0.940876   -0.000019
   3 O     8.0000    0    15.999    3.372008    0.493011   -0.000208
   4 H     1.0000    0     1.008   -0.947754    2.148278    1.683784
   5 H     1.0000    0     1.008   -0.947679    2.148600   -1.683255
   6 H     1.0000    0     1.008    0.947792   -2.148449    1.683481
   7 H     1.0000    0     1.008    0.947565   -2.148411   -1.683538
   8 H     1.0000    0     1.008   -4.795275    0.646022   -0.000321
   9 H     1.0000    0     1.008    4.795275   -0.646060    0.001020

--------------------------------
INTERNAL COORDINATES (ANGSTROEM)
--------------------------------
 C      0   0   0     0.000000000000     0.00000000     0.00000000
 O      1   0   0     1.428053247292     0.00000000     0.00000000
 C      1   2   0     1.520626298799   106.99395714     0.00000000
 O      3   1   2     1.428045778958   106.99519047   179.99202887
 H      1   2   3     1.098787302620   111.43024552   240.57474092
 H      1   2   3     1.098791533868   111.43082695   119.42385952
 H      3   1   2     1.098787368375   109.30178849   300.78132878
 H      3   1   2     1.098791830512   109.30179911    59.20510140
 H      2   1   3     0.964674425597   109.23196635   180.01345449
 H      4   3   1     0.964666823831   109.23282032   179.95539212

---------------------------
INTERNAL COORDINATES (A.U.)
---------------------------
 C      0   0   0     0.000000000000     0.00000000     0.00000000
 O      1   0   0     2.698629542038     0.00000000     0.00000000
 C      1   2   0     2.873567256769   106.99395714     0.00000000
 O      3   1   2     2.698615428933   106.99519047   179.99202887
 H      1   2   3     2.076407081383   111.43024552   240.57474092
 H      1   2   3     2.076415077282   111.43082695   119.42385952
 H      3   1   2     2.076407205640   109.30178849   300.78132878
 H      3   1   2     2.076415637858   109.30179911    59.20510140
 H      2   1   3     1.822970472775   109.23196635   180.01345449
 H      4   3   1     1.822956107520   109.23282032   179.95539212

---------------------
BASIS SET INFORMATION
---------------------
There are 3 groups of distinct atoms

 Group   1 Type C   : 18s5p2d1f contracted to 4s3p2d1f pattern {8811/311/11/1}
 Group   2 Type O   : 18s5p2d1f contracted to 4s3p2d1f pattern {8811/311/11/1}
 Group   3 Type H   : 5s2p1d contracted to 3s2p1d pattern {311/11/1}

Atom   0C    basis set group =>   1
Atom   1O    basis set group =>   2
Atom   2C    basis set group =>   1
Atom   3O    basis set group =>   2
Atom   4H    basis set group =>   3
Atom   5H    basis set group =>   3
Atom   6H    basis set group =>   3
Atom   7H    basis set group =>   3
Atom   8H    basis set group =>   3
Atom   9H    basis set group =>   3
-------------------------------
AUXILIARY BASIS SET INFORMATION
-------------------------------
There are 3 groups of distinct atoms

 Group   1 Type C   : 8s6p5d3f1g contracted to 8s6p5d3f1g pattern {11111111/111111/11111/111/1}
 Group   2 Type O   : 8s6p5d3f1g contracted to 8s6p5d3f1g pattern {11111111/111111/11111/111/1}
 Group   3 Type H   : 4s3p2d1f contracted to 4s3p2d1f pattern {1111/111/11/1}

Atom   0C    basis set group =>   1
Atom   1O    basis set group =>   2
Atom   2C    basis set group =>   1
Atom   3O    basis set group =>   2
Atom   4H    basis set group =>   3
Atom   5H    basis set group =>   3
Atom   6H    basis set group =>   3
Atom   7H    basis set group =>   3
Atom   8H    basis set group =>   3
Atom   9H    basis set group =>   3
-------------------------------
AUXILIARY BASIS SET INFORMATION
-------------------------------
There are 3 groups of distinct atoms

 Group   1 Type C   : 10s7p5d2f1g contracted to 10s7p5d2f1g pattern {1111111111/1111111/11111/11/1}
 Group   2 Type O   : 10s7p5d2f1g contracted to 10s7p5d2f1g pattern {1111111111/1111111/11111/11/1}
 Group   3 Type H   : 4s3p2d1f contracted to 4s3p2d1f pattern {1111/111/11/1}

Atom   0C    basis set group =>   1
Atom   1O    basis set group =>   2
Atom   2C    basis set group =>   1
Atom   3O    basis set group =>   2
Atom   4H    basis set group =>   3
Atom   5H    basis set group =>   3
Atom   6H    basis set group =>   3
Atom   7H    basis set group =>   3
Atom   8H    basis set group =>   3
Atom   9H    basis set group =>   3


           ************************************************************
           *        Program running with 8 parallel MPI-processes     *
           *              working on a common directory               *
           ************************************************************
------------------------------------------------------------------------------
                           ORCA GTO INTEGRAL CALCULATION
                           -- RI-GTO INTEGRALS CHOSEN --
------------------------------------------------------------------------------

                         BASIS SET STATISTICS AND STARTUP INFO

Gaussian basis set:
 # of primitive gaussian shells          ...  152
 # of primitive gaussian functions       ...  296
 # of contracted shells                  ...   76
 # of contracted basis functions         ...  204
 Highest angular momentum                ...    3
 Maximum contraction depth               ...    8
Auxiliary gaussian basis set:
 # of primitive gaussian shells          ...  160
 # of primitive gaussian functions       ...  496
 # of contracted shells                  ...  160
 # of contracted aux-basis functions     ...  496
 Highest angular momentum                ...    4
 Maximum contraction depth               ...    1
Ratio of auxiliary to basis functions    ...  2.43
Integral package used                  ... LIBINT
 One Electron integrals                  ... done
 Ordering auxiliary basis shells         ... done
 Integral threshhold             Thresh  ...  2.500e-11
 Primitive cut-off               TCut    ...  2.500e-12
 Pre-screening matrix                    ... done
 Shell pair data                         ... 
 Ordering of the shell pairs             ... done (   0.001 sec) 2864 of 2926 pairs
 Determination of significant pairs      ... done (   0.000 sec)
 Creation of shell pair data             ... done (   0.001 sec)
 Storage of shell pair data              ... done (   0.002 sec)
 Shell pair data done in (   0.003 sec)
 Computing two index integrals           ... done
 Cholesky decomposition of the V-matrix  ... done


Timings:
 Total evaluation time                   ...   0.319 sec (  0.005 min)
 One electron matrix time                ...   0.055 sec (  0.001 min) = 17.3%
 Schwartz matrix evaluation time         ...   0.166 sec (  0.003 min) = 52.1%
 Two index repulsion integral time       ...   0.038 sec (  0.001 min) = 12.1%
 Cholesky decomposition of V             ...   0.030 sec (  0.000 min) =  9.4%
 Three index repulsion integral time     ...   0.000 sec (  0.000 min) =  0.0%



           ************************************************************
           *        Program running with 8 parallel MPI-processes     *
           *              working on a common directory               *
           ************************************************************
-------------------------------------------------------------------------------
                                 ORCA SCF
-------------------------------------------------------------------------------

------------
SCF SETTINGS
------------
Hamiltonian:
 Ab initio Hamiltonian  Method          .... Hartree-Fock(GTOs)
 RI-approximation to the Coulomb term is turned on
   Number of auxiliary basis functions  .... 496
   RI-JK (J+K treated both via RI)      .... on


General Settings:
 Integral files         IntName         .... 1_2_ethanediol_a_a_a
 Hartree-Fock type      HFTyp           .... RHF
 Total Charge           Charge          ....    0
 Multiplicity           Mult            ....    1
 Number of Electrons    NEL             ....   34
 Basis Dimension        Dim             ....  204
 Nuclear Repulsion      ENuc            ....    129.8646855819 Eh

Convergence Acceleration:
 DIIS                   CNVDIIS         .... off
 Newton-Raphson         CNVNR           .... off
 SOSCF                  CNVSOSCF        .... on
   Start iteration      SOSCFMaxIt      ....   150
   Startup grad/error   SOSCFStart      ....  0.003300
 Level Shifting         CNVShift        .... on
   Level shift para.    LevelShift      ....    0.2000
   Turn off err/grad.   ShiftErr        ....    0.1000
 Zerner damping         CNVZerner       .... off
 Static damping         CNVDamp         .... off
 Fernandez-Rico         CNVRico         .... off

SCF Procedure:
 Maximum # iterations   MaxIter         ....   300
 SCF integral mode      SCFMode         .... Direct
   Integral package                     .... LIBINT
 Reset frequency        DirectResetFreq ....    20
 Integral Threshold     Thresh          ....  2.500e-11 Eh
 Primitive CutOff       TCut            ....  2.500e-12 Eh

Convergence Tolerance:
 Convergence Check Mode ConvCheckMode   .... Total+1el-Energy
 Convergence forced     ConvForced      .... 1
 Energy Change          TolE            ....  1.000e-08 Eh
 1-El. energy change                    ....  1.000e-05 Eh
 Orbital Gradient       TolG            ....  1.000e-05
 Orbital Rotation angle TolX            ....  1.000e-05


Diagonalization of the overlap matrix:
Smallest eigenvalue                        ... 8.603e-04
Time for diagonalization                   ...    0.010 sec
Threshold for overlap eigenvalues          ... 1.000e-08
Number of eigenvalues below threshold      ... 0
Time for construction of square roots      ...    0.007 sec
Total time needed                          ...    0.017 sec

-------------------
DFT GRID GENERATION
-------------------

General Integration Accuracy     IntAcc      ...  4.340
Radial Grid Type                 RadialGrid  ... Gauss-Chebyshev
Angular Grid (max. acc.)         AngularGrid ... Lebedev-110
Angular grid pruning method      GridPruning ... 3 (G Style)
Weight generation scheme         WeightScheme... Becke
Basis function cutoff            BFCut       ...    1.0000e-11
Integration weight cutoff        WCut        ...    1.0000e-14
Grids for H and He will be reduced by one unit

# of grid points (after initial pruning)     ...  11508 (   0.0 sec)
# of grid points (after weights+screening)   ...  10952 (   0.0 sec)
nearest neighbour list constructed           ...    0.0 sec
Grid point re-assignment to atoms done       ...    0.0 sec
Grid point division into batches done        ...    0.0 sec
Reduced shell lists constructed in    0.0 sec

Total number of grid points                  ...    10952
Total number of batches                      ...      177
Average number of points per batch           ...       61
Average number of grid points per atom       ...     1095
Average number of shells per batch           ...    64.29 (84.59%)
Average number of basis functions per batch  ...   169.79 (83.23%)
Average number of large shells per batch     ...    55.42 (86.20%)
Average number of large basis fcns per batch ...   145.58 (85.74%)
Average number of aux-shells per batch       ...    64.29 (40.18%)
Average number of aux functions per batch    ...   169.79 (34.23%)
Maximum spatial batch extension              ...  11.22, 15.68, 12.80 au
Average spatial batch extension              ...   0.32,  0.38,  0.38 au

Time for grid setup =    0.056 sec

------------------------------
INITIAL GUESS: MODEL POTENTIAL
------------------------------
Loading Hartree-Fock densities                     ... done
Calculating cut-offs                               ... done
Setting up the integral package                    ... done
Initializing the effective Hamiltonian             ... done
Starting the Coulomb interaction                   ... done (   0.0 sec)
Reading the grid                                   ... done
Mapping shells                                     ... done
Starting the XC term evaluation                    ... done (   0.0 sec)
Transforming the Hamiltonian                       ... done (   0.0 sec)
Diagonalizing the Hamiltonian                      ... done (   0.0 sec)
Back transforming the eigenvectors                 ... done (   0.0 sec)
Now organizing SCF variables                       ... done
                      ------------------
                      INITIAL GUESS DONE (   0.2 sec)
                      ------------------
--------------
SCF ITERATIONS
--------------
ITER       Energy         Delta-E        Max-DP      RMS-DP      [F,P]   Gradient Norm
                             ****Turning on KDIIS(Cayley)****
  0   -228.8170964137   0.000000000000 0.01126793  0.00033497  0.1504941   0.162475988
  1   -228.8765852096  -0.059488795916 0.01767757  0.00035597  0.1388978   0.140192761
  2   -228.9257185548  -0.049133345218 0.02906765  0.00059338  0.1114515   0.113782136
  3   -228.9853830001  -0.059664445298 0.04413629  0.00094494  0.0674050   0.069541471
                      *** Initiating the SOSCF procedure ***
                           *** Shutting down KDIIS ***
                      *** Re-Reading the Fockian *** 
                      *** Removing any level shift *** 
ITER      Energy       Delta-E        Grad      Rot      Max-DP    RMS-DP
  4   -229.02301878  -0.0376357821  0.002597  0.002597  0.002714  0.000090
  5   -229.02318288  -0.0001641025  0.000414  0.000576  0.000690  0.000022
  6   -229.02318717  -0.0000042895  0.000168  0.000318  0.000424  0.000016
  7   -229.02318799  -0.0000008208  0.000046  0.000045  0.000078  0.000002
  8   -229.02318806  -0.0000000633  0.000016  0.000014  0.000021  0.000001
  9   -229.02318807  -0.0000000068  0.000007  0.000009  0.000009  0.000000
                  ***Gradient check signals convergence***
              ***Rediagonalizing the Fockian in SOSCF/NRSCF***

               *****************************************************
               *                     SUCCESS                       *
               *           SCF CONVERGED AFTER  10 CYCLES          *
               *****************************************************


----------------
TOTAL SCF ENERGY
----------------

Total Energy       :         -229.02318807 Eh           -6232.03778 eV

Components:
Nuclear Repulsion  :          129.86468558 Eh            3533.79775 eV
Electronic Energy  :         -358.88787365 Eh           -9765.83553 eV
One Electron Energy:         -571.16844193 Eh          -15542.28346 eV
Two Electron Energy:          212.28056828 Eh            5776.44793 eV

Virial components:
Potential Energy   :         -457.67874181 Eh          -12454.07172 eV
Kinetic Energy     :          228.65555375 Eh            6222.03394 eV
Virial Ratio       :            2.00160781


---------------
SCF CONVERGENCE
---------------

  Last Energy change         ...   -1.0564e-09  Tolerance :   1.0000e-08
  Last MAX-Density change    ...    4.1204e-06  Tolerance :   1.0000e-07
  Last RMS-Density change    ...    9.5655e-08  Tolerance :   5.0000e-09
  Last Orbital Gradient      ...    2.1101e-06  Tolerance :   1.0000e-05
  Last Orbital Rotation      ...    3.6924e-06  Tolerance :   1.0000e-05

             **** THE GBW FILE WAS UPDATED (1_2_ethanediol_a_a_a.gbw) ****
             **** DENSITY FILE WAS UPDATED (1_2_ethanediol_a_a_a.scfp.tmp) ****
             **** ENERGY FILE WAS UPDATED (1_2_ethanediol_a_a_a.en.tmp) ****
----------------
ORBITAL ENERGIES
----------------

  NO   OCC          E(Eh)            E(eV) 
   0   2.0000     -20.555615      -559.3467 
   1   2.0000     -20.555613      -559.3467 
   2   2.0000     -11.275021      -306.8089 
   3   2.0000     -11.274378      -306.7914 
   4   2.0000      -1.362197       -37.0673 
   5   2.0000      -1.349338       -36.7173 
   6   2.0000      -0.995352       -27.0849 
   7   2.0000      -0.828420       -22.5424 
   8   2.0000      -0.715544       -19.4710 
   9   2.0000      -0.665332       -18.1046 
  10   2.0000      -0.663076       -18.0432 
  11   2.0000      -0.576736       -15.6938 
  12   2.0000      -0.576532       -15.6882 
  13   2.0000      -0.535224       -14.5642 
  14   2.0000      -0.479497       -13.0478 
  15   2.0000      -0.454637       -12.3713 
  16   2.0000      -0.441128       -12.0037 
  17   0.0000       0.142848         3.8871 
  18   0.0000       0.144189         3.9236 
  19   0.0000       0.197562         5.3759 
  20   0.0000       0.198525         5.4021 
  21   0.0000       0.199955         5.4411 
  22   0.0000       0.253429         6.8962 
  23   0.0000       0.302709         8.2371 
  24   0.0000       0.333534         9.0759 
  25   0.0000       0.371513        10.1094 
  26   0.0000       0.420970        11.4552 
  27   0.0000       0.467467        12.7204 
  28   0.0000       0.490286        13.3414 
  29   0.0000       0.516866        14.0646 
  30   0.0000       0.550938        14.9918 
  31   0.0000       0.555600        15.1186 
  32   0.0000       0.583761        15.8849 
  33   0.0000       0.619118        16.8471 
  34   0.0000       0.646007        17.5787 
  35   0.0000       0.652139        17.7456 
  36   0.0000       0.661573        18.0023 
  37   0.0000       0.681721        18.5506 
  38   0.0000       0.699044        19.0219 
  39   0.0000       0.746205        20.3053 
  40   0.0000       0.746746        20.3200 
  41   0.0000       0.775335        21.0979 
  42   0.0000       0.841226        22.8909 
  43   0.0000       0.841896        22.9092 
  44   0.0000       0.851871        23.1806 
  45   0.0000       0.861090        23.4315 
  46   0.0000       0.914157        24.8755 
  47   0.0000       0.942833        25.6558 
  48   0.0000       0.966141        26.2900 
  49   0.0000       0.982341        26.7309 
  50   0.0000       0.989734        26.9320 
  51   0.0000       1.099555        29.9204 
  52   0.0000       1.160859        31.5886 
  53   0.0000       1.192284        32.4437 
  54   0.0000       1.216145        33.0930 
  55   0.0000       1.246511        33.9193 
  56   0.0000       1.272194        34.6181 
  57   0.0000       1.296350        35.2755 
  58   0.0000       1.308699        35.6115 
  59   0.0000       1.313917        35.7535 
  60   0.0000       1.318874        35.8884 
  61   0.0000       1.379124        37.5279 
  62   0.0000       1.386933        37.7404 
  63   0.0000       1.409401        38.3518 
  64   0.0000       1.438183        39.1349 
  65   0.0000       1.482847        40.3503 
  66   0.0000       1.487971        40.4898 
  67   0.0000       1.490163        40.5494 
  68   0.0000       1.510291        41.0971 
  69   0.0000       1.615454        43.9587 
  70   0.0000       1.617539        44.0155 
  71   0.0000       1.639256        44.6064 
  72   0.0000       1.707573        46.4654 
  73   0.0000       1.788123        48.6573 
  74   0.0000       1.858143        50.5626 
  75   0.0000       1.989443        54.1355 
  76   0.0000       2.055573        55.9350 
  77   0.0000       2.157364        58.7049 
  78   0.0000       2.195735        59.7490 
  79   0.0000       2.237286        60.8796 
  80   0.0000       2.259473        61.4834 
  81   0.0000       2.292058        62.3701 
  82   0.0000       2.328514        63.3621 
  83   0.0000       2.335785        63.5599 
  84   0.0000       2.381466        64.8030 
  85   0.0000       2.434849        66.2556 
  86   0.0000       2.539269        69.0970 
  87   0.0000       2.641780        71.8865 
  88   0.0000       2.732483        74.3546 
  89   0.0000       2.732994        74.3686 
  90   0.0000       2.755505        74.9811 
  91   0.0000       2.762523        75.1721 
  92   0.0000       2.859791        77.8189 
  93   0.0000       2.914609        79.3105 
  94   0.0000       2.956636        80.4542 
  95   0.0000       3.031748        82.4981 
  96   0.0000       3.141622        85.4879 
  97   0.0000       3.155847        85.8750 
  98   0.0000       3.186059        86.6971 
  99   0.0000       3.191419        86.8429 
 100   0.0000       3.197103        86.9976 
 101   0.0000       3.253514        88.5326 
 102   0.0000       3.278412        89.2101 
 103   0.0000       3.293972        89.6335 
 104   0.0000       3.334651        90.7405 
 105   0.0000       3.345923        91.0472 
 106   0.0000       3.372329        91.7657 
 107   0.0000       3.393272        92.3356 
 108   0.0000       3.406425        92.6935 
 109   0.0000       3.410257        92.7978 
 110   0.0000       3.434922        93.4690 
 111   0.0000       3.481139        94.7266 
 112   0.0000       3.519031        95.7577 
 113   0.0000       3.546793        96.5132 
 114   0.0000       3.642596        99.1201 
 115   0.0000       3.691106       100.4401 
 116   0.0000       3.707378       100.8829 
 117   0.0000       3.727926       101.4420 
 118   0.0000       3.728227       101.4502 
 119   0.0000       3.765006       102.4510 
 120   0.0000       3.770640       102.6043 
 121   0.0000       3.792210       103.1913 
 122   0.0000       3.822782       104.0232 
 123   0.0000       3.832840       104.2969 
 124   0.0000       3.885122       105.7196 
 125   0.0000       3.945037       107.3499 
 126   0.0000       3.988883       108.5430 
 127   0.0000       4.074924       110.8843 
 128   0.0000       4.077758       110.9614 
 129   0.0000       4.083496       111.1176 
 130   0.0000       4.115077       111.9769 
 131   0.0000       4.159167       113.1767 
 132   0.0000       4.161262       113.2337 
 133   0.0000       4.163861       113.3044 
 134   0.0000       4.175555       113.6226 
 135   0.0000       4.196591       114.1950 
 136   0.0000       4.205724       114.4436 
 137   0.0000       4.253154       115.7342 
 138   0.0000       4.262438       115.9868 
 139   0.0000       4.313044       117.3639 
 140   0.0000       4.331698       117.8715 
 141   0.0000       4.367880       118.8561 
 142   0.0000       4.414716       120.1305 
 143   0.0000       4.436989       120.7366 
 144   0.0000       4.457971       121.3076 
 145   0.0000       4.520083       122.9977 
 146   0.0000       4.552062       123.8679 
 147   0.0000       4.594839       125.0319 
 148   0.0000       4.600684       125.1910 
 149   0.0000       4.625550       125.8676 
 150   0.0000       4.696858       127.8080 
 151   0.0000       4.722686       128.5108 
 152   0.0000       4.750270       129.2614 
 153   0.0000       4.884801       132.9222 
 154   0.0000       4.927157       134.0748 
 155   0.0000       4.937178       134.3474 
 156   0.0000       5.031361       136.9103 
 157   0.0000       5.069024       137.9352 
 158   0.0000       5.115950       139.2121 
 159   0.0000       5.121799       139.3712 
 160   0.0000       5.185403       141.1020 
 161   0.0000       5.192124       141.2849 
 162   0.0000       5.307284       144.4186 
 163   0.0000       5.312265       144.5541 
 164   0.0000       5.355767       145.7378 
 165   0.0000       5.401907       146.9934 
 166   0.0000       5.416268       147.3841 
 167   0.0000       5.417517       147.4181 
 168   0.0000       5.642748       153.5470 
 169   0.0000       5.670270       154.2959 
 170   0.0000       5.750723       156.4851 
 171   0.0000       5.792875       157.6321 
 172   0.0000       5.829359       158.6249 
 173   0.0000       5.900818       160.5694 
 174   0.0000       5.958173       162.1301 
 175   0.0000       5.966615       162.3598 
 176   0.0000       6.134068       166.9165 
 177   0.0000       6.194850       168.5704 
 178   0.0000       6.237884       169.7414 
 179   0.0000       6.301783       171.4802 
 180   0.0000       6.383124       173.6936 
 181   0.0000       6.502575       176.9441 
 182   0.0000       6.600718       179.6147 
 183   0.0000       6.637448       180.6141 
 184   0.0000       6.982173       189.9946 
 185   0.0000       7.005033       190.6167 
 186   0.0000       7.125521       193.8953 
 187   0.0000       7.139901       194.2866 
 188   0.0000       7.143274       194.3784 
 189   0.0000       7.165877       194.9934 
 190   0.0000       7.241125       197.0410 
 191   0.0000       7.249358       197.2651 
 192   0.0000       7.397088       201.2850 
 193   0.0000       7.402824       201.4411 
 194   0.0000       7.460285       203.0047 
 195   0.0000       7.466916       203.1851 
 196   0.0000       7.650398       208.1779 
 197   0.0000       7.721291       210.1070 
 198   0.0000       7.915542       215.3929 
 199   0.0000       7.977083       217.0675 
 200   0.0000      12.122414       329.8677 
 201   0.0000      12.633461       343.7740 
 202   0.0000      12.962015       352.7144 
 203   0.0000      13.385269       364.2317 

                    ********************************
                    * MULLIKEN POPULATION ANALYSIS *
                    ********************************

-----------------------
MULLIKEN ATOMIC CHARGES
-----------------------
   0 C :    0.070686
   1 O :   -0.420011
   2 C :    0.070688
   3 O :   -0.420005
   4 H :    0.062831
   5 H :    0.062835
   6 H :    0.062829
   7 H :    0.062832
   8 H :    0.223658
   9 H :    0.223656
Sum of atomic charges:    0.0000000

--------------------------------
MULLIKEN REDUCED ORBITAL CHARGES
--------------------------------
  0 C s       :     3.160024  s :     3.160024
      pz      :     0.991583  p :     2.626219
      px      :     0.734003
      py      :     0.900634
      dz2     :     0.017410  d :     0.131763
      dxz     :     0.021858
      dyz     :     0.032349
      dx2y2   :     0.022068
      dxy     :     0.038078
      f0      :     0.001406  f :     0.011308
      f+1     :     0.001147
      f-1     :     0.001897
      f+2     :     0.000142
      f-2     :     0.002021
      f+3     :     0.002442
      f-3     :     0.002254
  1 O s       :     3.754369  s :     3.754369
      pz      :     1.896959  p :     4.637993
      px      :     1.200963
      py      :     1.540071
      dz2     :     0.004374  d :     0.026216
      dxz     :     0.001646
      dyz     :     0.002105
      dx2y2   :     0.002861
      dxy     :     0.015230
      f0      :     0.000153  f :     0.001433
      f+1     :     0.000411
      f-1     :     0.000213
      f+2     :     0.000026
      f-2     :     0.000085
      f+3     :     0.000157
      f-3     :     0.000389
  2 C s       :     3.160024  s :     3.160024
      pz      :     0.991583  p :     2.626218
      px      :     0.733998
      py      :     0.900638
      dz2     :     0.017409  d :     0.131761
      dxz     :     0.021858
      dyz     :     0.032348
      dx2y2   :     0.022068
      dxy     :     0.038079
      f0      :     0.001406  f :     0.011308
      f+1     :     0.001147
      f-1     :     0.001897
      f+2     :     0.000142
      f-2     :     0.002021
      f+3     :     0.002442
      f-3     :     0.002254
  3 O s       :     3.754363  s :     3.754363
      pz      :     1.896957  p :     4.637994
      px      :     1.200961
      py      :     1.540075
      dz2     :     0.004374  d :     0.026216
      dxz     :     0.001646
      dyz     :     0.002104
      dx2y2   :     0.002861
      dxy     :     0.015230
      f0      :     0.000153  f :     0.001433
      f+1     :     0.000411
      f-1     :     0.000213
      f+2     :     0.000026
      f-2     :     0.000085
      f+3     :     0.000157
      f-3     :     0.000389
  4 H s       :     0.908506  s :     0.908506
      pz      :     0.009407  p :     0.026313
      px      :     0.005086
      py      :     0.011820
      dz2     :     0.000570  d :     0.002350
      dxz     :     0.000398
      dyz     :     0.000821
      dx2y2   :     0.000247
      dxy     :     0.000315
  5 H s       :     0.908501  s :     0.908501
      pz      :     0.009406  p :     0.026314
      px      :     0.005086
      py      :     0.011822
      dz2     :     0.000570  d :     0.002350
      dxz     :     0.000397
      dyz     :     0.000821
      dx2y2   :     0.000247
      dxy     :     0.000315
  6 H s       :     0.908506  s :     0.908506
      pz      :     0.009406  p :     0.026315
      px      :     0.005087
      py      :     0.011822
      dz2     :     0.000570  d :     0.002350
      dxz     :     0.000397
      dyz     :     0.000821
      dx2y2   :     0.000247
      dxy     :     0.000315
  7 H s       :     0.908507  s :     0.908507
      pz      :     0.009407  p :     0.026311
      px      :     0.005084
      py      :     0.011820
      dz2     :     0.000570  d :     0.002350
      dxz     :     0.000398
      dyz     :     0.000821
      dx2y2   :     0.000247
      dxy     :     0.000315
  8 H s       :     0.689022  s :     0.689022
      pz      :     0.033637  p :     0.079860
      px      :     0.025766
      py      :     0.020456
      dz2     :     0.000523  d :     0.007459
      dxz     :     0.001925
      dyz     :     0.001382
      dx2y2   :     0.001861
      dxy     :     0.001769
  9 H s       :     0.689023  s :     0.689023
      pz      :     0.033638  p :     0.079861
      px      :     0.025767
      py      :     0.020457
      dz2     :     0.000523  d :     0.007460
      dxz     :     0.001925
      dyz     :     0.001382
      dx2y2   :     0.001861
      dxy     :     0.001769


                     *******************************
                     * LOEWDIN POPULATION ANALYSIS *
                     *******************************

----------------------
LOEWDIN ATOMIC CHARGES
----------------------
   0 C :   -0.041440
   1 O :    0.310575
   2 C :   -0.041448
   3 O :    0.310589
   4 H :   -0.039117
   5 H :   -0.039111
   6 H :   -0.039115
   7 H :   -0.039113
   8 H :   -0.190906
   9 H :   -0.190915

-------------------------------
LOEWDIN REDUCED ORBITAL CHARGES
-------------------------------
  0 C s       :     2.688148  s :     2.688148
      pz      :     1.003821  p :     2.719424
      px      :     0.788049
      py      :     0.927554
      dz2     :     0.070521  d :     0.559518
      dxz     :     0.084842
      dyz     :     0.150916
      dx2y2   :     0.097218
      dxy     :     0.156020
      f0      :     0.008517  f :     0.074350
      f+1     :     0.008330
      f-1     :     0.006458
      f+2     :     0.006718
      f-2     :     0.012168
      f+3     :     0.017494
      f-3     :     0.014666
  1 O s       :     3.209663  s :     3.209663
      pz      :     1.700987  p :     4.408558
      px      :     1.197121
      py      :     1.510450
      dz2     :     0.008101  d :     0.066991
      dxz     :     0.007112
      dyz     :     0.004812
      dx2y2   :     0.015189
      dxy     :     0.031778
      f0      :     0.000512  f :     0.004212
      f+1     :     0.000520
      f-1     :     0.000166
      f+2     :     0.000078
      f-2     :     0.000516
      f+3     :     0.001226
      f-3     :     0.001196
  2 C s       :     2.688146  s :     2.688146
      pz      :     1.003821  p :     2.719427
      px      :     0.788049
      py      :     0.927557
      dz2     :     0.070521  d :     0.559524
      dxz     :     0.084845
      dyz     :     0.150915
      dx2y2   :     0.097221
      dxy     :     0.156022
      f0      :     0.008517  f :     0.074351
      f+1     :     0.008330
      f-1     :     0.006458
      f+2     :     0.006718
      f-2     :     0.012168
      f+3     :     0.017494
      f-3     :     0.014666
  3 O s       :     3.209654  s :     3.209654
      pz      :     1.700980  p :     4.408553
      px      :     1.197121
      py      :     1.510452
      dz2     :     0.008101  d :     0.066992
      dxz     :     0.007112
      dyz     :     0.004812
      dx2y2   :     0.015189
      dxy     :     0.031778
      f0      :     0.000512  f :     0.004212
      f+1     :     0.000520
      f-1     :     0.000166
      f+2     :     0.000078
      f-2     :     0.000516
      f+3     :     0.001226
      f-3     :     0.001196
  4 H s       :     0.867058  s :     0.867058
      pz      :     0.065059  p :     0.145123
      px      :     0.029277
      py      :     0.050786
      dz2     :     0.008415  d :     0.026936
      dxz     :     0.004441
      dyz     :     0.008146
      dx2y2   :     0.002702
      dxy     :     0.003232
  5 H s       :     0.867055  s :     0.867055
      pz      :     0.065051  p :     0.145122
      px      :     0.029278
      py      :     0.050793
      dz2     :     0.008414  d :     0.026935
      dxz     :     0.004440
      dyz     :     0.008145
      dx2y2   :     0.002703
      dxy     :     0.003234
  6 H s       :     0.867056  s :     0.867056
      pz      :     0.065055  p :     0.145123
      px      :     0.029277
      py      :     0.050791
      dz2     :     0.008415  d :     0.026936
      dxz     :     0.004440
      dyz     :     0.008145
      dx2y2   :     0.002702
      dxy     :     0.003233
  7 H s       :     0.867056  s :     0.867056
      pz      :     0.065055  p :     0.145121
      px      :     0.029277
      py      :     0.050789
      dz2     :     0.008414  d :     0.026935
      dxz     :     0.004441
      dyz     :     0.008145
      dx2y2   :     0.002703
      dxy     :     0.003233
  8 H s       :     0.723930  s :     0.723930
      pz      :     0.112590  p :     0.365784
      px      :     0.118274
      py      :     0.134920
      dz2     :     0.008016  d :     0.101192
      dxz     :     0.023659
      dyz     :     0.014980
      dx2y2   :     0.027855
      dxy     :     0.026682
  9 H s       :     0.723931  s :     0.723931
      pz      :     0.112592  p :     0.365790
      px      :     0.118275
      py      :     0.134923
      dz2     :     0.008016  d :     0.101195
      dxz     :     0.023659
      dyz     :     0.014981
      dx2y2   :     0.027856
      dxy     :     0.026682


                      *****************************
                      * MAYER POPULATION ANALYSIS *
                      *****************************

  NA   - Mulliken gross atomic population
  ZA   - Total nuclear charge
  QA   - Mulliken gross atomic charge
  VA   - Mayer's total valence
  BVA  - Mayer's bonded valence
  FA   - Mayer's free valence

  ATOM       NA         ZA         QA         VA         BVA        FA
  0 C      5.9293     6.0000     0.0707     3.9239     3.9239     0.0000
  1 O      8.4200     8.0000    -0.4200     1.9864     1.9864     0.0000
  2 C      5.9293     6.0000     0.0707     3.9240     3.9240     0.0000
  3 O      8.4200     8.0000    -0.4200     1.9864     1.9864     0.0000
  4 H      0.9372     1.0000     0.0628     0.9779     0.9779     0.0000
  5 H      0.9372     1.0000     0.0628     0.9779     0.9779     0.0000
  6 H      0.9372     1.0000     0.0628     0.9779     0.9779     0.0000
  7 H      0.9372     1.0000     0.0628     0.9779     0.9779     0.0000
  8 H      0.7763     1.0000     0.2237     1.0163     1.0163    -0.0000
  9 H      0.7763     1.0000     0.2237     1.0163     1.0163     0.0000

  Mayer bond orders larger than 0.1
B(  0-C ,  1-O ) :   0.9916 B(  0-C ,  2-C ) :   0.9774 B(  0-C ,  4-H ) :   0.9733 
B(  0-C ,  5-H ) :   0.9733 B(  1-O ,  8-H ) :   0.9935 B(  2-C ,  3-O ) :   0.9917 
B(  2-C ,  6-H ) :   0.9733 B(  2-C ,  7-H ) :   0.9733 B(  3-O ,  9-H ) :   0.9935 


-------
TIMINGS
-------

Total SCF time: 0 days 0 hours 0 min 3 sec 

Total time                  ....       3.764 sec
Sum of individual times     ....       3.586 sec  ( 95.3%)

Fock matrix formation       ....       3.308 sec  ( 87.9%)
Diagonalization             ....       0.026 sec  (  0.7%)
Density matrix formation    ....       0.005 sec  (  0.1%)
Population analysis         ....       0.009 sec  (  0.2%)
Initial guess               ....       0.157 sec  (  4.2%)
Orbital Transformation      ....       0.000 sec  (  0.0%)
Orbital Orthonormalization  ....       0.000 sec  (  0.0%)
DIIS solution               ....       0.000 sec  (  0.0%)
SOSCF solution              ....       0.024 sec  (  0.6%)


           ************************************************************
           *        Program running with 8 parallel MPI-processes     *
           *              working on a common directory               *
           ************************************************************


------------------------------------------------------------------------------- 
                              ORCA-MATRIX DRIVEN CI                            
------------------------------------------------------------------------------- 


Wavefunction type
-----------------
Correlation treatment                      ...      CCSD     
Single excitations                         ... ON
Orbital optimization                       ... OFF
Calculation of Z vector                    ... OFF
Calculation of Brueckner orbitals          ... OFF
Perturbative triple excitations            ... ON
Calculation of F12 correction              ... OFF
Frozen core treatment                      ... chemical core (8 el)
Reference Wavefunction                     ... RHF
  Internal Orbitals:     4 ...   16 ( 13 MO's/ 26 electrons)
  Virtual  Orbitals:    17 ...  203 (187 MO's              )
Number of AO's                             ...    204
Number of electrons                        ...     34
Number of correlated electrons             ...     26

Algorithmic settings
--------------------
Integral transformation                    ... All integrals via the RI transformation
K(C) Formation                             ... RI-DLPNO
   PNO-Integral Storage                    ... ON DISK
   PNO occupation number cut-off           ... 1.000e-07
   Singles PNO occupation number cut-off   ... 3.000e-09
   PNO Mulliken prescreening cut-off       ... 1.000e-03
   Domain cut-off (Mulliken population)    ... 1.000e-03
   PNO Normalization                       ...    1
Maximum number of iterations               ...        50
Convergence tolerance (max. residuum)      ... 1.000e-05
Level shift for amplitude update           ... 2.000e-01
Maximum number of DIIS vectors             ...         7
DIIS turned on at iteration                ...         0
Damping before turning on DIIS             ...     0.500
Damping after turning on DIIS              ...     0.000
Pair specific amplitude update             ... OFF
Natural orbital iterations                 ... OFF
Perturbative natural orbital generation    ... OFF
Printlevel                                 ... 2

Singles Fock matrix elements calculated using PNOs.

Memory handling:
----------------
Maximum memory for working arrays          ...   8000 MB
Data storage in matrix containers          ... UNCOMPRESSED
Data type for integral storage             ... DOUBLE
In-Core Storage of quantities:
   Amplitudes+Sigma Vector      ... NO
   J+K operators                ... NO
   DIIS vectors                 ... NO
   3-external integrals         ... NO
   4-external integrals         ... NO

Localization treatment:
-----------------------
Localization option                        ...    6
Localization threshhold                    ... -1.0e+00
Using relative localization threshhold     ... 1.0e-08
Neglect threshold for strong pairs         ... 1.000e-05 Eh
Prescreening threshold for very weak pairs ... 1.000e-07 Eh

Initializing the integral package          ... done
Localizing the valence orbitals
------------------------------------------------------------------------------
                           ORCA ORBITAL LOCALIZATION
------------------------------------------------------------------------------

Input orbitals are from                  ... 1_2_ethanediol_a_a_a.proc0.gbw
Output orbitals are to                   ... 1_2_ethanediol_a_a_a.proc0.loc
Max. number of iterations                ... 128
Localizations seeded randomly            ... off
Convergence tolerance                    ... 1.000e-06
Using relative localization threshhold   ... 1.000e-08
Treshold for strong local MOs            ... 9.500e-01
Treshold for bond MOs                    ... 8.500e-01
Operator                                 ... 0
Orbital range for localization           ... 4 to 16
Localization criterion                   ... FOSTER-BOYS (AUGMENTED HESSIAN)
Doing the dipole integrals     ... o.k.
Initial value of the localization sum :    93.944164
ITERATION   0 : L=  115.8303365152 DL=  2.19e+01 (AVERGE_DL)=    0.5297093079 
ITERATION   1 : L=  117.6700903537 DL=  1.84e+00 (AVERGE_DL)=    0.1535792553 
ITERATION   2 : L=  117.7095453631 DL=  3.95e-02 (AVERGE_DL)=    0.0224907415 
ITERATION   3 : L=  117.7128419816 DL=  3.30e-03 (AVERGE_DL)=    0.0065011029 
ITERATION   4 : L=  117.7131719855 DL=  3.30e-04 (AVERGE_DL)=    0.0020568957 
ITERATION   5 : L=  117.7132062839 DL=  3.43e-05 (AVERGE_DL)=    0.0006631160 
ITERATION   6 : L=  117.7132095011 DL=  3.22e-06 (AVERGE_DL)=    0.0002030929 
ITERATION   7 : L=  117.7132097918 DL=  2.91e-07 (AVERGE_DL)=    0.0000610406 
LOCALIZATION SUM CONVERGED

------------------------------------------------------
AUGMENTED HESSIAN OPTIMIZATION OF FOSTER-BOYS ORBITALS
------------------------------------------------------

Spin operator:           0
Orbital window:          4 to 16
Number of iterations:    128
Gradient tolerance:      1.000e-06
Number of pairs:         78
Davidson threshold:      2000
Diagonalization method:  LAPACK
Iter:    0   L: 117.7132097918   Grad. norm: 6.060776e-04
   *** Likely close to a maximum now. ***
       Augmented Hessian eigenvalues:  5.85e-08 -1.36e+00 -1.36e+00 -3.50e+00 ... 
Iter:    1   L: 117.7132098210   Grad. norm: 2.119648e-08
LOCALIZATION HAS CONVERGED.

Eigenvalues of the Hessian:
  0 -1.355e+00
  1 -1.355e+00
  2 -3.499e+00
  3 -3.499e+00
  4 -5.105e+00
  5 -5.105e+00
  6 -5.524e+00
  7 -5.524e+00
  8 -7.481e+00
  9 -7.481e+00
    ...


------------------------------------------------------------------------------- 
                    LOCALIZED MOLECULAR ORBITAL COMPOSITIONS                   
------------------------------------------------------------------------------- 

The Mulliken populations for each LMO on each atom are computed
The LMO`s will be ordered according to atom index and type
  (A) Strongly localized MO`s have populations of >=0.950 on one atom
  (B) Two center bond orbitals have populations of >=0.850 on two atoms
  (C) Other MO`s are considered to be `delocalized`

FOUND  -   4 strongly local MO`s
       -   9 two center bond MO`s
       -   0 significantly delocalized MO`s

Rather strongly localized orbitals:
MO   7:   3O  -   0.983769
MO   6:   3O  -   0.983771
MO   5:   1O  -   0.983770
MO   4:   1O  -   0.983771
Bond-like localized orbitals:
MO  16:   9H  -   0.388438  and   3O  -   0.615378
MO  15:   8H  -   0.388437  and   1O  -   0.615379
MO  14:   7H  -   0.490709  and   2C  -   0.544402
MO  13:   6H  -   0.490712  and   2C  -   0.544400
MO  12:   5H  -   0.490708  and   0C  -   0.544404
MO  11:   4H  -   0.490709  and   0C  -   0.544400
MO  10:   3O  -   0.663094  and   2C  -   0.345061
MO   9:   2C  -   0.516392  and   0C  -   0.516394
MO   8:   1O  -   0.663095  and   0C  -   0.345061
Localized MO's were stored in: 1_2_ethanediol_a_a_a.proc0.loc

Localizing the core orbitals
------------------------------------------------------------------------------
                           ORCA ORBITAL LOCALIZATION
------------------------------------------------------------------------------

Input orbitals are from                  ... 1_2_ethanediol_a_a_a.proc0.loc
Output orbitals are to                   ... 1_2_ethanediol_a_a_a.proc0.loc
Max. number of iterations                ... 128
Localizations seeded randomly            ... off
Convergence tolerance                    ... 1.000e-06
Using relative localization threshhold   ... 1.000e-08
Treshold for strong local MOs            ... 9.500e-01
Treshold for bond MOs                    ... 8.500e-01
Operator                                 ... 0
Orbital range for localization           ... 0 to 3
Localization criterion                   ... FOSTER-BOYS (AUGMENTED HESSIAN)
Doing the dipole integrals     ... o.k.
Initial value of the localization sum :    27.355165
ITERATION   0 : L=   27.3551681973 DL=  3.58e-06 (AVERGE_DL)=    0.0007722684 
ITERATION   1 : L=   27.3551681973 DL=  0.00e+00 (AVERGE_DL)=    0.0000000000 
LOCALIZATION SUM CONVERGED

------------------------------------------------------
AUGMENTED HESSIAN OPTIMIZATION OF FOSTER-BOYS ORBITALS
------------------------------------------------------

Spin operator:           0
Orbital window:          0 to 3
Number of iterations:    128
Gradient tolerance:      1.000e-06
Number of pairs:         6
Davidson threshold:      2000
Diagonalization method:  LAPACK
Iter:    0   L: 27.3551681973   Grad. norm: 3.174491e-06
   *** Likely close to a maximum now. ***
       Augmented Hessian eigenvalues:  1.31e-13 -2.91e+01 -2.91e+01 -3.30e+01 ... 
Iter:    1   L: 27.3551681973   Grad. norm: 1.151000e-19
LOCALIZATION HAS CONVERGED.

Eigenvalues of the Hessian:
  0 -2.912e+01
  1 -2.912e+01
  2 -3.303e+01
  3 -8.030e+01
  4 -8.030e+01
  5 -1.858e+02


------------------------------------------------------------------------------- 
                    LOCALIZED MOLECULAR ORBITAL COMPOSITIONS                   
------------------------------------------------------------------------------- 

The Mulliken populations for each LMO on each atom are computed
The LMO`s will be ordered according to atom index and type
  (A) Strongly localized MO`s have populations of >=0.950 on one atom
  (B) Two center bond orbitals have populations of >=0.850 on two atoms
  (C) Other MO`s are considered to be `delocalized`

FOUND  -   4 strongly local MO`s
       -   0 two center bond MO`s
       -   0 significantly delocalized MO`s

Rather strongly localized orbitals:
MO   3:   3O  -   0.999790
MO   2:   2C  -   1.000985
MO   1:   1O  -   0.999790
MO   0:   0C  -   1.000985
Localized MO's were stored in: 1_2_ethanediol_a_a_a.proc0.loc

Warning: internal orbitals are localized - no re-canonicalization of internal orbitals

--------------------------
CLOSED-SHELL FOCK OPERATOR
--------------------------

RI-JK section for the Fock operator:
  RHF full Fock operator         ... done
  RHF frozen core Fock operator  ... done
Time needed for Fock operator              ...            0.699 sec
Reference energy                           ...   -229.023188066

--------------
DLPNO SETTINGS (2015 fully linear scaling implementation)
--------------

TCutMKN:           1.000e-03
TCutPAO:           1.000e-03
TCutPNO:           1.000e-07
TCutPNOSingles:    3.000e-09
TCutEN:            9.700e-01
TCutPAOExt:        1.000e-01
TCutPairs:         1.000e-05
TCutPre:           1.000e-07
TCutOSV:           1.000e-06
TCutDOij:          1.000e-05
TCutDO:            5.000e-03
TCutC:             1.000e-04
TCutCPAO:          1.000e-03
TCutCMO:           1.000e-03
TScaleDOMP2PreScr: 2.000e+00
TScaleMKNMP2PreScr:1.000e+01
TScalePNOMP2PreScr:1.000e+00
PAO overlap thresh 1.000e-08
Using PNOs for Singles Fock computation
Use new domains
Use fully linear algorithm
TCutTNO:           1.000e-09
TCutMP2Pairs:      1.000e-06
TCutDOStrong:      2.000e-03
TCutMKNStrong:     1.000e-02
TCutMKNWeak:       1.000e-01
TCutDOWeak:        4.000e-03
NTCutTNO:          1

--------------------------
Calculating differential overlap integrals ... ok
--------------------------
ELECTRON PAIR PRESCREENING
--------------------------

Dipole-based pair screening          .... used

   TCutDOij = 1.000000e-05
   TCutPre  = 1.000000e-07
   .... Finished loop over pairs
Total time spent in the prescreening                  ...     0.000 sec
sum of pair energies estimated for screened out pairs ...       0.000000000000 Eh
Thresholds for map construction and integral transformation for crude MP2:
   TCutMKN                    ...     1.0e-02
   TCutDO                     ...     1.0e-02
   TCutPairs                  ...     1.0e-05
   TCutPNO_CrudeMP2           ...     1.0e-07
   TCutPNOSingles_CrudeMP2    ...     3.0e-09
--------------------------------
LOCAL RI TRANSFORMATION (IAVPAO)
--------------------------------

Orbital window:       4 to 16
Number of PAOs:     204
Basis functions:    204 (76 shells)
Aux. functions:     504 (152 shells)

Processing maps (0.0 sec)
Average map sizes:
   Aux shells -> MOs              13.0
   Aux shells -> PAOs            204.0
   MOs        -> AO shells        76.0
   PAOs       -> AO shells        76.0

Calculating integrals (0.3 sec, 10.203 MB)
Sorting integrals (0.0 sec, 10.198 MB)
Total time for the integral transformation: 0.3 sec
--------------------------------
INITIAL GUESS AND PNO GENERATION
--------------------------------

PNO truncation parameters                   .... 
    PAOOverlapThresh   =        1.000e-08

    TCutPairs          =        1.000e-05
    TCutPNO            =        1.000e-07
    TCutPNOSingles     =        3.000e-09
    TCutMP2Pairs       =        1.000e-06
    TCutMKN            =        1.000e-02
    TCutDO             =        1.000e-02

Pair selection                          .... not used
Type of local MP2 treatment                 .... semi-local MP2
Strategy for PNO selection                  .... occupation number selection
Pair density normalization                  .... MP2 norm
Spin component scaling                      .... not used

   .... Finished loop over pairs
Making pair pair interaction lists          ... done

                       ===========================
                         91 OF   91 PAIRS ARE KEPT CCSD PAIRS
                          0 OF   91 PAIRS ARE KEPT MP2 PAIRS FOR (T)
                          0 OF   91 PAIRS ARE SKIPPED
                       ===========================

Total time spent in the initial guess                 ...     0.342 sec
SL-MP2 correlation energy (all non-screened pairs)    ...      -0.806998317891 Eh

Initial PNO correlation energy                        ...      -0.806470392541 Eh
sum of pair energies prescreened and skipped MP2 pairs...       0.000000000000 Eh
sum of pair energies of crude MP2 skipped pairs only  ...       0.000000000000 Eh
sum of MP2 pair energies for pairs that were not kept ...       0.000000000000 Eh
sum of PNO error estimates for the kept pairs         ...      -0.000527925351 Eh
                                                          --------------------
sum of all corrections                                         -0.000527925351
Initial total correlation energy                               -0.806998317891
Thresholds for map construction and integral transformation for fine MP2 and CCSD(T) calculation:
   TCutMKN   ...     1.0e-03
   TCutDO    ...     5.0e-03
   TCutPairs ...     1.0e-05
   TCutCMO   ...     1.0e-03
   TCutCPAO  ...     1.0e-03

Thresholds for map construction and integral transformation for strong Triples:
   TCutMKN   ...     1.0e-02
   TCutDO    ...     1.0e-02
   TCutCMO   ...     1.0e-03
   TCutCPAO  ...     1.0e-03

Thresholds for map construction and integral transformation for weak Triples:
   TCutMKN   ...     1.0e-01
   TCutDO    ...     2.0e-02
   TCutCMO   ...     1.0e-03
   TCutCPAO  ...     1.0e-03

--------------------------------
LOCAL RI TRANSFORMATION (IAVPAO)
--------------------------------

Orbital window:       4 to 16
Number of PAOs:     204
Basis functions:    204 (76 shells)
Aux. functions:     504 (152 shells)

Processing maps (0.0 sec)
Average map sizes:
   Aux shells -> MOs              13.0
   Aux shells -> PAOs            204.0
   MOs        -> AO shells        76.0
   PAOs       -> AO shells        76.0

Calculating integrals (0.3 sec, 10.203 MB)
Sorting integrals (0.0 sec, 10.198 MB)
Total time for the integral transformation: 0.4 sec
--------------------------------
INITIAL GUESS AND PNO GENERATION
--------------------------------

PNO truncation parameters                   .... 
    ScaleTCutPNO       =        1.000e-02
    PAOOverlapThresh   =        1.000e-08

    TCutPairs          =        1.000e-05
    TCutPNO            =        1.000e-07
    TCutPNOSingles     =        3.000e-09
    TCutMP2Pairs       =        1.000e-06
    TCutMKN            =        1.000e-03
    TCutDO             =        5.000e-03

Pair selection                          .... not used
Type of local MP2 treatment                 .... full local PMP2
Strategy for PNO selection                  .... occupation number selection
Pair density normalization                  .... MP2 norm
Spin component scaling                      .... not used

PASS-1: Formation of initial guess LMP2 amplitudes
Initial amplitudes guess done. Entering LMP2 iteration loop:
   Max. no of iterations          ...  50
   Energy convergence tolerance   ...    1.0e-07
   Residual convergence tolerance ...    5.0e-07
   Fock matrix cutoff             ...    1.0e-05 Eh
   DIIS convergence acceleration parameters:
        Max # vectors in DIIS     ... 7
        Start iteration of DIIS   ... 0
        Levelshift                ... 2.000e-01
        Damping factor 1          ... 5.000e-01
        Damping factor 2          ... 1.000e+00
   L-MP2 PNO cut-off              ...   1.0e-09
   L-MP2 PNO cut-off (core)       ...   1.0e-11
                           *** Turning on DIIS ***
LMP2-Iter=   0:  ELMP2= -0.823023710003  DE=   1.6e-02 RMAX=   5.0e-03
LMP2-Iter=   1:  ELMP2= -0.831195301543  DE=   8.2e-03 RMAX=   2.2e-03
LMP2-Iter=   2:  ELMP2= -0.832419945824  DE=   1.2e-03 RMAX=   4.9e-04
LMP2-Iter=   3:  ELMP2= -0.832571357525  DE=   1.5e-04 RMAX=   1.6e-04
LMP2-Iter=   4:  ELMP2= -0.832581152204  DE=   9.8e-06 RMAX=   2.5e-05
LMP2-Iter=   5:  ELMP2= -0.832580641120  DE=   5.1e-07 RMAX=   8.1e-06
LMP2-Iter=   6:  ELMP2= -0.832580492242  DE=   1.5e-07 RMAX=   9.8e-07
LMP2-Iter=   7:  ELMP2= -0.832580469132  DE=   2.3e-08 RMAX=   2.6e-07
LMP2-Iter=   8:  ELMP2= -0.832580474875  DE=   5.7e-09 RMAX=   2.6e-08 => CONVERGED
PASS-2: Formation of Pair natural orbitals
   .... Finished loop over pairs

 PNO Occupation Number Statistics: 
  | Av. % of trace(Dij) retained        ...  99.538976685053
  | sigma^2 in % of trace(Dij) retained ...   7.01e-01
  | Av. % of trace(Di) retained         ...  99.999797804228
  | sigma^2 in % of trace(Di) retained  ...   2.79e-09
 Distributions of % trace(Dij) recovered:
  |       >= 99.9  ...    37 ( 40.7 % of all pairs)
  |   [90.0, 99.0) ...    13 ( 14.3 % of all pairs)
  |   [99.0, 99.9) ...    41 ( 45.1 % of all pairs)
 Distributions of % trace(Di) recovered :
  |       >= 99.9  ...    13 (100.0 % of all I-pairs )

Making pair pair interaction lists          ... done

                       ===========================
                         91 OF   91 PAIRS ARE KEPT
                       ===========================

Total time spent in the initial guess                 ...     2.639 sec
L-MP2 correlation energy (all non-screened pairs)     ...      -0.832580474875 Eh
L-MP2 PNO error correction                            ...      -0.000008998490 Eh
                                                          --------------------
Initial total L-MP2 energy (non-screened pairs)       ...      -0.832589473365 Eh

Initial PNO correlation energy                        ...      -0.832071143145 Eh
sum of pair energies estimated for screened out pairs ...       0.000000000000 Eh
sum of MP2 pair energies for pairs that were not kept ...       0.000000000000 Eh
sum of PNO error estimates for the kept pairs         ...      -0.000518330220 Eh
                                                          --------------------
sum of all corrections                                         -0.000518330220
Initial total correlation energy                               -0.832589473365
Thresholds for map construction and integral transformation for fine MP2 and CCSD(T) calculation:
   TCutMKN   ...     1.0e-03
   TCutDO    ...     5.0e-03
   TCutPairs ...     1.0e-05
   TCutCMO   ...     1.0e-03
   TCutCPAO  ...     1.0e-03

Time for aux screen maps:            0.001
Time for maps after fine MP2:            0.004
-----------------------------
LOCAL RI TRANSFORMATION (IJV)
-----------------------------

Orbital window:       4 to 16
Basis functions:    204 (76 shells)
Aux. functions:     504 (152 shells)

Processing maps (0.0 sec)
Average map sizes:
   Aux shells -> MOs(i)           13.0
   Aux shells -> MOs(j)           13.0
   MOs        -> AO shells        76.0

Calculating integrals (0.3 sec, 0.656 MB)
Sorting integrals (0.0 sec, 0.650 MB)
Total time for the integral transformation: 0.3 sec
--------------------------------
LOCAL RI TRANSFORMATION (VABPAO)
--------------------------------

Number of PAOs:     204
Basis functions:    204 (76 shells)
Aux. functions:     504 (152 shells)

Processing maps (0.0 sec)
Average map sizes:
   Aux shells -> PAOs            204.0
   PAOs       -> AO shells        76.0

Calculating integrals (0.6 sec, 302.593 MB)
Finished


-------------------------------------
Pair Pair Term precalculation with     
RI-(ij|mn) and (im|jn) transformation  
ON THE FLY                             
-------------------------------------

   IBatch   1 (of   1)              ... done (    9.173 sec)
Total EXT                           ...           9.173 sec

---------------------
RI-PNO TRANSFORMATION
---------------------

Total Number of PNOs                   ...  3857
Average number of PNOs per pair        ...    42
Maximal number of PNOs per pair        ...    65
   #pairs with  1 -  5 PNOs   :    0
   #pairs with  6 - 10 PNOs   :    2
   #pairs with 11 - 15 PNOs   :    6
   #pairs with 16 - 20 PNOs   :    1
   #pairs with 21 - 25 PNOs   :    8
   #pairs with 26 - 30 PNOs   :   10
   #pairs with 31 - 35 PNOs   :    4
   #pairs with 36 - 40 PNOs   :    1
   #pairs with 41 - 45 PNOs   :   10
   #pairs with 46 - 50 PNOs   :   18
   #pairs with 51 - 55 PNOs   :   10
   #pairs with 56 - 60 PNOs   :    8
   #pairs with 61 - 65 PNOs   :   13

Generation of (ij|ab)[P] integrals            ... on
Generation of (ia|bc)[P],(ja|bc)[P] integrals ... on
Storage of 3 and 4 external integrals         ... on
Generation of ALL (ka|bc)[P] integrals        ... on
Keep RI integrals in memory                   ... off

Ibatch:  1 (of  1)
Starting 2-4 index PNO integral generation ... done

Timings:
Total PNO integral transformation time     ...          5.553 sec
Size of the 3-external file                ...        73 MB
Size of the 4-external file                ...       501 MB
Size of the IKJL file                      ...         0 MB
Size of the all 3-external file            ...       478 MB
Size of the 1-external file                ...         1 MB

Making pair/pair overlap matrices          ... done (    0.307 sec)
Size of the pair overlap file              ... 89 MB
Redoing the guess amplitudes               ... done (    0.002 sec)

-------------------------
FINAL STARTUP INFORMATION
-------------------------

E(0)                                       ...   -229.023188066
E(L-MP2)                                   ...     -0.832589473
E(L-MP2) including corrections             ...     -0.832589473
Initial E(tot)                             ...   -229.855777540
<T|T>                                      ...      0.197469516
Number of pairs included                   ... 91
Total number of pairs                      ... 91

------------------------------------------------
                  RHF COUPLED CLUSTER ITERATIONS
------------------------------------------------

Number of PNO amplitudes to be optimized   ...       184795
Number of non-PNO amplitudes               ...      3182179
Untruncated number of regular amplitudes   ...      3182179

Iter       E(tot)           E(Corr)          Delta-E          Residual     Time
  0   -229.830116922     -0.806410526      0.026178947      0.017527955    4.38
                           *** Turning on DIIS ***
  1   -229.858346411     -0.834640014     -0.028229488      0.006759518    4.38
  2   -229.878196424     -0.854490028     -0.019850014      0.001597285    4.41
  3   -229.882076850     -0.858370454     -0.003880426      0.000956736    4.42
  4   -229.883008277     -0.859301881     -0.000931427      0.000298064    4.42
  5   -229.883173886     -0.859467490     -0.000165609      0.000151252    4.41
  6   -229.883208143     -0.859501747     -0.000034257      0.000074186    4.43
  7   -229.883212202     -0.859505805     -0.000004059      0.000030074    9.53
  8   -229.883212740     -0.859506343     -0.000000538      0.000009162    4.25
               --- The Coupled-Cluster iterations have converged ---

----------------------
COUPLED CLUSTER ENERGY
----------------------

E(0)                                       ...   -229.023188066
E(CORR)(strong-pairs)                      ...     -0.859506343
E(CORR)(weak-pairs)                        ...     -0.000518330
E(CORR)(corrected)                         ...     -0.860024673
E(TOT)                                     ...   -229.883212740
Singles Norm <S|S>**1/2                    ...      0.045444899  
T1 diagnostic                              ...      0.008912478  

------------------
LARGEST AMPLITUDES
------------------
  15-> 17  15-> 17       0.029083
  16-> 17  16-> 17       0.029082
  12-> 17  12-> 17       0.027926
  13-> 17  13-> 17       0.027926
  14-> 17  14-> 17       0.027926
  11-> 17  11-> 17       0.027925
   8-> 17   8-> 17       0.027433
  10-> 17  10-> 17       0.027433
  15-> 19  15-> 19       0.026322
  16-> 19  16-> 19       0.026321
   9-> 21   9-> 21       0.025018
  14-> 23  14-> 23       0.023534
  11-> 23  11-> 23       0.023519
  12-> 23  12-> 23       0.023506
  13-> 23  13-> 23       0.023489
  15-> 21  15-> 17       0.023133


-------------------------------------------
DLPNO BASED TRIPLES CORRECTION
-------------------------------------------

Singles multiplier          ...  1.000000
TCutTNO                     ... 1.000e-09
TCutMP2Pairs                ... 1.000e-06
TCutDOStrong                ... 1.000e-02
TCutMKNStrong               ... 1.000e-02
TCutDOWeak                  ... 2.000e-02
TCutMKNWeak                 ... 1.000e-01

Fragment selection                          .... not used
Number of Triples that are to be computed   ...       442

 . . . . . . . . .
10% done  
20% done  
30% done  
40% done  
50% done  
60% done  
70% done  
80% done  
90% done               (     18.765 sec)
Triples timings:
Total time for T0               ...    19.868 sec
Total time for Iterative (T)    ...     0.000 sec
Total time of overall (T)       ...    22.119 sec

Triples List generation         ...     0.000 sec
TNO generation                  ...     1.099 sec
Pair density generation         ...     0.002 sec
Look up tables                  ...     0.000 sec
Generating 3-index integrals    ...     9.395 sec
  Make 4-ind.int. from 3-ind.int...     3.535 sec
  Projecting amplitudes (D + S) ...     1.097 sec
  Downprojecting integrals      ...     0.001 sec
  Energy contr. (sum over a,b,c)...     1.322 sec
Fitting ET(->0)                 ...     0.000 sec

Everything after 3-index        ...     9.370 sec

Timing details:
 TNO integrals                  ...    12.642 sec
   Reading 3-index integrals    ...     0.052 sec
   Sorting integrals            ...     2.279 sec
       Sorting integrals 1      ...     0.000 sec
       Sorting integrals 2      ...     0.639 sec
       Sorting integrals 3      ...     0.080 sec
       Sorting integrals 4      ...     0.004 sec
       Sorting integrals 5      ...     0.020 sec
       Sorting integrals 6      ...     1.536 sec
   Calculating local VM**-1/2   ...     0.082 sec
   Orthogonal. integrals        ...     0.150 sec
   Multipl. 3-index integrals   ...    10.079 sec
   All concerning IRIab (w/TNO) ...     1.668 sec

 Calculate W0/W1                ...     3.412 sec
 W 3-ext contribution           ...     1.821 sec
 W 3-int contribution           ...     0.472 sec
 Sorting W                      ...     1.068 sec

 V exchange contribution        ...     0.451 sec

 Timings for Triples without generation
     of 3-index integrals       ...     9.370 sec
       0 weak pairs             ...     9.370 sec
       1 weak pair              ...     0.000 sec
       2 weak pairs             ...     0.000 sec
       3 weak pairs             ...     0.000 sec
  Extra time for extrapolation  ...     0.000 sec

Number of Triples   (0, 1, 2, 3 weak pairs; overall):    442       0       0       0  (   442)
Number of Atoms     (0, 1, 2, 3 weak pairs; overall):    9.9     0.0     0.0     0.0  (    10)
Number of PAOs      (0, 1, 2, 3 weak pairs; overall):  202.1     0.0     0.0     0.0  (   204)
Number of AuxFcns   (0, 1, 2, 3 weak pairs; overall):  325.1     0.0     0.0     0.0  (   504)
Number of TNOs      (0, 1, 2, 3 weak pairs         ):   92.6     0.0     0.0     0.0
Aver. Number of NTNO, Atoms, PAOs, AuxFcns / Triples:    442    92.6     9.9   202.1   325.1

Triples Correction (T)                     ...     -0.029830587
Final correlation energy                   ...     -0.889855260
E(CCSD)                                    ...   -229.883212740
E(CCSD(T))                                 ...   -229.913043327


Maximum memory used throughout the entire calculation: 2058.7 MB


------------------------------------------------------------------------------- 
                                     TIMINGS                                   
------------------------------------------------------------------------------- 


Total execution time                   ...      109.529 sec

Localization of occupied MO's          ...        0.421 sec (  0.4%)
Fock Matrix Formation                  ...        0.699 sec (  0.6%)
Global overlap, Fock, MKN matrices     ...        0.153 sec (  0.1%)
Differential overlap integrals         ...        0.046 sec (  0.0%)
Organizing maps                        ...        0.013 sec (  0.0%)
RI 3-index integral generations        ...        1.582 sec (  1.4%)
RI-PNO integral transformation         ...       36.527 sec ( 33.3%)
Initial Guess                          ...        3.006 sec (  2.7%)
DIIS Solver                            ...        0.551 sec (  0.5%)
State Vector Update                    ...        0.012 sec (  0.0%)
Sigma-vector construction              ...       44.512 sec ( 40.6%)
  <D|H|D>(0-ext)                       ...        0.550 sec (  1.2% of sigma)
  <D|H|D>(2-ext Fock)                  ...        0.006 sec (  0.0% of sigma)
  <D|H|D>(2-ext)                       ...        1.925 sec (  4.3% of sigma)
  <D|H|D>(4-ext)                       ...        5.856 sec ( 13.2% of sigma)
  <D|H|D>(4-ext-corr)                  ...       24.006 sec ( 53.9% of sigma)
  CCSD doubles correction              ...        0.055 sec (  0.1% of sigma)
  <S|H|S>                              ...        0.128 sec (  0.3% of sigma)
  <S|H|D>(1-ext)                       ...        0.089 sec (  0.2% of sigma)
  <D|H|S>(1-ext)                       ...        0.003 sec (  0.0% of sigma)
  <S|H|D>(3-ext)                       ...        0.199 sec (  0.4% of sigma)
  Fock-dressing                        ...        8.585 sec ( 19.3% of sigma)
  Singles amplitudes                   ...        0.115 sec (  0.3% of sigma)
  (ik|jl)-dressing                     ...        0.415 sec (  0.9% of sigma)
  (ij|ab),(ia|jb)-dressing             ...        0.752 sec (  1.7% of sigma)
  Pair energies                        ...        0.003 sec (  0.0% of sigma)
Total Time for computing (T)           ...       22.134 sec ( 20.2% of ALL)


-------------------------   --------------------
FINAL SINGLE POINT ENERGY      -229.913043326714
-------------------------   --------------------


                            ***************************************
                            *     ORCA property calculations      *
                            ***************************************

                                    ---------------------
                                    Active property flags
                                    ---------------------
   (+) Dipole Moment


------------------------------------------------------------------------------
                       ORCA ELECTRIC PROPERTIES CALCULATION
------------------------------------------------------------------------------

Dipole Moment Calculation                       ... on
Quadrupole Moment Calculation                   ... off
Polarizability Calculation                      ... off
GBWName                                         ... 1_2_ethanediol_a_a_a.gbw
Electron density file                           ... 1_2_ethanediol_a_a_a.scfp.tmp
The origin for moment calculation is the CENTER OF MASS  = ( 0.000004, -0.000006 -0.000014)

-------------
DIPOLE MOMENT
-------------
                                X             Y             Z
Electronic contribution:      0.00004       0.00000      -0.00022
Nuclear contribution   :     -0.00005       0.00001       0.00062
                        -----------------------------------------
Total Dipole Moment    :     -0.00000       0.00001       0.00040
                        -----------------------------------------
Magnitude (a.u.)       :      0.00040
Magnitude (Debye)      :      0.00101



--------------------
Rotational spectrum 
--------------------
 
Rotational constants in cm-1:     1.013257     0.132578     0.122699 
Rotational constants in MHz : 30376.687862  3974.584438  3678.436014 

 Dipole components along the rotational axes: 
x,y,z [a.u.] :     0.000003     0.000011     0.000398 
x,y,z [Debye]:     0.000008     0.000028     0.001013 

 

Timings for individual modules:

Sum of individual times         ...      114.023 sec (=   1.900 min)
GTO integral calculation        ...        0.440 sec (=   0.007 min)   0.4 %
SCF iterations                  ...        3.867 sec (=   0.064 min)   3.4 %
MDCI module                     ...      109.716 sec (=   1.829 min)  96.2 %
                             ****ORCA TERMINATED NORMALLY****
TOTAL RUN TIME: 0 days 0 hours 1 minutes 54 seconds 258 msec
1_2_ethanediol_a_a_a.gbw -> /home1/pantazis/klk/xyz_1/Oxygen_compounds/1_2_ethanediol_a_a_a.gbw
1_2_ethanediol_a_a_a.job -> /home1/pantazis/klk/xyz_1/Oxygen_compounds/1_2_ethanediol_a_a_a.job
1_2_ethanediol_a_a_a.loc -> /home1/pantazis/klk/xyz_1/Oxygen_compounds/1_2_ethanediol_a_a_a.loc
1_2_ethanediol_a_a_a.nodes -> /home1/pantazis/klk/xyz_1/Oxygen_compounds/1_2_ethanediol_a_a_a.nodes
1_2_ethanediol_a_a_a.prop -> /home1/pantazis/klk/xyz_1/Oxygen_compounds/1_2_ethanediol_a_a_a.prop
1_2_ethanediol_a_a_a_property.txt -> /home1/pantazis/klk/xyz_1/Oxygen_compounds/1_2_ethanediol_a_a_a_property.txt
1_2_ethanediol_a_a_a.xyz -> /home1/pantazis/klk/xyz_1/Oxygen_compounds/1_2_ethanediol_a_a_a.xyz
cp: cannot stat 1_2_ethanediol_a_a_a.asa.inp: No such file or directory
