! Job execution by suborca V 6.07 on ZEUS !
Job started from zeus1, running /scratch/pantazis/1_2_DCE_t__laespi/orca/orca copied from /opt/orca on zeussn124 in /scratch/pantazis/1_2_DCE_t__laespi
Job execution start: Thu Jun 27 13:08:27 CEST 2019
Shared library path: /scratch/pantazis/1_2_DCE_t__laespi/orca:/opt/openmpi_1.10.2/lib:/opt/intel/mkl/lib/intel64:/opt/intel/lib/intel64:
PBS Job ID is: 158098.icqc
izeussn124
izeussn124
izeussn124
izeussn124
izeussn124
izeussn124
izeussn124
izeussn124

                                 *****************
                                 * O   R   C   A *
                                 *****************

           --- An Ab Initio, DFT and Semiempirical electronic structure package ---

                  #######################################################
                  #                        -***-                        #
                  #          Department of theory and spectroscopy      #
                  #               Directorship: Frank Neese             #
                  #        Max Planck Institute fuer Kohlenforschung    #
                  #                Kaiser Wilhelm Platz 1               #
                  #                 D-45470 Muelheim/Ruhr               #
                  #                      Germany                        #
                  #                                                     #
                  #                  All rights reserved                #
                  #                        -***-                        #
                  #######################################################


                         Program Version 4.1.x  -  STABLE  -
                                (SVN: $Rev: 14094$)
                ($Date: 2019-06-14 15:01:15 +0200 (Fri, 14 Jun 2019) $)

                         (BUILD: $Sun Jun 23 06:18:31 CEST 2019$)


 With contributions from (in alphabetic order):
   Daniel Aravena         : Magnetic Properties
   Michael Atanasov       : Ab Initio Ligand Field Theory
   Alexander A. Auer      : GIAO ZORA
   Ute Becker             : Parallelization
   Giovanni Bistoni       : ED, Open-shell LED
   Martin Brehm           : Molecular dynamics
   Dmytro Bykov           : SCF Hessian
   Vijay G. Chilkuri      : MRCI spin determinant printing
   Dipayan Datta          : RHF DLPNO-CCSD density
   Achintya Kumar Dutta   : EOM-CC, STEOM-CC
   Dmitry Ganyushin       : Spin-Orbit,Spin-Spin,Magnetic field MRCI
   Miquel Garcia          : C-PCM Hessian
   Yang Guo               : DLPNO-NEVPT2, CIM, IAO-localization
   Andreas Hansen         : Spin unrestricted coupled pair/coupled cluster methods
   Benjamin Helmich-Paris : CASSCF linear response (MC-RPA)
   Lee Huntington         : MR-EOM, pCC
   Robert Izsak           : Overlap fitted RIJCOSX, COSX-SCS-MP3, EOM
   Christian Kollmar      : KDIIS, OOCD, Brueckner-CCSD(T), CCSD density
   Simone Kossmann        : Meta GGA functionals, TD-DFT gradient, OOMP2, MP2 Hessian
   Martin Krupicka        : AUTO-CI
   Lucas Lang             : DCDCAS
   Dagmar Lenk            : GEPOL surface, SMD
   Dimitrios Liakos       : Extrapolation schemes; parallel MDCI
   Dimitrios Manganas     : ROCIS; embedding schemes
   Dimitrios Pantazis     : SARC Basis sets
   Taras Petrenko         : DFT Hessian,TD-DFT gradient, ASA, ECA, R-Raman, ABS, FL, XAS/XES, NRVS
   Peter Pinski           : DLPNO-MP2, DLPNO-MP2 Gradient
   Christoph Reimann      : Effective Core Potentials
   Marius Retegan         : Local ZFS, SOC
   Christoph Riplinger    : Optimizer, TS searches, QM/MM, DLPNO-CCSD(T), (RO)-DLPNO pert. Triples
   Tobias Risthaus        : Range-separated hybrids, TD-DFT gradient, RPA, STAB
   Michael Roemelt        : Restricted open shell CIS
   Masaaki Saitow         : Open-shell DLPNO
   Barbara Sandhoefer     : DKH picture change effects
   Avijit Sen             : IP-ROCIS
   Kantharuban Sivalingam : CASSCF convergence, NEVPT2, FIC-MRCI
   Bernardo de Souza      : ESD, SOC TD-DFT
   Georgi Stoychev        : AutoAux, RI-MP2 NMR
   Willem Van den Heuvel  : Paramagnetic NMR
   Boris Wezisla          : Elementary symmetry handling
   Frank Wennmohs         : Technical directorship


 We gratefully acknowledge several colleagues who have allowed us to
 interface, adapt or use parts of their codes:
   Stefan Grimme, W. Hujo, H. Kruse,             : VdW corrections, initial TS optimization,
                  C. Bannwarth                     DFT functionals, gCP, sTDA/sTD-DF
   Ed Valeev                                     : LibInt (2-el integral package), F12 methods
   Garnet Chan, S. Sharma, J. Yang, R. Olivares  : DMRG
   Ulf Ekstrom                                   : XCFun DFT Library
   Mihaly Kallay                                 : mrcc  (arbitrary order and MRCC methods)
   Andreas Klamt, Michael Diedenhofen            : otool_cosmo (COSMO solvation model)
   Jiri Pittner, Ondrej Demel                    : Mk-CCSD
   Frank Weinhold                                : gennbo (NPA and NBO analysis)
   Christopher J. Cramer and Donald G. Truhlar   : smd solvation model
   Lars Goerigk                                  : TD-DFT with DH, B97 family of functionals
   V. Asgeirsson, H. Jonsson                     : NEB implementation
   FAccTs GmbH                                   : IRC, NEB, NEB-TS, Multilevel


 Your calculation uses the libint2 library for the computation of 2-el integrals
 For citations please refer to: http://libint.valeyev.net

 This ORCA versions uses:
   CBLAS   interface :  Fast vector & matrix operations
   LAPACKE interface :  Fast linear algebra routines
   SCALAPACK package :  Parallel linear algebra routines




***************************************
The coordinates will be read from file: 1_2_DCE_t.xyz
***************************************


----- Orbital basis set information -----
Your calculation utilizes the basis: cc-pVTZ 
       H, B-Ne : Obtained from the ccRepo (grant-hill.group.shef.ac.uk/ccrepo) Feb. 2017
                 T. H. Dunning, Jr., J. Chem. Phys. 90, 1007 (1989)
            He : Obtained from the ccRepo (grant-hill.group.shef.ac.uk/ccrepo) Feb. 2017
                 D. E. Woon, T. H. Dunning, Jr., J. Chem. Phys. 100, 2975 (1994)
  Li-Be, Na-Mg : Obtained from the ccRepo (grant-hill.group.shef.ac.uk/ccrepo) Feb. 2017
                 B. P. Prascher, D. E. Woon, K. A. Peterson, T. H. Dunning, Jr., A. K. Wilson, Theor. Chem. Acc. 128, 69 (2011)
         Al-Ar : Obtained from the ccRepo (grant-hill.group.shef.ac.uk/ccrepo) Feb. 2017
                 D. E. Woon, T. H. Dunning, Jr., J. Chem. Phys. 98, 1358 (1993)
            Ca : Obtained from the Peterson Research Group Website (tyr0.chem.wsu.edu/~kipeters) Feb. 2017
                 J. Koput, K. A. Peterson, J. Phys. Chem. 106, 9595 (2002)
         Sc-Zn : Obtained from the ccRepo (grant-hill.group.shef.ac.uk/ccrepo) Feb. 2017
                 N. B. Balabanov, K. A. Peterson, J. Chem. Phys. 123, 064107 (2005)
                 N. B. Balabanov, K. A. Peterson, J. Chem. Phys. 125, 074110 (2006)
         Ga-Kr : Obtained from the ccRepo (grant-hill.group.shef.ac.uk/ccrepo) Feb. 2017
                 A. K. Wilson, D. E. Woon, K. A. Peterson, T. H. Dunning, Jr., J. Chem. Phys. 110, 7667 (1999)
             Y : Obtained from the ccRepo (grant-hill.group.shef.ac.uk/ccrepo) Feb. 2017
                 K. A. Peterson, D. Figgen, M. Dolg, H. Stoll, J. Chem. Phys. 126, 124101 (2007)
        Ag, Au : Obtained from the Peterson Research Group Website (tyr0.chem.wsu.edu/~kipeters) Feb. 2017
                 K. A. Peterson, C. Puzzarini, Theor. Chem. Acc. 114, 283 (2005)

----- AuxC basis set information -----
Your calculation utilizes the auxiliary basis: cc-pVTZ/C 
  Obtained from the EMSL Basis Set Exchange (bse.pnl.gov) Feb. 2017
  H-He, B-F, Al-Ar, Ga-Kr : F. Weigend, A. Kohn, C. Hattig, J. Chem. Phys. 116, 3175 (2002)
             Li-Be, Na-Mg : C. Haettig, Phys. Chem. Chem. Phys. 7, 59 (2005)
                       Ne : C. Haettig, Phys. Chem. Chem. Phys. 7, 59 (2005)
                            F. Weigend, A. Kohn, C. Hattig, J. Chem. Phys. 116, 3175 (2002)
                    Sc-Zn : J. G. Hill, J. A. Platts, J. Chem. Phys. 128, 044104 (2008)

----- AuxJK basis set information -----
Your calculation utilizes the auxiliary basis: cc-pVTZ/JK 
  H, B-F, Al-Cl, Ga-Br : Obtained from the TURBOMOLE 7.0 basis set library

================================================================================
                                        WARNINGS
                       Please study these warnings very carefully!
================================================================================


WARNING: MDCI localization with Augmented Hessian Foster-Boys
  ===> : Switching off randomization!

WARNING: Post HF methods need fully converged wavefunctions
  ===> : Setting SCFConvForced true
         You can overwrite this default with %scf ConvForced false 


INFO   : the flag for use of LIBINT has been found!

================================================================================
                                       INPUT FILE
================================================================================
NAME = 1_2_DCE_t.inp
|  1> ! RHF DLPNO-CCSD(T) cc-pVTZ RIJK cc-pVTZ/JK cc-pVTZ/C
|  2> ! KDIIS SOSCF TightSCF TightPNO
|  3> 
|  4> %pal nprocs 8 end
|  5> 
|  6> %maxcore 8000
|  7> 
|  8> %scf maxiter 300
|  9>      shift shift 0.2 erroff 0.1 end
| 10> end
| 11> 
| 12> * xyzfile 0 1 1_2_DCE_t.xyz 
| 13> 
| 14> 
| 15>                          ****END OF INPUT****
================================================================================

                       ****************************
                       * Single Point Calculation *
                       ****************************

---------------------------------
CARTESIAN COORDINATES (ANGSTROEM)
---------------------------------
  C      1.883680    0.160010   -0.000100
  N      2.984720   -0.207990    0.000040
  C      0.487420    0.603120    0.000020
  C     -0.487380   -0.602990   -0.000020
  C     -1.883660   -0.159930    0.000100
  N     -2.984790    0.207770   -0.000040
  H      0.314140    1.228620    0.881740
  H      0.313990    1.228800   -0.881540
  H     -0.314110   -1.228500   -0.881740
  H     -0.313950   -1.228660    0.881550

----------------------------
CARTESIAN COORDINATES (A.U.)
----------------------------
  NO LB      ZA    FRAG     MASS         X           Y           Z
   0 C     6.0000    0    12.011    3.559639    0.302375   -0.000189
   1 N     7.0000    0    14.007    5.640303   -0.393044    0.000076
   2 C     6.0000    0    12.011    0.921090    1.139732    0.000038
   3 C     6.0000    0    12.011   -0.921015   -1.139486   -0.000038
   4 C     6.0000    0    12.011   -3.559602   -0.302224    0.000189
   5 N     7.0000    0    14.007   -5.640436    0.392628   -0.000076
   6 H     1.0000    0     1.008    0.593639    2.321755    1.666247
   7 H     1.0000    0     1.008    0.593355    2.322095   -1.665869
   8 H     1.0000    0     1.008   -0.593582   -2.321529   -1.666247
   9 H     1.0000    0     1.008   -0.593280   -2.321831    1.665888

--------------------------------
INTERNAL COORDINATES (ANGSTROEM)
--------------------------------
 C      0   0   0     0.000000000000     0.00000000     0.00000000
 N      1   0   0     1.160910462180     0.00000000     0.00000000
 C      1   2   0     1.464885140241   179.12586941     0.00000000
 C      3   1   2     1.550785727849   111.33868002   359.23602529
 C      4   3   1     1.464889079896   111.34078066   180.00000000
 N      5   4   3     1.160900765139   179.13921841     0.77577351
 H      3   1   2     1.094854495721   108.88884611   120.90362466
 H      3   1   2     1.094852255284   108.89181644   237.56636594
 H      4   3   1     1.094858626216   110.17435729   300.91769378
 H      4   3   1     1.094854592492   110.17322970    59.07903762

---------------------------
INTERNAL COORDINATES (A.U.)
---------------------------
 C      0   0   0     0.000000000000     0.00000000     0.00000000
 N      1   0   0     2.193802839525     0.00000000     0.00000000
 C      1   2   0     2.768231732707   179.12586941     0.00000000
 C      3   1   2     2.930560318028   111.33868002   359.23602529
 C      4   3   1     2.768239177576   111.34078066   180.00000000
 N      5   4   3     2.193784514772   179.13921841     0.77577351
 H      3   1   2     2.068975153405   108.88884611   120.90362466
 H      3   1   2     2.068970919592   108.89181644   237.56636594
 H      4   3   1     2.068982958910   110.17435729   300.91769378
 H      4   3   1     2.068975336275   110.17322970    59.07903762

---------------------
BASIS SET INFORMATION
---------------------
There are 3 groups of distinct atoms

 Group   1 Type C   : 18s5p2d1f contracted to 4s3p2d1f pattern {8811/311/11/1}
 Group   2 Type N   : 18s5p2d1f contracted to 4s3p2d1f pattern {8811/311/11/1}
 Group   3 Type H   : 5s2p1d contracted to 3s2p1d pattern {311/11/1}

Atom   0C    basis set group =>   1
Atom   1N    basis set group =>   2
Atom   2C    basis set group =>   1
Atom   3C    basis set group =>   1
Atom   4C    basis set group =>   1
Atom   5N    basis set group =>   2
Atom   6H    basis set group =>   3
Atom   7H    basis set group =>   3
Atom   8H    basis set group =>   3
Atom   9H    basis set group =>   3
-------------------------------
AUXILIARY BASIS SET INFORMATION
-------------------------------
There are 3 groups of distinct atoms

 Group   1 Type C   : 8s6p5d3f1g contracted to 8s6p5d3f1g pattern {11111111/111111/11111/111/1}
 Group   2 Type N   : 8s6p5d3f1g contracted to 8s6p5d3f1g pattern {11111111/111111/11111/111/1}
 Group   3 Type H   : 4s3p2d1f contracted to 4s3p2d1f pattern {1111/111/11/1}

Atom   0C    basis set group =>   1
Atom   1N    basis set group =>   2
Atom   2C    basis set group =>   1
Atom   3C    basis set group =>   1
Atom   4C    basis set group =>   1
Atom   5N    basis set group =>   2
Atom   6H    basis set group =>   3
Atom   7H    basis set group =>   3
Atom   8H    basis set group =>   3
Atom   9H    basis set group =>   3
-------------------------------
AUXILIARY BASIS SET INFORMATION
-------------------------------
There are 3 groups of distinct atoms

 Group   1 Type C   : 10s7p5d2f1g contracted to 10s7p5d2f1g pattern {1111111111/1111111/11111/11/1}
 Group   2 Type N   : 10s7p5d2f1g contracted to 10s7p5d2f1g pattern {1111111111/1111111/11111/11/1}
 Group   3 Type H   : 4s3p2d1f contracted to 4s3p2d1f pattern {1111/111/11/1}

Atom   0C    basis set group =>   1
Atom   1N    basis set group =>   2
Atom   2C    basis set group =>   1
Atom   3C    basis set group =>   1
Atom   4C    basis set group =>   1
Atom   5N    basis set group =>   2
Atom   6H    basis set group =>   3
Atom   7H    basis set group =>   3
Atom   8H    basis set group =>   3
Atom   9H    basis set group =>   3


           ************************************************************
           *        Program running with 8 parallel MPI-processes     *
           *              working on a common directory               *
           ************************************************************
------------------------------------------------------------------------------
                           ORCA GTO INTEGRAL CALCULATION
                           -- RI-GTO INTEGRALS CHOSEN --
------------------------------------------------------------------------------

                         BASIS SET STATISTICS AND STARTUP INFO

Gaussian basis set:
 # of primitive gaussian shells          ...  188
 # of primitive gaussian functions       ...  364
 # of contracted shells                  ...   84
 # of contracted basis functions         ...  236
 Highest angular momentum                ...    3
 Maximum contraction depth               ...    8
Auxiliary gaussian basis set:
 # of primitive gaussian shells          ...  190
 # of primitive gaussian functions       ...  594
 # of contracted shells                  ...  190
 # of contracted aux-basis functions     ...  594
 Highest angular momentum                ...    4
 Maximum contraction depth               ...    1
Ratio of auxiliary to basis functions    ...  2.52
Integral package used                  ... LIBINT
 One Electron integrals                  ... done
 Ordering auxiliary basis shells         ... done
 Integral threshhold             Thresh  ...  2.500e-11
 Primitive cut-off               TCut    ...  2.500e-12
 Pre-screening matrix                    ... done
 Shell pair data                         ... 
 Ordering of the shell pairs             ... done (   0.001 sec) 3435 of 3570 pairs
 Determination of significant pairs      ... done (   0.000 sec)
 Creation of shell pair data             ... done (   0.001 sec)
 Storage of shell pair data              ... done (   0.003 sec)
 Shell pair data done in (   0.004 sec)
 Computing two index integrals           ... done
 Cholesky decomposition of the V-matrix  ... done


Timings:
 Total evaluation time                   ...   0.403 sec (  0.007 min)
 One electron matrix time                ...   0.093 sec (  0.002 min) = 23.2%
 Schwartz matrix evaluation time         ...   0.197 sec (  0.003 min) = 48.8%
 Two index repulsion integral time       ...   0.039 sec (  0.001 min) =  9.6%
 Cholesky decomposition of V             ...   0.044 sec (  0.001 min) = 10.9%
 Three index repulsion integral time     ...   0.000 sec (  0.000 min) =  0.0%



           ************************************************************
           *        Program running with 8 parallel MPI-processes     *
           *              working on a common directory               *
           ************************************************************
-------------------------------------------------------------------------------
                                 ORCA SCF
-------------------------------------------------------------------------------

------------
SCF SETTINGS
------------
Hamiltonian:
 Ab initio Hamiltonian  Method          .... Hartree-Fock(GTOs)
 RI-approximation to the Coulomb term is turned on
   Number of auxiliary basis functions  .... 594
   RI-JK (J+K treated both via RI)      .... on


General Settings:
 Integral files         IntName         .... 1_2_DCE_t
 Hartree-Fock type      HFTyp           .... RHF
 Total Charge           Charge          ....    0
 Multiplicity           Mult            ....    1
 Number of Electrons    NEL             ....   42
 Basis Dimension        Dim             ....  236
 Nuclear Repulsion      ENuc            ....    178.3451027266 Eh

Convergence Acceleration:
 DIIS                   CNVDIIS         .... off
 Newton-Raphson         CNVNR           .... off
 SOSCF                  CNVSOSCF        .... on
   Start iteration      SOSCFMaxIt      ....   150
   Startup grad/error   SOSCFStart      ....  0.003300
 Level Shifting         CNVShift        .... on
   Level shift para.    LevelShift      ....    0.2000
   Turn off err/grad.   ShiftErr        ....    0.1000
 Zerner damping         CNVZerner       .... off
 Static damping         CNVDamp         .... off
 Fernandez-Rico         CNVRico         .... off

SCF Procedure:
 Maximum # iterations   MaxIter         ....   300
 SCF integral mode      SCFMode         .... Direct
   Integral package                     .... LIBINT
 Reset frequency        DirectResetFreq ....    20
 Integral Threshold     Thresh          ....  2.500e-11 Eh
 Primitive CutOff       TCut            ....  2.500e-12 Eh

Convergence Tolerance:
 Convergence Check Mode ConvCheckMode   .... Total+1el-Energy
 Convergence forced     ConvForced      .... 1
 Energy Change          TolE            ....  1.000e-08 Eh
 1-El. energy change                    ....  1.000e-05 Eh
 Orbital Gradient       TolG            ....  1.000e-05
 Orbital Rotation angle TolX            ....  1.000e-05


Diagonalization of the overlap matrix:
Smallest eigenvalue                        ... 2.722e-04
Time for diagonalization                   ...    0.011 sec
Threshold for overlap eigenvalues          ... 1.000e-08
Number of eigenvalues below threshold      ... 0
Time for construction of square roots      ...    0.008 sec
Total time needed                          ...    0.019 sec

-------------------
DFT GRID GENERATION
-------------------

General Integration Accuracy     IntAcc      ...  4.340
Radial Grid Type                 RadialGrid  ... Gauss-Chebyshev
Angular Grid (max. acc.)         AngularGrid ... Lebedev-110
Angular grid pruning method      GridPruning ... 3 (G Style)
Weight generation scheme         WeightScheme... Becke
Basis function cutoff            BFCut       ...    1.0000e-11
Integration weight cutoff        WCut        ...    1.0000e-14
Grids for H and He will be reduced by one unit

# of grid points (after initial pruning)     ...  13204 (   0.0 sec)
# of grid points (after weights+screening)   ...  12598 (   0.0 sec)
nearest neighbour list constructed           ...    0.0 sec
Grid point re-assignment to atoms done       ...    0.0 sec
Grid point division into batches done        ...    0.0 sec
Reduced shell lists constructed in    0.1 sec

Total number of grid points                  ...    12598
Total number of batches                      ...      200
Average number of points per batch           ...       62
Average number of grid points per atom       ...     1260
Average number of shells per batch           ...    57.15 (68.04%)
Average number of basis functions per batch  ...   154.46 (65.45%)
Average number of large shells per batch     ...    46.81 (81.90%)
Average number of large basis fcns per batch ...   126.27 (81.75%)
Average number of aux-shells per batch       ...    57.15 (30.08%)
Average number of aux functions per batch    ...   154.46 (26.00%)
Maximum spatial batch extension              ...  14.02, 25.60, 25.60 au
Average spatial batch extension              ...   0.54,  0.80,  0.66 au

Time for grid setup =    0.072 sec

------------------------------
INITIAL GUESS: MODEL POTENTIAL
------------------------------
Loading Hartree-Fock densities                     ... done
Calculating cut-offs                               ... done
Setting up the integral package                    ... done
Initializing the effective Hamiltonian             ... done
Starting the Coulomb interaction                   ... done (   0.0 sec)
Reading the grid                                   ... done
Mapping shells                                     ... done
Starting the XC term evaluation                    ... done (   0.0 sec)
Transforming the Hamiltonian                       ... done (   0.0 sec)
Diagonalizing the Hamiltonian                      ... done (   0.0 sec)
Back transforming the eigenvectors                 ... done (   0.0 sec)
Now organizing SCF variables                       ... done
                      ------------------
                      INITIAL GUESS DONE (   0.2 sec)
                      ------------------
--------------
SCF ITERATIONS
--------------
ITER       Energy         Delta-E        Max-DP      RMS-DP      [F,P]   Gradient Norm
                             ****Turning on KDIIS(Cayley)****
  0   -262.4875554804   0.000000000000 0.01264267  0.00038095  0.1030361   0.157867256
  1   -262.5714351640  -0.083879683601 0.01748653  0.00039858  0.0879452   0.135494692
  2   -262.6389706886  -0.067535524542 0.02921218  0.00063415  0.0712706   0.109949400
  3   -262.7186673817  -0.079696693154 0.04428549  0.00103246  0.0464994   0.068351032
  4   -262.7731791807  -0.054511798986 0.00283532  0.00009158  0.0049278   0.004000101
                      *** Initiating the SOSCF procedure ***
                           *** Shutting down KDIIS ***
                      *** Re-Reading the Fockian *** 
                      *** Removing any level shift *** 
ITER      Energy       Delta-E        Grad      Rot      Max-DP    RMS-DP
  5   -262.77352943  -0.0003502488  0.001472  0.001472  0.001944  0.000066
  6   -262.77356543  -0.0000360018  0.000673  0.000947  0.000510  0.000013
  7   -262.77356642  -0.0000009901  0.000621  0.000458  0.000246  0.000006
  8   -262.77356990  -0.0000034736  0.000090  0.000126  0.000076  0.000002
  9   -262.77357007  -0.0000001709  0.000055  0.000154  0.000077  0.000002
 10   -262.77357017  -0.0000001012  0.000022  0.000081  0.000042  0.000001
 11   -262.77357018  -0.0000000178  0.000006  0.000013  0.000014  0.000000
                  ***Gradient check signals convergence***
              ***Rediagonalizing the Fockian in SOSCF/NRSCF***

               *****************************************************
               *                     SUCCESS                       *
               *           SCF CONVERGED AFTER  12 CYCLES          *
               *****************************************************


----------------
TOTAL SCF ENERGY
----------------

Total Energy       :         -262.77357019 Eh           -7150.43237 eV

Components:
Nuclear Repulsion  :          178.34510273 Eh            4853.01697 eV
Electronic Energy  :         -441.11867291 Eh          -12003.44933 eV
One Electron Energy:         -707.29448906 Eh          -19246.46152 eV
Two Electron Energy:          266.17581615 Eh            7243.01218 eV

Virial components:
Potential Energy   :         -524.96904907 Eh          -14285.13407 eV
Kinetic Energy     :          262.19547889 Eh            7134.70170 eV
Virial Ratio       :            2.00220481


---------------
SCF CONVERGENCE
---------------

  Last Energy change         ...   -1.1048e-09  Tolerance :   1.0000e-08
  Last MAX-Density change    ...    1.0483e-05  Tolerance :   1.0000e-07
  Last RMS-Density change    ...    2.7782e-07  Tolerance :   5.0000e-09
  Last Orbital Gradient      ...    2.3952e-06  Tolerance :   1.0000e-05
  Last Orbital Rotation      ...    4.8942e-06  Tolerance :   1.0000e-05

             **** THE GBW FILE WAS UPDATED (1_2_DCE_t.gbw) ****
             **** DENSITY FILE WAS UPDATED (1_2_DCE_t.scfp.tmp) ****
             **** ENERGY FILE WAS UPDATED (1_2_DCE_t.en.tmp) ****
----------------
ORBITAL ENERGIES
----------------

  NO   OCC          E(Eh)            E(eV) 
   0   2.0000     -15.594200      -424.3398 
   1   2.0000     -15.594196      -424.3396 
   2   2.0000     -11.322679      -308.1058 
   3   2.0000     -11.322128      -308.0908 
   4   2.0000     -11.297844      -307.4300 
   5   2.0000     -11.297839      -307.4298 
   6   2.0000      -1.241863       -33.7928 
   7   2.0000      -1.235827       -33.6286 
   8   2.0000      -1.129706       -30.7409 
   9   2.0000      -0.983672       -26.7671 
  10   2.0000      -0.755019       -20.5451 
  11   2.0000      -0.704602       -19.1732 
  12   2.0000      -0.694814       -18.9068 
  13   2.0000      -0.622193       -16.9307 
  14   2.0000      -0.601465       -16.3667 
  15   2.0000      -0.580215       -15.7884 
  16   2.0000      -0.569830       -15.5059 
  17   2.0000      -0.493644       -13.4327 
  18   2.0000      -0.480231       -13.0678 
  19   2.0000      -0.478478       -13.0200 
  20   2.0000      -0.471000       -12.8165 
  21   0.0000       0.102339         2.7848 
  22   0.0000       0.140952         3.8355 
  23   0.0000       0.142087         3.8664 
  24   0.0000       0.156532         4.2594 
  25   0.0000       0.157466         4.2849 
  26   0.0000       0.195160         5.3106 
  27   0.0000       0.205967         5.6047 
  28   0.0000       0.228102         6.2070 
  29   0.0000       0.229509         6.2452 
  30   0.0000       0.262113         7.1325 
  31   0.0000       0.313062         8.5189 
  32   0.0000       0.327126         8.9015 
  33   0.0000       0.392161        10.6712 
  34   0.0000       0.405948        11.0464 
  35   0.0000       0.407426        11.0866 
  36   0.0000       0.437571        11.9069 
  37   0.0000       0.473538        12.8856 
  38   0.0000       0.488713        13.2986 
  39   0.0000       0.501739        13.6530 
  40   0.0000       0.506761        13.7897 
  41   0.0000       0.539777        14.6881 
  42   0.0000       0.561688        15.2843 
  43   0.0000       0.577794        15.7226 
  44   0.0000       0.582584        15.8529 
  45   0.0000       0.593928        16.1616 
  46   0.0000       0.606467        16.5028 
  47   0.0000       0.620053        16.8725 
  48   0.0000       0.622682        16.9440 
  49   0.0000       0.674607        18.3570 
  50   0.0000       0.676308        18.4033 
  51   0.0000       0.707790        19.2599 
  52   0.0000       0.713937        19.4272 
  53   0.0000       0.768384        20.9088 
  54   0.0000       0.769641        20.9430 
  55   0.0000       0.770908        20.9775 
  56   0.0000       0.779440        21.2096 
  57   0.0000       0.792497        21.5649 
  58   0.0000       0.810583        22.0571 
  59   0.0000       0.852820        23.2064 
  60   0.0000       0.883336        24.0368 
  61   0.0000       0.905470        24.6391 
  62   0.0000       0.931136        25.3375 
  63   0.0000       0.949381        25.8340 
  64   0.0000       1.019797        27.7501 
  65   0.0000       1.040354        28.3095 
  66   0.0000       1.082214        29.4485 
  67   0.0000       1.153062        31.3764 
  68   0.0000       1.179957        32.1083 
  69   0.0000       1.183166        32.1956 
  70   0.0000       1.215660        33.0798 
  71   0.0000       1.216405        33.1001 
  72   0.0000       1.231103        33.5000 
  73   0.0000       1.244399        33.8618 
  74   0.0000       1.253282        34.1035 
  75   0.0000       1.266940        34.4752 
  76   0.0000       1.332646        36.2631 
  77   0.0000       1.332688        36.2643 
  78   0.0000       1.338540        36.4235 
  79   0.0000       1.394862        37.9561 
  80   0.0000       1.417935        38.5840 
  81   0.0000       1.426271        38.8108 
  82   0.0000       1.453929        39.5634 
  83   0.0000       1.476387        40.1745 
  84   0.0000       1.504428        40.9376 
  85   0.0000       1.509784        41.0833 
  86   0.0000       1.549129        42.1540 
  87   0.0000       1.549868        42.1741 
  88   0.0000       1.557983        42.3949 
  89   0.0000       1.584721        43.1225 
  90   0.0000       1.612404        43.8758 
  91   0.0000       1.661327        45.2070 
  92   0.0000       1.681597        45.7586 
  93   0.0000       1.715674        46.6859 
  94   0.0000       1.763718        47.9932 
  95   0.0000       1.776095        48.3300 
  96   0.0000       1.967558        53.5400 
  97   0.0000       1.997308        54.3495 
  98   0.0000       1.997359        54.3509 
  99   0.0000       2.031749        55.2867 
 100   0.0000       2.094988        57.0075 
 101   0.0000       2.109559        57.4040 
 102   0.0000       2.250610        61.2422 
 103   0.0000       2.306200        62.7549 
 104   0.0000       2.364814        64.3498 
 105   0.0000       2.418791        65.8187 
 106   0.0000       2.430826        66.1461 
 107   0.0000       2.456446        66.8433 
 108   0.0000       2.528104        68.7932 
 109   0.0000       2.553103        69.4735 
 110   0.0000       2.595964        70.6398 
 111   0.0000       2.636486        71.7424 
 112   0.0000       2.686969        73.1161 
 113   0.0000       2.706495        73.6475 
 114   0.0000       2.769012        75.3487 
 115   0.0000       2.775293        75.5196 
 116   0.0000       2.840816        77.3025 
 117   0.0000       2.883636        78.4677 
 118   0.0000       2.886254        78.5390 
 119   0.0000       2.907513        79.1175 
 120   0.0000       2.912418        79.2509 
 121   0.0000       2.930075        79.7314 
 122   0.0000       2.931230        79.7628 
 123   0.0000       2.940774        80.0225 
 124   0.0000       2.989912        81.3596 
 125   0.0000       3.039412        82.7066 
 126   0.0000       3.050782        83.0160 
 127   0.0000       3.085311        83.9556 
 128   0.0000       3.133459        85.2657 
 129   0.0000       3.145859        85.6032 
 130   0.0000       3.157537        85.9210 
 131   0.0000       3.176099        86.4261 
 132   0.0000       3.187251        86.7295 
 133   0.0000       3.204243        87.1919 
 134   0.0000       3.212962        87.4292 
 135   0.0000       3.284479        89.3752 
 136   0.0000       3.286377        89.4269 
 137   0.0000       3.314165        90.1830 
 138   0.0000       3.314769        90.1995 
 139   0.0000       3.324223        90.4567 
 140   0.0000       3.349840        91.1538 
 141   0.0000       3.374476        91.8242 
 142   0.0000       3.385961        92.1367 
 143   0.0000       3.400804        92.5406 
 144   0.0000       3.415208        92.9325 
 145   0.0000       3.423520        93.1587 
 146   0.0000       3.507788        95.4518 
 147   0.0000       3.523279        95.8733 
 148   0.0000       3.525939        95.9457 
 149   0.0000       3.557880        96.8148 
 150   0.0000       3.573037        97.2273 
 151   0.0000       3.589033        97.6626 
 152   0.0000       3.666839        99.7798 
 153   0.0000       3.668086        99.8137 
 154   0.0000       3.675325       100.0107 
 155   0.0000       3.722884       101.3048 
 156   0.0000       3.745919       101.9317 
 157   0.0000       3.797765       103.3424 
 158   0.0000       3.811421       103.7140 
 159   0.0000       3.895193       105.9936 
 160   0.0000       3.938353       107.1680 
 161   0.0000       3.969138       108.0057 
 162   0.0000       4.043749       110.0360 
 163   0.0000       4.053684       110.3063 
 164   0.0000       4.070777       110.7715 
 165   0.0000       4.083931       111.1294 
 166   0.0000       4.100524       111.5809 
 167   0.0000       4.103997       111.6754 
 168   0.0000       4.127214       112.3072 
 169   0.0000       4.134652       112.5096 
 170   0.0000       4.155532       113.0778 
 171   0.0000       4.191235       114.0493 
 172   0.0000       4.221335       114.8684 
 173   0.0000       4.242691       115.4495 
 174   0.0000       4.276276       116.3634 
 175   0.0000       4.282070       116.5210 
 176   0.0000       4.325252       117.6961 
 177   0.0000       4.329596       117.8143 
 178   0.0000       4.330266       117.8325 
 179   0.0000       4.331782       117.8738 
 180   0.0000       4.351400       118.4076 
 181   0.0000       4.383020       119.2680 
 182   0.0000       4.477911       121.8501 
 183   0.0000       4.507538       122.6563 
 184   0.0000       4.572610       124.4270 
 185   0.0000       4.572831       124.4331 
 186   0.0000       4.601500       125.2132 
 187   0.0000       4.605570       125.3239 
 188   0.0000       4.693046       127.7043 
 189   0.0000       4.756385       129.4278 
 190   0.0000       4.797170       130.5376 
 191   0.0000       4.846999       131.8935 
 192   0.0000       4.874621       132.6452 
 193   0.0000       4.875023       132.6561 
 194   0.0000       4.893601       133.1616 
 195   0.0000       4.972365       135.3049 
 196   0.0000       4.984804       135.6434 
 197   0.0000       4.986012       135.6763 
 198   0.0000       5.004223       136.1718 
 199   0.0000       5.012283       136.3912 
 200   0.0000       5.032334       136.9368 
 201   0.0000       5.150947       140.1644 
 202   0.0000       5.173710       140.7838 
 203   0.0000       5.179675       140.9461 
 204   0.0000       5.218576       142.0047 
 205   0.0000       5.248564       142.8207 
 206   0.0000       5.270822       143.4264 
 207   0.0000       5.282616       143.7473 
 208   0.0000       5.461283       148.6091 
 209   0.0000       5.502763       149.7378 
 210   0.0000       5.518379       150.1627 
 211   0.0000       5.545536       150.9017 
 212   0.0000       5.557681       151.2322 
 213   0.0000       5.595222       152.2537 
 214   0.0000       5.615487       152.8052 
 215   0.0000       5.630063       153.2018 
 216   0.0000       5.658108       153.9650 
 217   0.0000       5.697745       155.0435 
 218   0.0000       5.755437       156.6134 
 219   0.0000       5.815284       158.2419 
 220   0.0000       6.136948       166.9949 
 221   0.0000       6.144538       167.2014 
 222   0.0000       6.186950       168.3555 
 223   0.0000       6.324089       172.0872 
 224   0.0000       6.462196       175.8453 
 225   0.0000       6.511955       177.1993 
 226   0.0000       6.547048       178.1542 
 227   0.0000       6.547379       178.1633 
 228   0.0000       6.560819       178.5290 
 229   0.0000       6.630222       180.4175 
 230   0.0000       8.163087       222.1289 
 231   0.0000       8.554362       232.7760 
 232   0.0000      13.234877       360.1393 
 233   0.0000      13.767671       374.6374 
 234   0.0000      15.861827       431.6223 
 235   0.0000      16.318339       444.0446 

                    ********************************
                    * MULLIKEN POPULATION ANALYSIS *
                    ********************************

-----------------------
MULLIKEN ATOMIC CHARGES
-----------------------
   0 C :   -0.080774
   1 N :   -0.088428
   2 C :   -0.143285
   3 C :   -0.143274
   4 C :   -0.080785
   5 N :   -0.088420
   6 H :    0.156241
   7 H :    0.156240
   8 H :    0.156243
   9 H :    0.156242
Sum of atomic charges:   -0.0000000

--------------------------------
MULLIKEN REDUCED ORBITAL CHARGES
--------------------------------
  0 C s       :     3.145089  s :     3.145089
      pz      :     0.894789  p :     2.809215
      px      :     0.996749
      py      :     0.917677
      dz2     :     0.006685  d :     0.110074
      dxz     :     0.036262
      dyz     :     0.005903
      dx2y2   :     0.027614
      dxy     :     0.033609
      f0      :     0.002314  f :     0.016397
      f+1     :     0.001443
      f-1     :     0.000479
      f+2     :     0.002392
      f-2     :     0.001424
      f+3     :     0.004756
      f-3     :     0.003589
  1 N s       :     3.592215  s :     3.592215
      pz      :     1.056703  p :     3.435235
      px      :     1.308473
      py      :     1.070058
      dz2     :     0.003478  d :     0.057590
      dxz     :     0.019610
      dyz     :     0.002110
      dx2y2   :     0.014418
      dxy     :     0.017974
      f0      :     0.000483  f :     0.003388
      f+1     :     0.000296
      f-1     :     0.000107
      f+2     :     0.000505
      f-2     :     0.000284
      f+3     :     0.000974
      f-3     :     0.000739
  2 C s       :     3.207177  s :     3.207177
      pz      :     1.071469  p :     2.826576
      px      :     0.795202
      py      :     0.959905
      dz2     :     0.015754  d :     0.103695
      dxz     :     0.010839
      dyz     :     0.033798
      dx2y2   :     0.022083
      dxy     :     0.021221
      f0      :     0.000329  f :     0.005837
      f+1     :     0.000898
      f-1     :     0.001417
      f+2     :     0.000084
      f-2     :     0.000456
      f+3     :     0.001273
      f-3     :     0.001380
  3 C s       :     3.207178  s :     3.207178
      pz      :     1.071471  p :     2.826565
      px      :     0.795197
      py      :     0.959897
      dz2     :     0.015753  d :     0.103693
      dxz     :     0.010839
      dyz     :     0.033798
      dx2y2   :     0.022080
      dxy     :     0.021222
      f0      :     0.000329  f :     0.005837
      f+1     :     0.000898
      f-1     :     0.001417
      f+2     :     0.000084
      f-2     :     0.000456
      f+3     :     0.001273
      f-3     :     0.001380
  4 C s       :     3.145089  s :     3.145089
      pz      :     0.894789  p :     2.809227
      px      :     0.996748
      py      :     0.917690
      dz2     :     0.006685  d :     0.110072
      dxz     :     0.036269
      dyz     :     0.005896
      dx2y2   :     0.027608
      dxy     :     0.033615
      f0      :     0.002314  f :     0.016397
      f+1     :     0.001443
      f-1     :     0.000479
      f+2     :     0.002393
      f-2     :     0.001422
      f+3     :     0.004754
      f-3     :     0.003591
  5 N s       :     3.592208  s :     3.592208
      pz      :     1.056704  p :     3.435233
      px      :     1.308505
      py      :     1.070024
      dz2     :     0.003478  d :     0.057590
      dxz     :     0.019614
      dyz     :     0.002107
      dx2y2   :     0.014412
      dxy     :     0.017979
      f0      :     0.000483  f :     0.003389
      f+1     :     0.000296
      f-1     :     0.000107
      f+2     :     0.000505
      f-2     :     0.000284
      f+3     :     0.000974
      f-3     :     0.000739
  6 H s       :     0.810545  s :     0.810545
      pz      :     0.010798  p :     0.030690
      px      :     0.008057
      py      :     0.011835
      dz2     :     0.000639  d :     0.002524
      dxz     :     0.000489
      dyz     :     0.000707
      dx2y2   :     0.000314
      dxy     :     0.000376
  7 H s       :     0.810546  s :     0.810546
      pz      :     0.010796  p :     0.030690
      px      :     0.008058
      py      :     0.011836
      dz2     :     0.000639  d :     0.002524
      dxz     :     0.000489
      dyz     :     0.000707
      dx2y2   :     0.000314
      dxy     :     0.000376
  8 H s       :     0.810544  s :     0.810544
      pz      :     0.010798  p :     0.030690
      px      :     0.008057
      py      :     0.011834
      dz2     :     0.000639  d :     0.002524
      dxz     :     0.000489
      dyz     :     0.000707
      dx2y2   :     0.000314
      dxy     :     0.000376
  9 H s       :     0.810545  s :     0.810545
      pz      :     0.010796  p :     0.030690
      px      :     0.008058
      py      :     0.011836
      dz2     :     0.000639  d :     0.002524
      dxz     :     0.000489
      dyz     :     0.000707
      dx2y2   :     0.000314
      dxy     :     0.000376


                     *******************************
                     * LOEWDIN POPULATION ANALYSIS *
                     *******************************

----------------------
LOEWDIN ATOMIC CHARGES
----------------------
   0 C :   -0.169956
   1 N :    0.094507
   2 C :    0.055415
   3 C :    0.055419
   4 C :   -0.169962
   5 N :    0.094512
   6 H :    0.010017
   7 H :    0.010012
   8 H :    0.010021
   9 H :    0.010015

-------------------------------
LOEWDIN REDUCED ORBITAL CHARGES
-------------------------------
  0 C s       :     2.827634  s :     2.827634
      pz      :     0.833529  p :     2.839833
      px      :     1.135828
      py      :     0.870476
      dz2     :     0.040301  d :     0.445209
      dxz     :     0.127244
      dyz     :     0.019173
      dx2y2   :     0.124426
      dxy     :     0.134065
      f0      :     0.006249  f :     0.057280
      f+1     :     0.008290
      f-1     :     0.001782
      f+2     :     0.006522
      f-2     :     0.004045
      f+3     :     0.015266
      f-3     :     0.015126
  1 N s       :     3.284668  s :     3.284668
      pz      :     1.011109  p :     3.491549
      px      :     1.435060
      py      :     1.045379
      dz2     :     0.012264  d :     0.115355
      dxz     :     0.029549
      dyz     :     0.003204
      dx2y2   :     0.035489
      dxy     :     0.034848
      f0      :     0.001494  f :     0.013920
      f+1     :     0.002008
      f-1     :     0.000454
      f+2     :     0.001591
      f-2     :     0.000885
      f+3     :     0.003762
      f-3     :     0.003726
  2 C s       :     2.658284  s :     2.658284
      pz      :     0.992154  p :     2.835750
      px      :     0.906847
      py      :     0.936748
      dz2     :     0.061801  d :     0.410823
      dxz     :     0.048964
      dyz     :     0.103863
      dx2y2   :     0.100701
      dxy     :     0.095495
      f0      :     0.003297  f :     0.039729
      f+1     :     0.005641
      f-1     :     0.005217
      f+2     :     0.004529
      f-2     :     0.004861
      f+3     :     0.007830
      f-3     :     0.008354
  3 C s       :     2.658285  s :     2.658285
      pz      :     0.992155  p :     2.835745
      px      :     0.906845
      py      :     0.936745
      dz2     :     0.061802  d :     0.410822
      dxz     :     0.048964
      dyz     :     0.103860
      dx2y2   :     0.100701
      dxy     :     0.095496
      f0      :     0.003297  f :     0.039728
      f+1     :     0.005641
      f-1     :     0.005217
      f+2     :     0.004529
      f-2     :     0.004861
      f+3     :     0.007830
      f-3     :     0.008354
  4 C s       :     2.827632  s :     2.827632
      pz      :     0.833529  p :     2.839840
      px      :     1.135868
      py      :     0.870443
      dz2     :     0.040301  d :     0.445209
      dxz     :     0.127261
      dyz     :     0.019157
      dx2y2   :     0.124431
      dxy     :     0.134059
      f0      :     0.006249  f :     0.057281
      f+1     :     0.008291
      f-1     :     0.001781
      f+2     :     0.006527
      f-2     :     0.004040
      f+3     :     0.015266
      f-3     :     0.015126
  5 N s       :     3.284662  s :     3.284662
      pz      :     1.011109  p :     3.491548
      px      :     1.435132
      py      :     1.045308
      dz2     :     0.012264  d :     0.115357
      dxz     :     0.029555
      dyz     :     0.003199
      dx2y2   :     0.035492
      dxy     :     0.034846
      f0      :     0.001494  f :     0.013921
      f+1     :     0.002008
      f-1     :     0.000454
      f+2     :     0.001593
      f-2     :     0.000884
      f+3     :     0.003762
      f-3     :     0.003727
  6 H s       :     0.810588  s :     0.810588
      pz      :     0.064324  p :     0.151125
      px      :     0.034932
      py      :     0.051869
      dz2     :     0.008941  d :     0.028269
      dxz     :     0.005002
      dyz     :     0.007803
      dx2y2   :     0.003147
      dxy     :     0.003376
  7 H s       :     0.810594  s :     0.810594
      pz      :     0.064315  p :     0.151125
      px      :     0.034933
      py      :     0.051877
      dz2     :     0.008940  d :     0.028269
      dxz     :     0.005000
      dyz     :     0.007802
      dx2y2   :     0.003149
      dxy     :     0.003378
  8 H s       :     0.810586  s :     0.810586
      pz      :     0.064323  p :     0.151124
      px      :     0.034932
      py      :     0.051869
      dz2     :     0.008941  d :     0.028269
      dxz     :     0.005002
      dyz     :     0.007803
      dx2y2   :     0.003147
      dxy     :     0.003376
  9 H s       :     0.810591  s :     0.810591
      pz      :     0.064315  p :     0.151125
      px      :     0.034933
      py      :     0.051877
      dz2     :     0.008940  d :     0.028269
      dxz     :     0.005000
      dyz     :     0.007802
      dx2y2   :     0.003149
      dxy     :     0.003378


                      *****************************
                      * MAYER POPULATION ANALYSIS *
                      *****************************

  NA   - Mulliken gross atomic population
  ZA   - Total nuclear charge
  QA   - Mulliken gross atomic charge
  VA   - Mayer's total valence
  BVA  - Mayer's bonded valence
  FA   - Mayer's free valence

  ATOM       NA         ZA         QA         VA         BVA        FA
  0 C      6.0808     6.0000    -0.0808     4.0964     4.0964    -0.0000
  1 N      7.0884     7.0000    -0.0884     3.1424     3.1424    -0.0000
  2 C      6.1433     6.0000    -0.1433     3.8702     3.8702    -0.0000
  3 C      6.1433     6.0000    -0.1433     3.8702     3.8702    -0.0000
  4 C      6.0808     6.0000    -0.0808     4.0964     4.0964    -0.0000
  5 N      7.0884     7.0000    -0.0884     3.1424     3.1424     0.0000
  6 H      0.8438     1.0000     0.1562     0.9771     0.9771    -0.0000
  7 H      0.8438     1.0000     0.1562     0.9771     0.9771     0.0000
  8 H      0.8438     1.0000     0.1562     0.9771     0.9771    -0.0000
  9 H      0.8438     1.0000     0.1562     0.9771     0.9771    -0.0000

  Mayer bond orders larger than 0.1
B(  0-C ,  1-N ) :   3.1100 B(  0-C ,  2-C ) :   0.9864 B(  2-C ,  3-C ) :   0.9505 
B(  2-C ,  6-H ) :   0.9638 B(  2-C ,  7-H ) :   0.9638 B(  3-C ,  4-C ) :   0.9864 
B(  3-C ,  8-H ) :   0.9638 B(  3-C ,  9-H ) :   0.9638 B(  4-C ,  5-N ) :   3.1100 


-------
TIMINGS
-------

Total SCF time: 0 days 0 hours 0 min 5 sec 

Total time                  ....       5.957 sec
Sum of individual times     ....       5.761 sec  ( 96.7%)

Fock matrix formation       ....       5.400 sec  ( 90.7%)
Diagonalization             ....       0.050 sec  (  0.8%)
Density matrix formation    ....       0.009 sec  (  0.1%)
Population analysis         ....       0.015 sec  (  0.3%)
Initial guess               ....       0.171 sec  (  2.9%)
Orbital Transformation      ....       0.000 sec  (  0.0%)
Orbital Orthonormalization  ....       0.000 sec  (  0.0%)
DIIS solution               ....       0.000 sec  (  0.0%)
SOSCF solution              ....       0.044 sec  (  0.7%)


           ************************************************************
           *        Program running with 8 parallel MPI-processes     *
           *              working on a common directory               *
           ************************************************************


------------------------------------------------------------------------------- 
                              ORCA-MATRIX DRIVEN CI                            
------------------------------------------------------------------------------- 


Wavefunction type
-----------------
Correlation treatment                      ...      CCSD     
Single excitations                         ... ON
Orbital optimization                       ... OFF
Calculation of Z vector                    ... OFF
Calculation of Brueckner orbitals          ... OFF
Perturbative triple excitations            ... ON
Calculation of F12 correction              ... OFF
Frozen core treatment                      ... chemical core (12 el)
Reference Wavefunction                     ... RHF
  Internal Orbitals:     6 ...   20 ( 15 MO's/ 30 electrons)
  Virtual  Orbitals:    21 ...  235 (215 MO's              )
Number of AO's                             ...    236
Number of electrons                        ...     42
Number of correlated electrons             ...     30

Algorithmic settings
--------------------
Integral transformation                    ... All integrals via the RI transformation
K(C) Formation                             ... RI-DLPNO
   PNO-Integral Storage                    ... ON DISK
   PNO occupation number cut-off           ... 1.000e-07
   Singles PNO occupation number cut-off   ... 3.000e-09
   PNO Mulliken prescreening cut-off       ... 1.000e-03
   Domain cut-off (Mulliken population)    ... 1.000e-03
   PNO Normalization                       ...    1
Maximum number of iterations               ...        50
Convergence tolerance (max. residuum)      ... 1.000e-05
Level shift for amplitude update           ... 2.000e-01
Maximum number of DIIS vectors             ...         7
DIIS turned on at iteration                ...         0
Damping before turning on DIIS             ...     0.500
Damping after turning on DIIS              ...     0.000
Pair specific amplitude update             ... OFF
Natural orbital iterations                 ... OFF
Perturbative natural orbital generation    ... OFF
Printlevel                                 ... 2

Singles Fock matrix elements calculated using PNOs.

Memory handling:
----------------
Maximum memory for working arrays          ...   8000 MB
Data storage in matrix containers          ... UNCOMPRESSED
Data type for integral storage             ... DOUBLE
In-Core Storage of quantities:
   Amplitudes+Sigma Vector      ... NO
   J+K operators                ... NO
   DIIS vectors                 ... NO
   3-external integrals         ... NO
   4-external integrals         ... NO

Localization treatment:
-----------------------
Localization option                        ...    6
Localization threshhold                    ... -1.0e+00
Using relative localization threshhold     ... 1.0e-08
Neglect threshold for strong pairs         ... 1.000e-05 Eh
Prescreening threshold for very weak pairs ... 1.000e-07 Eh

Initializing the integral package          ... done
Localizing the valence orbitals
------------------------------------------------------------------------------
                           ORCA ORBITAL LOCALIZATION
------------------------------------------------------------------------------

Input orbitals are from                  ... 1_2_DCE_t.proc0.gbw
Output orbitals are to                   ... 1_2_DCE_t.proc0.loc
Max. number of iterations                ... 128
Localizations seeded randomly            ... off
Convergence tolerance                    ... 1.000e-06
Using relative localization threshhold   ... 1.000e-08
Treshold for strong local MOs            ... 9.500e-01
Treshold for bond MOs                    ... 8.500e-01
Operator                                 ... 0
Orbital range for localization           ... 6 to 20
Localization criterion                   ... FOSTER-BOYS (AUGMENTED HESSIAN)
Doing the dipole integrals     ... o.k.
Initial value of the localization sum :   207.880093
ITERATION   0 : L=  239.5452112547 DL=  3.17e+01 (AVERGE_DL)=    0.5491562173 
ITERATION   1 : L=  246.4119909410 DL=  6.87e+00 (AVERGE_DL)=    0.2557301347 
ITERATION   2 : L=  246.5417353242 DL=  1.30e-01 (AVERGE_DL)=    0.0351519671 
ITERATION   3 : L=  246.5420182754 DL=  2.83e-04 (AVERGE_DL)=    0.0016415765 
ITERATION   4 : L=  246.5420327573 DL=  1.45e-05 (AVERGE_DL)=    0.0003713809 
ITERATION   5 : L=  246.5420482235 DL=  1.55e-05 (AVERGE_DL)=    0.0003837928 
ITERATION   6 : L=  246.5420642055 DL=  1.60e-05 (AVERGE_DL)=    0.0003901399 
ITERATION   7 : L=  246.5420809984 DL=  1.68e-05 (AVERGE_DL)=    0.0003999158 
ITERATION   8 : L=  246.5420986096 DL=  1.76e-05 (AVERGE_DL)=    0.0004095430 
ITERATION   9 : L=  246.5421170784 DL=  1.85e-05 (AVERGE_DL)=    0.0004193968 
ITERATION  10 : L=  246.5421364456 DL=  1.94e-05 (AVERGE_DL)=    0.0004294753 
ITERATION  11 : L=  246.5421567511 DL=  2.03e-05 (AVERGE_DL)=    0.0004397569 
ITERATION  12 : L=  246.5421780411 DL=  2.13e-05 (AVERGE_DL)=    0.0004502906 
ITERATION  13 : L=  246.5422003518 DL=  2.23e-05 (AVERGE_DL)=    0.0004609590 
ITERATION  14 : L=  246.5422237406 DL=  2.34e-05 (AVERGE_DL)=    0.0004719646 
ITERATION  15 : L=  246.5422482458 DL=  2.45e-05 (AVERGE_DL)=    0.0004830968 
ITERATION  16 : L=  246.5422739223 DL=  2.57e-05 (AVERGE_DL)=    0.0004945076 
ITERATION  17 : L=  246.5423008170 DL=  2.69e-05 (AVERGE_DL)=    0.0005061034 
ITERATION  18 : L=  246.5423289884 DL=  2.82e-05 (AVERGE_DL)=    0.0005179754 
ITERATION  19 : L=  246.5423584840 DL=  2.95e-05 (AVERGE_DL)=    0.0005300101 
ITERATION  20 : L=  246.5423893703 DL=  3.09e-05 (AVERGE_DL)=    0.0005423610 
ITERATION  21 : L=  246.5424216932 DL=  3.23e-05 (AVERGE_DL)=    0.0005548308 
ITERATION  22 : L=  246.5424555240 DL=  3.38e-05 (AVERGE_DL)=    0.0005676243 
ITERATION  23 : L=  246.5424909157 DL=  3.54e-05 (AVERGE_DL)=    0.0005805720 
ITERATION  24 : L=  246.5425279414 DL=  3.70e-05 (AVERGE_DL)=    0.0005938229 
ITERATION  25 : L=  246.5425666552 DL=  3.87e-05 (AVERGE_DL)=    0.0006072095 
ITERATION  26 : L=  246.5426071352 DL=  4.05e-05 (AVERGE_DL)=    0.0006209053 
ITERATION  27 : L=  246.5426494391 DL=  4.23e-05 (AVERGE_DL)=    0.0006347400 
ITERATION  28 : L=  246.5426936494 DL=  4.42e-05 (AVERGE_DL)=    0.0006488840 
ITERATION  29 : L=  246.5427398256 DL=  4.62e-05 (AVERGE_DL)=    0.0006631538 
ITERATION  30 : L=  246.5427880521 DL=  4.82e-05 (AVERGE_DL)=    0.0006777172 
ITERATION  31 : L=  246.5428383914 DL=  5.03e-05 (AVERGE_DL)=    0.0006924025 
ITERATION  32 : L=  246.5428909310 DL=  5.25e-05 (AVERGE_DL)=    0.0007073738 
ITERATION  33 : L=  246.5429457343 DL=  5.48e-05 (AVERGE_DL)=    0.0007224514 
ITERATION  34 : L=  246.5430028898 DL=  5.72e-05 (AVERGE_DL)=    0.0007377927 
ITERATION  35 : L=  246.5430624669 DL=  5.96e-05 (AVERGE_DL)=    0.0007532598 
ITERATION  36 : L=  246.5431245522 DL=  6.21e-05 (AVERGE_DL)=    0.0007689535 
ITERATION  37 : L=  246.5431892143 DL=  6.47e-05 (AVERGE_DL)=    0.0007847477 
ITERATION  38 : L=  246.5432565408 DL=  6.73e-05 (AVERGE_DL)=    0.0008007526 
ITERATION  39 : L=  246.5433265990 DL=  7.01e-05 (AVERGE_DL)=    0.0008168362 
ITERATION  40 : L=  246.5433994777 DL=  7.29e-05 (AVERGE_DL)=    0.0008331161 
ITERATION  41 : L=  246.5434752391 DL=  7.58e-05 (AVERGE_DL)=    0.0008494335 
ITERATION  42 : L=  246.5435539729 DL=  7.87e-05 (AVERGE_DL)=    0.0008659363 
ITERATION  43 : L=  246.5436357360 DL=  8.18e-05 (AVERGE_DL)=    0.0008824379 
ITERATION  44 : L=  246.5437206142 DL=  8.49e-05 (AVERGE_DL)=    0.0008990904 
ITERATION  45 : L=  246.5438086613 DL=  8.80e-05 (AVERGE_DL)=    0.0009157201 
ITERATION  46 : L=  246.5438999500 DL=  9.13e-05 (AVERGE_DL)=    0.0009324252 
ITERATION  47 : L=  246.5439945448 DL=  9.46e-05 (AVERGE_DL)=    0.0009491590 
ITERATION  48 : L=  246.5440924952 DL=  9.80e-05 (AVERGE_DL)=    0.0009658473 
ITERATION  49 : L=  246.5441938525 DL=  1.01e-04 (AVERGE_DL)=    0.0009825005 
ITERATION  50 : L=  246.5442986711 DL=  1.05e-04 (AVERGE_DL)=    0.0009991357 
ITERATION  51 : L=  246.5444069904 DL=  1.08e-04 (AVERGE_DL)=    0.0010156831 
ITERATION  52 : L=  246.5445188388 DL=  1.12e-04 (AVERGE_DL)=    0.0010320964 
ITERATION  53 : L=  246.5446342492 DL=  1.15e-04 (AVERGE_DL)=    0.0010484022 
ITERATION  54 : L=  246.5447532546 DL=  1.19e-04 (AVERGE_DL)=    0.0010646052 
ITERATION  55 : L=  246.5448758482 DL=  1.23e-04 (AVERGE_DL)=    0.0010805363 
ITERATION  56 : L=  246.5450020418 DL=  1.26e-04 (AVERGE_DL)=    0.0010962860 
ITERATION  57 : L=  246.5451318336 DL=  1.30e-04 (AVERGE_DL)=    0.0011118059 
ITERATION  58 : L=  246.5452652066 DL=  1.33e-04 (AVERGE_DL)=    0.0011270400 
ITERATION  59 : L=  246.5454021449 DL=  1.37e-04 (AVERGE_DL)=    0.0011420047 
ITERATION  60 : L=  246.5455426024 DL=  1.40e-04 (AVERGE_DL)=    0.0011565855 
ITERATION  61 : L=  246.5456865399 DL=  1.44e-04 (AVERGE_DL)=    0.0011708260 
ITERATION  62 : L=  246.5458338976 DL=  1.47e-04 (AVERGE_DL)=    0.0011846546 
ITERATION  63 : L=  246.5459846099 DL=  1.51e-04 (AVERGE_DL)=    0.0011980630 
ITERATION  64 : L=  246.5461385950 DL=  1.54e-04 (AVERGE_DL)=    0.0012110017 
ITERATION  65 : L=  246.5462957632 DL=  1.57e-04 (AVERGE_DL)=    0.0012234541 
DETECTED SLOW CONVERGENCE - QUITTING

------------------------------------------------------
AUGMENTED HESSIAN OPTIMIZATION OF FOSTER-BOYS ORBITALS
------------------------------------------------------

Spin operator:           0
Orbital window:          6 to 20
Number of iterations:    128
Gradient tolerance:      1.000e-06
Number of pairs:         105
Davidson threshold:      2000
Diagonalization method:  LAPACK
Iter:    0   L: 246.5462957632   Grad. norm: 1.899073e-02
   *** Detected a saddle point. ***
       Augmented Hessian eigenvalues:  2.25e-02  1.29e-02 -9.50e-03 -3.71e+00 ... 
Iter:    1   L: 246.5493728763   Grad. norm: 2.090857e-02
Iter:    2   L: 246.5524278745   Grad. norm: 2.226282e-02
Iter:    3   L: 246.5549106295   Grad. norm: 2.126668e-02
Iter:    4   L: 246.5563822522   Grad. norm: 1.603687e-02
Iter:    5   L: 246.5566642340   Grad. norm: 3.728111e-03
   *** Likely close to a maximum now. ***
       Augmented Hessian eigenvalues:  1.76e-07 -3.36e-02 -3.36e-02 -3.76e+00 ... 
Iter:    6   L: 246.5566643221   Grad. norm: 5.645433e-08
LOCALIZATION HAS CONVERGED.

Eigenvalues of the Hessian:
  0 -3.360e-02
  1 -3.361e-02
  2 -3.757e+00
  3 -3.757e+00
  4 -3.788e+00
  5 -3.788e+00
  6 -1.057e+01
  7 -1.057e+01
  8 -1.080e+01
  9 -1.080e+01
    ...


------------------------------------------------------------------------------- 
                    LOCALIZED MOLECULAR ORBITAL COMPOSITIONS                   
------------------------------------------------------------------------------- 

The Mulliken populations for each LMO on each atom are computed
The LMO`s will be ordered according to atom index and type
  (A) Strongly localized MO`s have populations of >=0.950 on one atom
  (B) Two center bond orbitals have populations of >=0.850 on two atoms
  (C) Other MO`s are considered to be `delocalized`

FOUND  -   0 strongly local MO`s
       -  15 two center bond MO`s
       -   0 significantly delocalized MO`s

Bond-like localized orbitals:
MO  20:   9H  -   0.433092  and   3C  -   0.585666
MO  19:   8H  -   0.433092  and   3C  -   0.585666
MO  18:   7H  -   0.433093  and   2C  -   0.585663
MO  17:   6H  -   0.433094  and   2C  -   0.585664
MO  16:   5N  -   0.530784  and   4C  -   0.472166
MO  15:   5N  -   0.533815  and   4C  -   0.467879
MO  14:   5N  -   0.533785  and   4C  -   0.467898
MO  13:   5N  -   0.948915  and   4C  -   0.050367
MO  12:   4C  -   0.606560  and   3C  -   0.418870
MO  11:   3C  -   0.510382  and   2C  -   0.510391
MO  10:   2C  -   0.418872  and   0C  -   0.606557
MO   9:   1N  -   0.530764  and   0C  -   0.472179
MO   8:   1N  -   0.533827  and   0C  -   0.467871
MO   7:   1N  -   0.533797  and   0C  -   0.467890
MO   6:   1N  -   0.948915  and   0C  -   0.050367
Localized MO's were stored in: 1_2_DCE_t.proc0.loc

Localizing the core orbitals
------------------------------------------------------------------------------
                           ORCA ORBITAL LOCALIZATION
------------------------------------------------------------------------------

Input orbitals are from                  ... 1_2_DCE_t.proc0.loc
Output orbitals are to                   ... 1_2_DCE_t.proc0.loc
Max. number of iterations                ... 128
Localizations seeded randomly            ... off
Convergence tolerance                    ... 1.000e-06
Using relative localization threshhold   ... 1.000e-08
Treshold for strong local MOs            ... 9.500e-01
Treshold for bond MOs                    ... 8.500e-01
Operator                                 ... 0
Orbital range for localization           ... 0 to 5
Localization criterion                   ... FOSTER-BOYS (AUGMENTED HESSIAN)
Doing the dipole integrals     ... o.k.
Initial value of the localization sum :    93.743307
ITERATION   0 : L=   93.7433331257 DL=  2.57e-05 (AVERGE_DL)=    0.0013091694 
ITERATION   1 : L=   93.7433331257 DL=  0.00e+00 (AVERGE_DL)=    0.0000000000 
LOCALIZATION SUM CONVERGED

------------------------------------------------------
AUGMENTED HESSIAN OPTIMIZATION OF FOSTER-BOYS ORBITALS
------------------------------------------------------

Spin operator:           0
Orbital window:          0 to 5
Number of iterations:    128
Gradient tolerance:      1.000e-06
Number of pairs:         15
Davidson threshold:      2000
Diagonalization method:  LAPACK
Iter:    0   L: 93.7433331257   Grad. norm: 2.322394e-06
   *** Likely close to a maximum now. ***
       Augmented Hessian eigenvalues:  1.45e-13 -1.92e+01 -1.92e+01 -3.06e+01 ... 
Iter:    1   L: 93.7433331257   Grad. norm: 9.413365e-20
LOCALIZATION HAS CONVERGED.

Eigenvalues of the Hessian:
  0 -1.924e+01
  1 -1.925e+01
  2 -3.065e+01
  3 -3.065e+01
  4 -3.435e+01
  5 -8.862e+01
  6 -8.862e+01
  7 -9.846e+01
  8 -9.846e+01
  9 -1.744e+02
    ...


------------------------------------------------------------------------------- 
                    LOCALIZED MOLECULAR ORBITAL COMPOSITIONS                   
------------------------------------------------------------------------------- 

The Mulliken populations for each LMO on each atom are computed
The LMO`s will be ordered according to atom index and type
  (A) Strongly localized MO`s have populations of >=0.950 on one atom
  (B) Two center bond orbitals have populations of >=0.850 on two atoms
  (C) Other MO`s are considered to be `delocalized`

FOUND  -   6 strongly local MO`s
       -   0 two center bond MO`s
       -   0 significantly delocalized MO`s

Rather strongly localized orbitals:
MO   5:   5N  -   1.000591
MO   4:   4C  -   0.999852
MO   3:   3C  -   1.001607
MO   2:   2C  -   1.001607
MO   1:   1N  -   1.000591
MO   0:   0C  -   0.999852
Localized MO's were stored in: 1_2_DCE_t.proc0.loc

Warning: internal orbitals are localized - no re-canonicalization of internal orbitals

--------------------------
CLOSED-SHELL FOCK OPERATOR
--------------------------

RI-JK section for the Fock operator:
  RHF full Fock operator         ... done
  RHF frozen core Fock operator  ... done
Time needed for Fock operator              ...            0.878 sec
Reference energy                           ...   -262.773570186

--------------
DLPNO SETTINGS (2015 fully linear scaling implementation)
--------------

TCutMKN:           1.000e-03
TCutPAO:           1.000e-03
TCutPNO:           1.000e-07
TCutPNOSingles:    3.000e-09
TCutEN:            9.700e-01
TCutPAOExt:        1.000e-01
TCutPairs:         1.000e-05
TCutPre:           1.000e-07
TCutOSV:           1.000e-06
TCutDOij:          1.000e-05
TCutDO:            5.000e-03
TCutC:             1.000e-04
TCutCPAO:          1.000e-03
TCutCMO:           1.000e-03
TScaleDOMP2PreScr: 2.000e+00
TScaleMKNMP2PreScr:1.000e+01
TScalePNOMP2PreScr:1.000e+00
PAO overlap thresh 1.000e-08
Using PNOs for Singles Fock computation
Use new domains
Use fully linear algorithm
TCutTNO:           1.000e-09
TCutMP2Pairs:      1.000e-06
TCutDOStrong:      2.000e-03
TCutMKNStrong:     1.000e-02
TCutMKNWeak:       1.000e-01
TCutDOWeak:        4.000e-03
NTCutTNO:          1

--------------------------
Calculating differential overlap integrals ... ok
--------------------------
ELECTRON PAIR PRESCREENING
--------------------------

Dipole-based pair screening          .... used

   TCutDOij = 1.000000e-05
   TCutPre  = 1.000000e-07
   .... Finished loop over pairs
Total time spent in the prescreening                  ...     0.000 sec
sum of pair energies estimated for screened out pairs ...       0.000000000000 Eh
Thresholds for map construction and integral transformation for crude MP2:
   TCutMKN                    ...     1.0e-02
   TCutDO                     ...     1.0e-02
   TCutPairs                  ...     1.0e-05
   TCutPNO_CrudeMP2           ...     1.0e-07
   TCutPNOSingles_CrudeMP2    ...     3.0e-09
--------------------------------
LOCAL RI TRANSFORMATION (IAVPAO)
--------------------------------

Orbital window:       6 to 20
Number of PAOs:     236
Basis functions:    236 (84 shells)
Aux. functions:     606 (178 shells)

Processing maps (0.0 sec)
Average map sizes:
   Aux shells -> MOs              15.0
   Aux shells -> PAOs            236.0
   MOs        -> AO shells        84.0
   PAOs       -> AO shells        84.0

Calculating integrals (0.4 sec, 16.374 MB)
Sorting integrals (0.0 sec, 16.367 MB)
Total time for the integral transformation: 0.4 sec
--------------------------------
INITIAL GUESS AND PNO GENERATION
--------------------------------

PNO truncation parameters                   .... 
    PAOOverlapThresh   =        1.000e-08

    TCutPairs          =        1.000e-05
    TCutPNO            =        1.000e-07
    TCutPNOSingles     =        3.000e-09
    TCutMP2Pairs       =        1.000e-06
    TCutMKN            =        1.000e-02
    TCutDO             =        1.000e-02

Pair selection                          .... not used
Type of local MP2 treatment                 .... semi-local MP2
Strategy for PNO selection                  .... occupation number selection
Pair density normalization                  .... MP2 norm
Spin component scaling                      .... not used

   .... Finished loop over pairs
Making pair pair interaction lists          ... done

                       ===========================
                        115 OF  120 PAIRS ARE KEPT CCSD PAIRS
                          5 OF  120 PAIRS ARE KEPT MP2 PAIRS FOR (T)
                          0 OF  120 PAIRS ARE SKIPPED
                       ===========================

Total time spent in the initial guess                 ...     0.554 sec
SL-MP2 correlation energy (all non-screened pairs)    ...      -0.964279200605 Eh

Initial PNO correlation energy                        ...      -0.963643421208 Eh
sum of pair energies prescreened and skipped MP2 pairs...       0.000000000000 Eh
sum of pair energies of crude MP2 skipped pairs only  ...       0.000000000000 Eh
sum of MP2 pair energies for pairs that were not kept ...      -0.000028653470 Eh
sum of PNO error estimates for the kept pairs         ...      -0.000607125927 Eh
                                                          --------------------
sum of all corrections                                         -0.000635779397
Initial total correlation energy                               -0.964279200605
Thresholds for map construction and integral transformation for fine MP2 and CCSD(T) calculation:
   TCutMKN   ...     1.0e-03
   TCutDO    ...     5.0e-03
   TCutPairs ...     1.0e-05
   TCutCMO   ...     1.0e-03
   TCutCPAO  ...     1.0e-03

Thresholds for map construction and integral transformation for strong Triples:
   TCutMKN   ...     1.0e-02
   TCutDO    ...     1.0e-02
   TCutCMO   ...     1.0e-03
   TCutCPAO  ...     1.0e-03

Thresholds for map construction and integral transformation for weak Triples:
   TCutMKN   ...     1.0e-01
   TCutDO    ...     2.0e-02
   TCutCMO   ...     1.0e-03
   TCutCPAO  ...     1.0e-03

--------------------------------
LOCAL RI TRANSFORMATION (IAVPAO)
--------------------------------

Orbital window:       6 to 20
Number of PAOs:     236
Basis functions:    236 (84 shells)
Aux. functions:     606 (178 shells)

Processing maps (0.0 sec)
Average map sizes:
   Aux shells -> MOs              15.0
   Aux shells -> PAOs            236.0
   MOs        -> AO shells        84.0
   PAOs       -> AO shells        84.0

Calculating integrals (0.4 sec, 16.374 MB)
Sorting integrals (0.0 sec, 16.367 MB)
Total time for the integral transformation: 0.4 sec
--------------------------------
INITIAL GUESS AND PNO GENERATION
--------------------------------

PNO truncation parameters                   .... 
    ScaleTCutPNO       =        1.000e-02
    PAOOverlapThresh   =        1.000e-08

    TCutPairs          =        1.000e-05
    TCutPNO            =        1.000e-07
    TCutPNOSingles     =        3.000e-09
    TCutMP2Pairs       =        1.000e-06
    TCutMKN            =        1.000e-03
    TCutDO             =        5.000e-03

Pair selection                          .... not used
Type of local MP2 treatment                 .... full local PMP2
Strategy for PNO selection                  .... occupation number selection
Pair density normalization                  .... MP2 norm
Spin component scaling                      .... not used

PASS-1: Formation of initial guess LMP2 amplitudes
Initial amplitudes guess done. Entering LMP2 iteration loop:
   Max. no of iterations          ...  50
   Energy convergence tolerance   ...    1.0e-07
   Residual convergence tolerance ...    5.0e-07
   Fock matrix cutoff             ...    1.0e-05 Eh
   DIIS convergence acceleration parameters:
        Max # vectors in DIIS     ... 7
        Start iteration of DIIS   ... 0
        Levelshift                ... 2.000e-01
        Damping factor 1          ... 5.000e-01
        Damping factor 2          ... 1.000e+00
   L-MP2 PNO cut-off              ...   1.0e-09
   L-MP2 PNO cut-off (core)       ...   1.0e-11
                           *** Turning on DIIS ***
LMP2-Iter=   0:  ELMP2= -0.992770592849  DE=   2.8e-02 RMAX=   1.4e-02
LMP2-Iter=   1:  ELMP2= -1.007523805543  DE=   1.5e-02 RMAX=   7.2e-03
LMP2-Iter=   2:  ELMP2= -1.010719068589  DE=   3.2e-03 RMAX=   2.0e-03
LMP2-Iter=   3:  ELMP2= -1.011181944460  DE=   4.6e-04 RMAX=   6.5e-04
LMP2-Iter=   4:  ELMP2= -1.011192160961  DE=   1.0e-05 RMAX=   9.7e-05
LMP2-Iter=   5:  ELMP2= -1.011189241900  DE=   2.9e-06 RMAX=   2.3e-05
LMP2-Iter=   6:  ELMP2= -1.011188784178  DE=   4.6e-07 RMAX=   2.6e-06
LMP2-Iter=   7:  ELMP2= -1.011188806314  DE=   2.2e-08 RMAX=   4.5e-07
LMP2-Iter=   8:  ELMP2= -1.011188835036  DE=   2.9e-08 RMAX=   6.3e-08 => CONVERGED
PASS-2: Formation of Pair natural orbitals
   .... Finished loop over pairs

 PNO Occupation Number Statistics: 
  | Av. % of trace(Dij) retained        ...  99.256377224642
  | sigma^2 in % of trace(Dij) retained ...   4.31e+00
  | Av. % of trace(Di) retained         ...  99.999819540657
  | sigma^2 in % of trace(Di) retained  ...   9.65e-09
 Distributions of % trace(Dij) recovered:
  |       >= 99.9  ...    47 ( 39.2 % of all pairs)
  |   [70.0, 80.0) ...     1 (  0.8 % of all pairs)
  |   [90.0, 99.0) ...    21 ( 17.5 % of all pairs)
  |   [99.0, 99.9) ...    51 ( 42.5 % of all pairs)
 Distributions of % trace(Di) recovered :
  |       >= 99.9  ...    15 (100.0 % of all I-pairs )

Making pair pair interaction lists          ... done

                       ===========================
                        115 OF  120 PAIRS ARE KEPT
                       ===========================

Total time spent in the initial guess                 ...     4.363 sec
L-MP2 correlation energy (all non-screened pairs)     ...      -1.011188835036 Eh
L-MP2 PNO error correction                            ...      -0.000010977039 Eh
                                                          --------------------
Initial total L-MP2 energy (non-screened pairs)       ...      -1.011199812075 Eh

Initial PNO correlation energy                        ...      -1.010575412597 Eh
sum of pair energies estimated for screened out pairs ...       0.000000000000 Eh
sum of MP2 pair energies for pairs that were not kept ...      -0.000035240199 Eh
sum of PNO error estimates for the kept pairs         ...      -0.000589159280 Eh
                                                          --------------------
sum of all corrections                                         -0.000624399479
Initial total correlation energy                               -1.011199812075
Thresholds for map construction and integral transformation for fine MP2 and CCSD(T) calculation:
   TCutMKN   ...     1.0e-03
   TCutDO    ...     5.0e-03
   TCutPairs ...     1.0e-05
   TCutCMO   ...     1.0e-03
   TCutCPAO  ...     1.0e-03

Time for aux screen maps:            0.001
Time for maps after fine MP2:            0.006
-----------------------------
LOCAL RI TRANSFORMATION (IJV)
-----------------------------

Orbital window:       6 to 20
Basis functions:    236 (84 shells)
Aux. functions:     606 (178 shells)

Processing maps (0.0 sec)
Average map sizes:
   Aux shells -> MOs(i)           15.0
   Aux shells -> MOs(j)           15.0
   MOs        -> AO shells        84.0

Calculating integrals (0.4 sec, 1.047 MB)
Sorting integrals (0.0 sec, 1.040 MB)
Total time for the integral transformation: 0.4 sec
--------------------------------
LOCAL RI TRANSFORMATION (VABPAO)
--------------------------------

Number of PAOs:     236
Basis functions:    236 (84 shells)
Aux. functions:     606 (178 shells)

Processing maps (0.0 sec)
Average map sizes:
   Aux shells -> PAOs            236.0
   PAOs       -> AO shells        84.0

Calculating integrals (0.8 sec, 484.005 MB)
Finished


-------------------------------------
Pair Pair Term precalculation with     
RI-(ij|mn) and (im|jn) transformation  
ON THE FLY                             
-------------------------------------

   IBatch   1 (of   1)              ... done (   12.569 sec)
Total EXT                           ...          12.569 sec

---------------------
RI-PNO TRANSFORMATION
---------------------

Total Number of PNOs                   ...  5029
Average number of PNOs per pair        ...    43
Maximal number of PNOs per pair        ...    70
   #pairs with  1 -  5 PNOs   :    0
   #pairs with  6 - 10 PNOs   :    4
   #pairs with 11 - 15 PNOs   :    8
   #pairs with 16 - 20 PNOs   :    5
   #pairs with 21 - 25 PNOs   :    4
   #pairs with 26 - 30 PNOs   :   12
   #pairs with 31 - 35 PNOs   :    8
   #pairs with 36 - 40 PNOs   :    2
   #pairs with 41 - 45 PNOs   :    4
   #pairs with 46 - 50 PNOs   :    5
   #pairs with 51 - 55 PNOs   :   36
   #pairs with 56 - 60 PNOs   :    8
   #pairs with 61 - 65 PNOs   :   12
   #pairs with 66 - 70 PNOs   :    7

Generation of (ij|ab)[P] integrals            ... on
Generation of (ia|bc)[P],(ja|bc)[P] integrals ... on
Storage of 3 and 4 external integrals         ... on
Generation of ALL (ka|bc)[P] integrals        ... on
Keep RI integrals in memory                   ... off

Ibatch:  1 (of  1)
Starting 2-4 index PNO integral generation ... done

Timings:
Total PNO integral transformation time     ...          9.523 sec
Size of the 3-external file                ...       108 MB
Size of the 4-external file                ...       782 MB
Size of the IKJL file                      ...         0 MB
Size of the all 3-external file            ...       811 MB
Size of the 1-external file                ...         1 MB

Making pair/pair overlap matrices          ... done (    0.602 sec)
Size of the pair overlap file              ... 148 MB
Redoing the guess amplitudes               ... done (    0.002 sec)

-------------------------
FINAL STARTUP INFORMATION
-------------------------

E(0)                                       ...   -262.773570186
E(L-MP2)                                   ...     -1.011199812
E(L-MP2) including corrections             ...     -1.011199812
Initial E(tot)                             ...   -263.784769998
<T|T>                                      ...      0.290399256
Number of pairs included                   ... 115
Total number of pairs                      ... 120

------------------------------------------------
                  RHF COUPLED CLUSTER ITERATIONS
------------------------------------------------

Number of PNO amplitudes to be optimized   ...       255323
Number of non-PNO amplitudes               ...      5315875
Untruncated number of regular amplitudes   ...      5547000

Iter       E(tot)           E(Corr)          Delta-E          Residual     Time
  0   -263.737938943     -0.963744357      0.047455455      0.015531376    6.84
                           *** Turning on DIIS ***
  1   -263.763126261     -0.988931675     -0.025187318      0.011637615    6.85
  2   -263.791221162     -1.017026576     -0.028094901      0.005210785    6.83
  3   -263.798860198     -1.024665612     -0.007639036      0.003110937    6.64
  4   -263.801127086     -1.026932501     -0.002266888      0.001094058    7.66
  5   -263.801798929     -1.027604343     -0.000671843      0.000486939    6.73
  6   -263.801961995     -1.027767410     -0.000163066      0.000124423    6.81
  7   -263.801981941     -1.027787355     -0.000019946      0.000038542    6.87
  8   -263.801982489     -1.027787903     -0.000000548      0.000017542    6.86
  9   -263.801980403     -1.027785818      0.000002085      0.000006060    6.80
               --- The Coupled-Cluster iterations have converged ---

----------------------
COUPLED CLUSTER ENERGY
----------------------

E(0)                                       ...   -262.773570186
E(CORR)(strong-pairs)                      ...     -1.027785818
E(CORR)(weak-pairs)                        ...     -0.000624399
E(CORR)(corrected)                         ...     -1.028410217
E(TOT)                                     ...   -263.801980403
Singles Norm <S|S>**1/2                    ...      0.070521021  
T1 diagnostic                              ...      0.012875318  

------------------
LARGEST AMPLITUDES
------------------
   9-> 21   9-> 21       0.062353
  16-> 21  16-> 21       0.062340
  14-> 21  14-> 21       0.061868
   7-> 21   7-> 21       0.061865
  15-> 21  15-> 21       0.061856
   8-> 21   8-> 21       0.061854
   8-> 21   7-> 21       0.038725
  15-> 21  14-> 21       0.038724
  13-> 21  13-> 21       0.036932
   6-> 21   6-> 21       0.036932
  16-> 21  14-> 21       0.036471
  16-> 21  15-> 21       0.036469
   9-> 21   7-> 21       0.036468
   9-> 21   8-> 21       0.036466
   6-> 22   6-> 22       0.036231
  13-> 22  13-> 22       0.036231


-------------------------------------------
DLPNO BASED TRIPLES CORRECTION
-------------------------------------------

Singles multiplier          ...  1.000000
TCutTNO                     ... 1.000e-09
TCutMP2Pairs                ... 1.000e-06
TCutDOStrong                ... 1.000e-02
TCutMKNStrong               ... 1.000e-02
TCutDOWeak                  ... 2.000e-02
TCutMKNWeak                 ... 1.000e-01

Fragment selection                          .... not used
Number of Triples that are to be computed   ...       649

 . . . . . . . . .
10% done  
20% done  
30% done  
40% done  
50% done  
60% done  
70% done  
80% done  
90% done               (     36.739 sec)
Triples timings:
Total time for T0               ...    38.950 sec
Total time for Iterative (T)    ...     0.000 sec
Total time of overall (T)       ...    39.186 sec

Triples List generation         ...     0.000 sec
TNO generation                  ...     2.207 sec
Pair density generation         ...     0.003 sec
Look up tables                  ...     0.000 sec
Generating 3-index integrals    ...    18.750 sec
  Make 4-ind.int. from 3-ind.int...     6.298 sec
  Projecting amplitudes (D + S) ...     2.564 sec
  Downprojecting integrals      ...     0.001 sec
  Energy contr. (sum over a,b,c)...     2.646 sec
Fitting ET(->0)                 ...     0.000 sec

Everything after 3-index        ...    17.989 sec

Timing details:
 TNO integrals                  ...    24.562 sec
   Reading 3-index integrals    ...     0.084 sec
   Sorting integrals            ...     4.282 sec
       Sorting integrals 1      ...     0.000 sec
       Sorting integrals 2      ...     1.272 sec
       Sorting integrals 3      ...     0.135 sec
       Sorting integrals 4      ...     0.006 sec
       Sorting integrals 5      ...     0.039 sec
       Sorting integrals 6      ...     2.830 sec
   Calculating local VM**-1/2   ...     0.106 sec
   Orthogonal. integrals        ...     0.233 sec
   Multipl. 3-index integrals   ...    19.857 sec
   All concerning IRIab (w/TNO) ...     2.967 sec

 Calculate W0/W1                ...     6.474 sec
 W 3-ext contribution           ...     3.536 sec
 W 3-int contribution           ...     0.880 sec
 Sorting W                      ...     1.964 sec

 V exchange contribution        ...     0.893 sec

 Timings for Triples without generation
     of 3-index integrals       ...    17.987 sec
       0 weak pairs             ...    17.415 sec
       1 weak pair              ...     0.572 sec
       2 weak pairs             ...     0.000 sec
       3 weak pairs             ...     0.000 sec
  Extra time for extrapolation  ...     0.000 sec

Number of Triples   (0, 1, 2, 3 weak pairs; overall):    596      53       0       0  (   649)
Number of Atoms     (0, 1, 2, 3 weak pairs; overall):    9.9     8.8     0.0     0.0  (    10)
Number of PAOs      (0, 1, 2, 3 weak pairs; overall):  233.7   219.1     0.0     0.0  (   236)
Number of AuxFcns   (0, 1, 2, 3 weak pairs; overall):  315.7   332.3     0.0     0.0  (   606)
Number of TNOs      (0, 1, 2, 3 weak pairs         ):   97.2    70.6     0.0     0.0
Aver. Number of NTNO, Atoms, PAOs, AuxFcns / Triples:    649    95.0     9.8   232.5   317.0

Triples Correction (T)                     ...     -0.049508623
Final correlation energy                   ...     -1.077918840
E(CCSD)                                    ...   -263.801980403
E(CCSD(T))                                 ...   -263.851489027


Maximum memory used throughout the entire calculation: 2675.9 MB


------------------------------------------------------------------------------- 
                                     TIMINGS                                   
------------------------------------------------------------------------------- 


Total execution time                   ...      161.756 sec

Localization of occupied MO's          ...        0.460 sec (  0.3%)
Fock Matrix Formation                  ...        0.878 sec (  0.5%)
Global overlap, Fock, MKN matrices     ...        0.144 sec (  0.1%)
Differential overlap integrals         ...        0.058 sec (  0.0%)
Organizing maps                        ...        0.018 sec (  0.0%)
RI 3-index integral generations        ...        2.064 sec (  1.3%)
RI-PNO integral transformation         ...       44.650 sec ( 27.6%)
Initial Guess                          ...        4.954 sec (  3.1%)
DIIS Solver                            ...        0.796 sec (  0.5%)
State Vector Update                    ...        0.019 sec (  0.0%)
Sigma-vector construction              ...       68.713 sec ( 42.5%)
  <D|H|D>(0-ext)                       ...        1.018 sec (  1.5% of sigma)
  <D|H|D>(2-ext Fock)                  ...        0.008 sec (  0.0% of sigma)
  <D|H|D>(2-ext)                       ...        3.613 sec (  5.3% of sigma)
  <D|H|D>(4-ext)                       ...       10.372 sec ( 15.1% of sigma)
  <D|H|D>(4-ext-corr)                  ...       39.399 sec ( 57.3% of sigma)
  CCSD doubles correction              ...        0.082 sec (  0.1% of sigma)
  <S|H|S>                              ...        0.154 sec (  0.2% of sigma)
  <S|H|D>(1-ext)                       ...        0.175 sec (  0.3% of sigma)
  <D|H|S>(1-ext)                       ...        0.005 sec (  0.0% of sigma)
  <S|H|D>(3-ext)                       ...        0.320 sec (  0.5% of sigma)
  Fock-dressing                        ...        7.950 sec ( 11.6% of sigma)
  Singles amplitudes                   ...        0.200 sec (  0.3% of sigma)
  (ik|jl)-dressing                     ...        0.795 sec (  1.2% of sigma)
  (ij|ab),(ia|jb)-dressing             ...        1.177 sec (  1.7% of sigma)
  Pair energies                        ...        0.005 sec (  0.0% of sigma)
Total Time for computing (T)           ...       39.210 sec ( 24.2% of ALL)


-------------------------   --------------------
FINAL SINGLE POINT ENERGY      -263.851489026502
-------------------------   --------------------


                            ***************************************
                            *     ORCA property calculations      *
                            ***************************************

                                    ---------------------
                                    Active property flags
                                    ---------------------
   (+) Dipole Moment


------------------------------------------------------------------------------
                       ORCA ELECTRIC PROPERTIES CALCULATION
------------------------------------------------------------------------------

Dipole Moment Calculation                       ... on
Quadrupole Moment Calculation                   ... off
Polarizability Calculation                      ... off
GBWName                                         ... 1_2_DCE_t.gbw
Electron density file                           ... 1_2_DCE_t.scfp.tmp
The origin for moment calculation is the CENTER OF MASS  = (-0.000004, -0.000007  0.000000)

-------------
DIPOLE MOMENT
-------------
                                X             Y             Z
Electronic contribution:     -0.00000      -0.00004      -0.00001
Nuclear contribution   :      0.00007       0.00026       0.00001
                        -----------------------------------------
Total Dipole Moment    :      0.00007       0.00021       0.00000
                        -----------------------------------------
Magnitude (a.u.)       :      0.00022
Magnitude (Debye)      :      0.00057



--------------------
Rotational spectrum 
--------------------
 
Rotational constants in cm-1:     0.852473     0.048998     0.047147 
Rotational constants in MHz : 25556.509011  1468.909614  1413.420957 

 Dipole components along the rotational axes: 
x,y,z [a.u.] :     0.000069    -0.000213     0.000002 
x,y,z [Debye]:     0.000174    -0.000541     0.000004 

 

Timings for individual modules:

Sum of individual times         ...      168.539 sec (=   2.809 min)
GTO integral calculation        ...        0.530 sec (=   0.009 min)   0.3 %
SCF iterations                  ...        6.058 sec (=   0.101 min)   3.6 %
MDCI module                     ...      161.951 sec (=   2.699 min)  96.1 %
                             ****ORCA TERMINATED NORMALLY****
TOTAL RUN TIME: 0 days 0 hours 2 minutes 48 seconds 818 msec
1_2_DCE_t.gbw -> /home1/pantazis/klk/xyz_1/Oxygen_compounds/1_2_DCE_t.gbw
1_2_DCE_t.job -> /home1/pantazis/klk/xyz_1/Oxygen_compounds/1_2_DCE_t.job
1_2_DCE_t.loc -> /home1/pantazis/klk/xyz_1/Oxygen_compounds/1_2_DCE_t.loc
1_2_DCE_t.nodes -> /home1/pantazis/klk/xyz_1/Oxygen_compounds/1_2_DCE_t.nodes
1_2_DCE_t.prop -> /home1/pantazis/klk/xyz_1/Oxygen_compounds/1_2_DCE_t.prop
1_2_DCE_t_property.txt -> /home1/pantazis/klk/xyz_1/Oxygen_compounds/1_2_DCE_t_property.txt
1_2_DCE_t.xyz -> /home1/pantazis/klk/xyz_1/Oxygen_compounds/1_2_DCE_t.xyz
cp: cannot stat 1_2_DCE_t.asa.inp: No such file or directory
