! Job execution by suborca V 6.07 on ZEUS !
Job started from zeus1, running /scratch/pantazis/1_3_dichloropropane_a_g__0ibmuj/orca/orca copied from /opt/orca on zeussn129 in /scratch/pantazis/1_3_dichloropropane_a_g__0ibmuj
Job execution start: Thu Jun 27 10:53:49 CEST 2019
Shared library path: /scratch/pantazis/1_3_dichloropropane_a_g__0ibmuj/orca:/opt/openmpi_1.10.2/lib:/opt/intel/mkl/lib/intel64:/opt/intel/lib/intel64:
PBS Job ID is: 157969.icqc
izeussn129
izeussn129
izeussn129
izeussn129
izeussn129
izeussn129
izeussn129
izeussn129

                                 *****************
                                 * O   R   C   A *
                                 *****************

           --- An Ab Initio, DFT and Semiempirical electronic structure package ---

                  #######################################################
                  #                        -***-                        #
                  #          Department of theory and spectroscopy      #
                  #               Directorship: Frank Neese             #
                  #        Max Planck Institute fuer Kohlenforschung    #
                  #                Kaiser Wilhelm Platz 1               #
                  #                 D-45470 Muelheim/Ruhr               #
                  #                      Germany                        #
                  #                                                     #
                  #                  All rights reserved                #
                  #                        -***-                        #
                  #######################################################


                         Program Version 4.1.x  -  STABLE  -
                                (SVN: $Rev: 14094$)
                ($Date: 2019-06-14 15:01:15 +0200 (Fri, 14 Jun 2019) $)

                         (BUILD: $Sun Jun 23 06:18:31 CEST 2019$)


 With contributions from (in alphabetic order):
   Daniel Aravena         : Magnetic Properties
   Michael Atanasov       : Ab Initio Ligand Field Theory
   Alexander A. Auer      : GIAO ZORA
   Ute Becker             : Parallelization
   Giovanni Bistoni       : ED, Open-shell LED
   Martin Brehm           : Molecular dynamics
   Dmytro Bykov           : SCF Hessian
   Vijay G. Chilkuri      : MRCI spin determinant printing
   Dipayan Datta          : RHF DLPNO-CCSD density
   Achintya Kumar Dutta   : EOM-CC, STEOM-CC
   Dmitry Ganyushin       : Spin-Orbit,Spin-Spin,Magnetic field MRCI
   Miquel Garcia          : C-PCM Hessian
   Yang Guo               : DLPNO-NEVPT2, CIM, IAO-localization
   Andreas Hansen         : Spin unrestricted coupled pair/coupled cluster methods
   Benjamin Helmich-Paris : CASSCF linear response (MC-RPA)
   Lee Huntington         : MR-EOM, pCC
   Robert Izsak           : Overlap fitted RIJCOSX, COSX-SCS-MP3, EOM
   Christian Kollmar      : KDIIS, OOCD, Brueckner-CCSD(T), CCSD density
   Simone Kossmann        : Meta GGA functionals, TD-DFT gradient, OOMP2, MP2 Hessian
   Martin Krupicka        : AUTO-CI
   Lucas Lang             : DCDCAS
   Dagmar Lenk            : GEPOL surface, SMD
   Dimitrios Liakos       : Extrapolation schemes; parallel MDCI
   Dimitrios Manganas     : ROCIS; embedding schemes
   Dimitrios Pantazis     : SARC Basis sets
   Taras Petrenko         : DFT Hessian,TD-DFT gradient, ASA, ECA, R-Raman, ABS, FL, XAS/XES, NRVS
   Peter Pinski           : DLPNO-MP2, DLPNO-MP2 Gradient
   Christoph Reimann      : Effective Core Potentials
   Marius Retegan         : Local ZFS, SOC
   Christoph Riplinger    : Optimizer, TS searches, QM/MM, DLPNO-CCSD(T), (RO)-DLPNO pert. Triples
   Tobias Risthaus        : Range-separated hybrids, TD-DFT gradient, RPA, STAB
   Michael Roemelt        : Restricted open shell CIS
   Masaaki Saitow         : Open-shell DLPNO
   Barbara Sandhoefer     : DKH picture change effects
   Avijit Sen             : IP-ROCIS
   Kantharuban Sivalingam : CASSCF convergence, NEVPT2, FIC-MRCI
   Bernardo de Souza      : ESD, SOC TD-DFT
   Georgi Stoychev        : AutoAux, RI-MP2 NMR
   Willem Van den Heuvel  : Paramagnetic NMR
   Boris Wezisla          : Elementary symmetry handling
   Frank Wennmohs         : Technical directorship


 We gratefully acknowledge several colleagues who have allowed us to
 interface, adapt or use parts of their codes:
   Stefan Grimme, W. Hujo, H. Kruse,             : VdW corrections, initial TS optimization,
                  C. Bannwarth                     DFT functionals, gCP, sTDA/sTD-DF
   Ed Valeev                                     : LibInt (2-el integral package), F12 methods
   Garnet Chan, S. Sharma, J. Yang, R. Olivares  : DMRG
   Ulf Ekstrom                                   : XCFun DFT Library
   Mihaly Kallay                                 : mrcc  (arbitrary order and MRCC methods)
   Andreas Klamt, Michael Diedenhofen            : otool_cosmo (COSMO solvation model)
   Jiri Pittner, Ondrej Demel                    : Mk-CCSD
   Frank Weinhold                                : gennbo (NPA and NBO analysis)
   Christopher J. Cramer and Donald G. Truhlar   : smd solvation model
   Lars Goerigk                                  : TD-DFT with DH, B97 family of functionals
   V. Asgeirsson, H. Jonsson                     : NEB implementation
   FAccTs GmbH                                   : IRC, NEB, NEB-TS, Multilevel


 Your calculation uses the libint2 library for the computation of 2-el integrals
 For citations please refer to: http://libint.valeyev.net

 This ORCA versions uses:
   CBLAS   interface :  Fast vector & matrix operations
   LAPACKE interface :  Fast linear algebra routines
   SCALAPACK package :  Parallel linear algebra routines




***************************************
The coordinates will be read from file: 1_3_dichloropropane_a_g.xyz
***************************************


----- Orbital basis set information -----
Your calculation utilizes the basis: cc-pVTZ 
       H, B-Ne : Obtained from the ccRepo (grant-hill.group.shef.ac.uk/ccrepo) Feb. 2017
                 T. H. Dunning, Jr., J. Chem. Phys. 90, 1007 (1989)
            He : Obtained from the ccRepo (grant-hill.group.shef.ac.uk/ccrepo) Feb. 2017
                 D. E. Woon, T. H. Dunning, Jr., J. Chem. Phys. 100, 2975 (1994)
  Li-Be, Na-Mg : Obtained from the ccRepo (grant-hill.group.shef.ac.uk/ccrepo) Feb. 2017
                 B. P. Prascher, D. E. Woon, K. A. Peterson, T. H. Dunning, Jr., A. K. Wilson, Theor. Chem. Acc. 128, 69 (2011)
         Al-Ar : Obtained from the ccRepo (grant-hill.group.shef.ac.uk/ccrepo) Feb. 2017
                 D. E. Woon, T. H. Dunning, Jr., J. Chem. Phys. 98, 1358 (1993)
            Ca : Obtained from the Peterson Research Group Website (tyr0.chem.wsu.edu/~kipeters) Feb. 2017
                 J. Koput, K. A. Peterson, J. Phys. Chem. 106, 9595 (2002)
         Sc-Zn : Obtained from the ccRepo (grant-hill.group.shef.ac.uk/ccrepo) Feb. 2017
                 N. B. Balabanov, K. A. Peterson, J. Chem. Phys. 123, 064107 (2005)
                 N. B. Balabanov, K. A. Peterson, J. Chem. Phys. 125, 074110 (2006)
         Ga-Kr : Obtained from the ccRepo (grant-hill.group.shef.ac.uk/ccrepo) Feb. 2017
                 A. K. Wilson, D. E. Woon, K. A. Peterson, T. H. Dunning, Jr., J. Chem. Phys. 110, 7667 (1999)
             Y : Obtained from the ccRepo (grant-hill.group.shef.ac.uk/ccrepo) Feb. 2017
                 K. A. Peterson, D. Figgen, M. Dolg, H. Stoll, J. Chem. Phys. 126, 124101 (2007)
        Ag, Au : Obtained from the Peterson Research Group Website (tyr0.chem.wsu.edu/~kipeters) Feb. 2017
                 K. A. Peterson, C. Puzzarini, Theor. Chem. Acc. 114, 283 (2005)

----- AuxC basis set information -----
Your calculation utilizes the auxiliary basis: cc-pVTZ/C 
  Obtained from the EMSL Basis Set Exchange (bse.pnl.gov) Feb. 2017
  H-He, B-F, Al-Ar, Ga-Kr : F. Weigend, A. Kohn, C. Hattig, J. Chem. Phys. 116, 3175 (2002)
             Li-Be, Na-Mg : C. Haettig, Phys. Chem. Chem. Phys. 7, 59 (2005)
                       Ne : C. Haettig, Phys. Chem. Chem. Phys. 7, 59 (2005)
                            F. Weigend, A. Kohn, C. Hattig, J. Chem. Phys. 116, 3175 (2002)
                    Sc-Zn : J. G. Hill, J. A. Platts, J. Chem. Phys. 128, 044104 (2008)

----- AuxJK basis set information -----
Your calculation utilizes the auxiliary basis: cc-pVTZ/JK 
  H, B-F, Al-Cl, Ga-Br : Obtained from the TURBOMOLE 7.0 basis set library

================================================================================
                                        WARNINGS
                       Please study these warnings very carefully!
================================================================================


WARNING: MDCI localization with Augmented Hessian Foster-Boys
  ===> : Switching off randomization!

WARNING: Post HF methods need fully converged wavefunctions
  ===> : Setting SCFConvForced true
         You can overwrite this default with %scf ConvForced false 


INFO   : the flag for use of LIBINT has been found!

================================================================================
                                       INPUT FILE
================================================================================
NAME = 1_3_dichloropropane_a_g.inp
|  1> ! RHF DLPNO-CCSD(T) cc-pVTZ RIJK cc-pVTZ/JK cc-pVTZ/C
|  2> ! KDIIS SOSCF TightSCF TightPNO
|  3> 
|  4> %pal nprocs 8 end
|  5> 
|  6> %maxcore 8000
|  7> 
|  8> %scf maxiter 300
|  9>      shift shift 0.2 erroff 0.1 end
| 10> end
| 11> 
| 12> * xyzfile 0 1 1_3_dichloropropane_a_g.xyz 
| 13> 
| 14> 
| 15>                          ****END OF INPUT****
================================================================================

                       ****************************
                       * Single Point Calculation *
                       ****************************

---------------------------------
CARTESIAN COORDINATES (ANGSTROEM)
---------------------------------
  C     -1.386990    0.942630    0.207970
  Cl    -2.347190   -0.575420   -0.103660
  C      0.052390    0.838300   -0.285440
  C      0.869320   -0.206990    0.464990
  Cl     2.593240   -0.220990   -0.110210
  H     -1.440470    1.118200    1.284510
  H     -1.916270    1.743410   -0.309650
  H      0.064460    0.621060   -1.358190
  H      0.513900    1.824870   -0.149650
  H      0.905200    0.001100    1.536460
  H      0.482030   -1.213310    0.307200

----------------------------
CARTESIAN COORDINATES (A.U.)
----------------------------
  NO LB      ZA    FRAG     MASS         X           Y           Z
   0 C     6.0000    0    12.011   -2.621031    1.781313    0.393006
   1 Cl   17.0000    0    35.453   -4.435546   -1.087386   -0.195889
   2 C     6.0000    0    12.011    0.099003    1.584157   -0.539403
   3 C     6.0000    0    12.011    1.642777   -0.391154    0.878704
   4 Cl   17.0000    0    35.453    4.900513   -0.417611   -0.208267
   5 H     1.0000    0     1.008   -2.722094    2.113092    2.427372
   6 H     1.0000    0     1.008   -3.621225    3.294567   -0.585154
   7 H     1.0000    0     1.008    0.121812    1.173633   -2.566607
   8 H     1.0000    0     1.008    0.971130    3.448505   -0.282798
   9 H     1.0000    0     1.008    1.710580    0.002079    2.903489
  10 H     1.0000    0     1.008    0.910905   -2.292824    0.580524

--------------------------------
INTERNAL COORDINATES (ANGSTROEM)
--------------------------------
 C      0   0   0     0.000000000000     0.00000000     0.00000000
 Cl     1   0   0     1.823066948688     0.00000000     0.00000000
 C      1   2   0     1.525173092275   112.63176188     0.00000000
 C      3   1   2     1.524188634618   113.16998331   294.80620160
 Cl     4   3   1     1.817402323758   110.96913055   182.95428119
 H      1   2   3     1.092072940284   106.05635790   237.04125607
 H      1   2   3     1.090557834872   105.94281715   121.24976488
 H      3   1   2     1.094591917109   109.94013949    58.12276591
 H      3   1   2     1.097611392570   107.17599633   174.26456185
 H      4   3   1     1.092079110413   111.71496868   301.40113864
 H      4   3   1     1.089757390707   111.80953483    64.19386768

---------------------------
INTERNAL COORDINATES (A.U.)
---------------------------
 C      0   0   0     0.000000000000     0.00000000     0.00000000
 Cl     1   0   0     3.445097256825     0.00000000     0.00000000
 C      1   2   0     2.882159451226   112.63176188     0.00000000
 C      3   1   2     2.880299095864   113.16998331   294.80620160
 Cl     4   3   1     3.434392667054   110.96913055   182.95428119
 H      1   2   3     2.063718775402   106.05635790   237.04125607
 H      1   2   3     2.060855641110   105.94281715   121.24976488
 H      3   1   2     2.068478951740   109.94013949    58.12276591
 H      3   1   2     2.074184933430   107.17599633   174.26456185
 H      4   3   1     2.063730435257   111.71496868   301.40113864
 H      4   3   1     2.059343020852   111.80953483    64.19386768

---------------------
BASIS SET INFORMATION
---------------------
There are 3 groups of distinct atoms

 Group   1 Type C   : 18s5p2d1f contracted to 4s3p2d1f pattern {8811/311/11/1}
 Group   2 Type Cl  : 41s16p2d1f contracted to 5s4p2d1f pattern {13131311/7711/11/1}
 Group   3 Type H   : 5s2p1d contracted to 3s2p1d pattern {311/11/1}

Atom   0C    basis set group =>   1
Atom   1Cl   basis set group =>   2
Atom   2C    basis set group =>   1
Atom   3C    basis set group =>   1
Atom   4Cl   basis set group =>   2
Atom   5H    basis set group =>   3
Atom   6H    basis set group =>   3
Atom   7H    basis set group =>   3
Atom   8H    basis set group =>   3
Atom   9H    basis set group =>   3
Atom  10H    basis set group =>   3
-------------------------------
AUXILIARY BASIS SET INFORMATION
-------------------------------
There are 3 groups of distinct atoms

 Group   1 Type C   : 8s6p5d3f1g contracted to 8s6p5d3f1g pattern {11111111/111111/11111/111/1}
 Group   2 Type Cl  : 10s8p7d5f2g contracted to 10s8p7d5f2g pattern {1111111111/11111111/1111111/11111/11}
 Group   3 Type H   : 4s3p2d1f contracted to 4s3p2d1f pattern {1111/111/11/1}

Atom   0C    basis set group =>   1
Atom   1Cl   basis set group =>   2
Atom   2C    basis set group =>   1
Atom   3C    basis set group =>   1
Atom   4Cl   basis set group =>   2
Atom   5H    basis set group =>   3
Atom   6H    basis set group =>   3
Atom   7H    basis set group =>   3
Atom   8H    basis set group =>   3
Atom   9H    basis set group =>   3
Atom  10H    basis set group =>   3
-------------------------------
AUXILIARY BASIS SET INFORMATION
-------------------------------
There are 3 groups of distinct atoms

 Group   1 Type C   : 10s7p5d2f1g contracted to 10s7p5d2f1g pattern {1111111111/1111111/11111/11/1}
 Group   2 Type Cl  : 13s11p9d3f1g contracted to 13s11p9d3f1g pattern {1111111111111/11111111111/111111111/111/1}
 Group   3 Type H   : 4s3p2d1f contracted to 4s3p2d1f pattern {1111/111/11/1}

Atom   0C    basis set group =>   1
Atom   1Cl   basis set group =>   2
Atom   2C    basis set group =>   1
Atom   3C    basis set group =>   1
Atom   4Cl   basis set group =>   2
Atom   5H    basis set group =>   3
Atom   6H    basis set group =>   3
Atom   7H    basis set group =>   3
Atom   8H    basis set group =>   3
Atom   9H    basis set group =>   3
Atom  10H    basis set group =>   3


           ************************************************************
           *        Program running with 8 parallel MPI-processes     *
           *              working on a common directory               *
           ************************************************************
------------------------------------------------------------------------------
                           ORCA GTO INTEGRAL CALCULATION
                           -- RI-GTO INTEGRALS CHOSEN --
------------------------------------------------------------------------------

                         BASIS SET STATISTICS AND STARTUP INFO

Gaussian basis set:
 # of primitive gaussian shells          ...  246
 # of primitive gaussian functions       ...  458
 # of contracted shells                  ...   90
 # of contracted basis functions         ...  242
 Highest angular momentum                ...    3
 Maximum contraction depth               ...   13
Auxiliary gaussian basis set:
 # of primitive gaussian shells          ...  209
 # of primitive gaussian functions       ...  659
 # of contracted shells                  ...  209
 # of contracted aux-basis functions     ...  659
 Highest angular momentum                ...    4
 Maximum contraction depth               ...    1
Ratio of auxiliary to basis functions    ...  2.72
Integral package used                  ... LIBINT
 One Electron integrals                  ... done
 Ordering auxiliary basis shells         ... done
 Integral threshhold             Thresh  ...  2.500e-11
 Primitive cut-off               TCut    ...  2.500e-12
 Pre-screening matrix                    ... done
 Shell pair data                         ... 
 Ordering of the shell pairs             ... done (   0.001 sec) 4012 of 4095 pairs
 Determination of significant pairs      ... done (   0.000 sec)
 Creation of shell pair data             ... done (   0.001 sec)
 Storage of shell pair data              ... done (   0.040 sec)
 Shell pair data done in (   0.042 sec)
 Computing two index integrals           ... done
 Cholesky decomposition of the V-matrix  ... done


Timings:
 Total evaluation time                   ...   2.437 sec (  0.041 min)
 One electron matrix time                ...   1.826 sec (  0.030 min) = 75.0%
 Schwartz matrix evaluation time         ...   0.423 sec (  0.007 min) = 17.4%
 Two index repulsion integral time       ...   0.075 sec (  0.001 min) =  3.1%
 Cholesky decomposition of V             ...   0.043 sec (  0.001 min) =  1.8%
 Three index repulsion integral time     ...   0.000 sec (  0.000 min) =  0.0%



           ************************************************************
           *        Program running with 8 parallel MPI-processes     *
           *              working on a common directory               *
           ************************************************************
-------------------------------------------------------------------------------
                                 ORCA SCF
-------------------------------------------------------------------------------

------------
SCF SETTINGS
------------
Hamiltonian:
 Ab initio Hamiltonian  Method          .... Hartree-Fock(GTOs)
 RI-approximation to the Coulomb term is turned on
   Number of auxiliary basis functions  .... 659
   RI-JK (J+K treated both via RI)      .... on


General Settings:
 Integral files         IntName         .... 1_3_dichloropropane_a_g
 Hartree-Fock type      HFTyp           .... RHF
 Total Charge           Charge          ....    0
 Multiplicity           Mult            ....    1
 Number of Electrons    NEL             ....   58
 Basis Dimension        Dim             ....  242
 Nuclear Repulsion      ENuc            ....    263.6630394955 Eh

Convergence Acceleration:
 DIIS                   CNVDIIS         .... off
 Newton-Raphson         CNVNR           .... off
 SOSCF                  CNVSOSCF        .... on
   Start iteration      SOSCFMaxIt      ....   150
   Startup grad/error   SOSCFStart      ....  0.003300
 Level Shifting         CNVShift        .... on
   Level shift para.    LevelShift      ....    0.2000
   Turn off err/grad.   ShiftErr        ....    0.1000
 Zerner damping         CNVZerner       .... off
 Static damping         CNVDamp         .... off
 Fernandez-Rico         CNVRico         .... off

SCF Procedure:
 Maximum # iterations   MaxIter         ....   300
 SCF integral mode      SCFMode         .... Direct
   Integral package                     .... LIBINT
 Reset frequency        DirectResetFreq ....    20
 Integral Threshold     Thresh          ....  2.500e-11 Eh
 Primitive CutOff       TCut            ....  2.500e-12 Eh

Convergence Tolerance:
 Convergence Check Mode ConvCheckMode   .... Total+1el-Energy
 Convergence forced     ConvForced      .... 1
 Energy Change          TolE            ....  1.000e-08 Eh
 1-El. energy change                    ....  1.000e-05 Eh
 Orbital Gradient       TolG            ....  1.000e-05
 Orbital Rotation angle TolX            ....  1.000e-05


Diagonalization of the overlap matrix:
Smallest eigenvalue                        ... 7.451e-04
Time for diagonalization                   ...    0.013 sec
Threshold for overlap eigenvalues          ... 1.000e-08
Number of eigenvalues below threshold      ... 0
Time for construction of square roots      ...    0.008 sec
Total time needed                          ...    0.021 sec

-------------------
DFT GRID GENERATION
-------------------

General Integration Accuracy     IntAcc      ...  4.340
Radial Grid Type                 RadialGrid  ... Gauss-Chebyshev
Angular Grid (max. acc.)         AngularGrid ... Lebedev-110
Angular grid pruning method      GridPruning ... 3 (G Style)
Weight generation scheme         WeightScheme... Becke
Basis function cutoff            BFCut       ...    1.0000e-11
Integration weight cutoff        WCut        ...    1.0000e-14
Grids for H and He will be reduced by one unit

# of grid points (after initial pruning)     ...  13420 (   0.0 sec)
# of grid points (after weights+screening)   ...  12750 (   0.0 sec)
nearest neighbour list constructed           ...    0.0 sec
Grid point re-assignment to atoms done       ...    0.0 sec
Grid point division into batches done        ...    0.0 sec
Reduced shell lists constructed in    0.1 sec

Total number of grid points                  ...    12750
Total number of batches                      ...      205
Average number of points per batch           ...       62
Average number of grid points per atom       ...     1159
Average number of shells per batch           ...    65.37 (72.63%)
Average number of basis functions per batch  ...   170.33 (70.39%)
Average number of large shells per batch     ...    51.37 (78.58%)
Average number of large basis fcns per batch ...   133.07 (78.13%)
Average number of aux-shells per batch       ...    65.37 (31.28%)
Average number of aux functions per batch    ...   170.33 (25.85%)
Maximum spatial batch extension              ...  15.35, 17.88, 17.50 au
Average spatial batch extension              ...   0.57,  0.61,  0.62 au

Time for grid setup =    0.078 sec

------------------------------
INITIAL GUESS: MODEL POTENTIAL
------------------------------
Loading Hartree-Fock densities                     ... done
Calculating cut-offs                               ... done
Setting up the integral package                    ... done
Initializing the effective Hamiltonian             ... done
Starting the Coulomb interaction                   ... done (   0.0 sec)
Reading the grid                                   ... done
Mapping shells                                     ... done
Starting the XC term evaluation                    ... done (   0.0 sec)
Transforming the Hamiltonian                       ... done (   0.0 sec)
Diagonalizing the Hamiltonian                      ... done (   0.0 sec)
Back transforming the eigenvectors                 ... done (   0.0 sec)
Now organizing SCF variables                       ... done
                      ------------------
                      INITIAL GUESS DONE (   0.3 sec)
                      ------------------
--------------
SCF ITERATIONS
--------------
ITER       Energy         Delta-E        Max-DP      RMS-DP      [F,P]   Gradient Norm
                             ****Turning on KDIIS(Cayley)****
  0  -1036.0049628801   0.000000000000 0.01573916  0.00026062  0.0947228   0.119515690
  1  -1036.0500645237  -0.045101643621 0.02880113  0.00038193  0.0854006   0.105844531
  2  -1036.0944948069  -0.044430283142 0.04754253  0.00064208  0.0687296   0.085470639
  3  -1036.1487194551  -0.054224648227 0.07217126  0.00101857  0.0411190   0.051900895
                      *** Initiating the SOSCF procedure ***
                           *** Shutting down KDIIS ***
                      *** Re-Reading the Fockian *** 
                      *** Removing any level shift *** 
ITER      Energy       Delta-E        Grad      Rot      Max-DP    RMS-DP
  4  -1036.18272717  -0.0340077103  0.001845  0.001845  0.001645  0.000040
  5  -1036.18280491  -0.0000777457  0.000453  0.000634  0.000595  0.000020
  6  -1036.18281126  -0.0000063471  0.000173  0.000188  0.000414  0.000012
  7  -1036.18281304  -0.0000017867  0.000051  0.000089  0.000162  0.000003
  8  -1036.18281313  -0.0000000818  0.000013  0.000039  0.000104  0.000002
  9  -1036.18281314  -0.0000000121  0.000006  0.000005  0.000020  0.000000
                  ***Gradient check signals convergence***
              ***Rediagonalizing the Fockian in SOSCF/NRSCF***

               *****************************************************
               *                     SUCCESS                       *
               *           SCF CONVERGED AFTER  10 CYCLES          *
               *****************************************************


----------------
TOTAL SCF ENERGY
----------------

Total Energy       :        -1036.18281314 Eh          -28195.96780 eV

Components:
Nuclear Repulsion  :          263.66303950 Eh            7174.63606 eV
Electronic Energy  :        -1299.84585264 Eh          -35370.60386 eV
One Electron Energy:        -1952.45281425 Eh          -53128.94210 eV
Two Electron Energy:          652.60696161 Eh           17758.33824 eV

Virial components:
Potential Energy   :        -2072.09719085 Eh          -56384.63110 eV
Kinetic Energy     :         1035.91437771 Eh           28188.66330 eV
Virial Ratio       :            2.00025913


---------------
SCF CONVERGENCE
---------------

  Last Energy change         ...   -1.5707e-09  Tolerance :   1.0000e-08
  Last MAX-Density change    ...    8.8951e-06  Tolerance :   1.0000e-07
  Last RMS-Density change    ...    1.3875e-07  Tolerance :   5.0000e-09
  Last Orbital Gradient      ...    9.9061e-07  Tolerance :   1.0000e-05
  Last Orbital Rotation      ...    1.4079e-06  Tolerance :   1.0000e-05

             **** THE GBW FILE WAS UPDATED (1_3_dichloropropane_a_g.gbw) ****
             **** DENSITY FILE WAS UPDATED (1_3_dichloropropane_a_g.scfp.tmp) ****
             **** ENERGY FILE WAS UPDATED (1_3_dichloropropane_a_g.en.tmp) ****
----------------
ORBITAL ENERGIES
----------------

  NO   OCC          E(Eh)            E(eV) 
   0   2.0000    -104.829528     -2852.5565 
   1   2.0000    -104.824091     -2852.4085 
   2   2.0000     -11.312143      -307.8191 
   3   2.0000     -11.303412      -307.5815 
   4   2.0000     -11.260654      -306.4180 
   5   2.0000     -10.554439      -287.2009 
   6   2.0000     -10.548968      -287.0520 
   7   2.0000      -8.021163      -218.2669 
   8   2.0000      -8.019481      -218.2212 
   9   2.0000      -8.019455      -218.2205 
  10   2.0000      -8.015709      -218.1185 
  11   2.0000      -8.014010      -218.0723 
  12   2.0000      -8.013985      -218.0716 
  13   2.0000      -1.156800       -31.4781 
  14   2.0000      -1.121506       -30.5177 
  15   2.0000      -1.027752       -27.9666 
  16   2.0000      -0.910736       -24.7824 
  17   2.0000      -0.824779       -22.4434 
  18   2.0000      -0.674135       -18.3441 
  19   2.0000      -0.644789       -17.5456 
  20   2.0000      -0.611831       -16.6488 
  21   2.0000      -0.578881       -15.7522 
  22   2.0000      -0.541699       -14.7404 
  23   2.0000      -0.520475       -14.1628 
  24   2.0000      -0.507239       -13.8027 
  25   2.0000      -0.452301       -12.3077 
  26   2.0000      -0.442954       -12.0534 
  27   2.0000      -0.436979       -11.8908 
  28   2.0000      -0.429567       -11.6891 
  29   0.0000       0.121432         3.3043 
  30   0.0000       0.156627         4.2620 
  31   0.0000       0.166985         4.5439 
  32   0.0000       0.182760         4.9732 
  33   0.0000       0.183446         4.9918 
  34   0.0000       0.203572         5.5395 
  35   0.0000       0.213301         5.8042 
  36   0.0000       0.223951         6.0940 
  37   0.0000       0.291738         7.9386 
  38   0.0000       0.309674         8.4267 
  39   0.0000       0.368400        10.0247 
  40   0.0000       0.395782        10.7698 
  41   0.0000       0.403195        10.9715 
  42   0.0000       0.424616        11.5544 
  43   0.0000       0.431181        11.7330 
  44   0.0000       0.442402        12.0384 
  45   0.0000       0.450393        12.2558 
  46   0.0000       0.477213        12.9856 
  47   0.0000       0.495449        13.4819 
  48   0.0000       0.511401        13.9159 
  49   0.0000       0.513315        13.9680 
  50   0.0000       0.519276        14.1302 
  51   0.0000       0.543577        14.7915 
  52   0.0000       0.565803        15.3963 
  53   0.0000       0.567315        15.4374 
  54   0.0000       0.598453        16.2847 
  55   0.0000       0.607802        16.5391 
  56   0.0000       0.626742        17.0545 
  57   0.0000       0.627771        17.0825 
  58   0.0000       0.628520        17.1029 
  59   0.0000       0.643512        17.5109 
  60   0.0000       0.658608        17.9216 
  61   0.0000       0.661745        18.0070 
  62   0.0000       0.671588        18.2748 
  63   0.0000       0.694065        18.8865 
  64   0.0000       0.708907        19.2903 
  65   0.0000       0.734348        19.9826 
  66   0.0000       0.752921        20.4880 
  67   0.0000       0.832028        22.6406 
  68   0.0000       0.841552        22.8998 
  69   0.0000       0.878568        23.9071 
  70   0.0000       0.884669        24.0731 
  71   0.0000       0.915935        24.9239 
  72   0.0000       0.941917        25.6309 
  73   0.0000       0.950373        25.8610 
  74   0.0000       0.969684        26.3864 
  75   0.0000       1.001026        27.2393 
  76   0.0000       1.063395        28.9364 
  77   0.0000       1.093667        29.7602 
  78   0.0000       1.114123        30.3168 
  79   0.0000       1.177850        32.0509 
  80   0.0000       1.190339        32.3908 
  81   0.0000       1.221837        33.2479 
  82   0.0000       1.228241        33.4221 
  83   0.0000       1.239869        33.7385 
  84   0.0000       1.241933        33.7947 
  85   0.0000       1.264180        34.4001 
  86   0.0000       1.289221        35.0815 
  87   0.0000       1.321859        35.9696 
  88   0.0000       1.333175        36.2775 
  89   0.0000       1.352270        36.7971 
  90   0.0000       1.358040        36.9541 
  91   0.0000       1.361569        37.0502 
  92   0.0000       1.378115        37.5004 
  93   0.0000       1.429239        38.8916 
  94   0.0000       1.461267        39.7631 
  95   0.0000       1.475531        40.1512 
  96   0.0000       1.499435        40.8017 
  97   0.0000       1.517189        41.2848 
  98   0.0000       1.549854        42.1737 
  99   0.0000       1.570997        42.7490 
 100   0.0000       1.598866        43.5074 
 101   0.0000       1.638004        44.5724 
 102   0.0000       1.668710        45.4079 
 103   0.0000       1.722418        46.8694 
 104   0.0000       1.752632        47.6915 
 105   0.0000       1.774150        48.2771 
 106   0.0000       1.826874        49.7118 
 107   0.0000       1.851675        50.3866 
 108   0.0000       2.257464        61.4287 
 109   0.0000       2.268021        61.7160 
 110   0.0000       2.276425        61.9447 
 111   0.0000       2.289789        62.3083 
 112   0.0000       2.292993        62.3955 
 113   0.0000       2.306064        62.7512 
 114   0.0000       2.309592        62.8472 
 115   0.0000       2.321951        63.1835 
 116   0.0000       2.335614        63.5553 
 117   0.0000       2.350503        63.9604 
 118   0.0000       2.378729        64.7285 
 119   0.0000       2.401308        65.3429 
 120   0.0000       2.415928        65.7408 
 121   0.0000       2.420653        65.8693 
 122   0.0000       2.422968        65.9323 
 123   0.0000       2.432796        66.1997 
 124   0.0000       2.446200        66.5645 
 125   0.0000       2.458714        66.9050 
 126   0.0000       2.496117        67.9228 
 127   0.0000       2.525435        68.7206 
 128   0.0000       2.547348        69.3169 
 129   0.0000       2.567366        69.8616 
 130   0.0000       2.578479        70.1640 
 131   0.0000       2.591443        70.5168 
 132   0.0000       2.603042        70.8324 
 133   0.0000       2.611330        71.0579 
 134   0.0000       2.626706        71.4763 
 135   0.0000       2.646119        72.0046 
 136   0.0000       2.652256        72.1716 
 137   0.0000       2.662630        72.4538 
 138   0.0000       2.675006        72.7906 
 139   0.0000       2.692532        73.2675 
 140   0.0000       2.729413        74.2711 
 141   0.0000       2.783924        75.7544 
 142   0.0000       2.793915        76.0263 
 143   0.0000       2.809440        76.4488 
 144   0.0000       2.852740        77.6270 
 145   0.0000       2.867760        78.0357 
 146   0.0000       2.929103        79.7049 
 147   0.0000       2.958518        80.5054 
 148   0.0000       2.965978        80.7084 
 149   0.0000       2.992043        81.4176 
 150   0.0000       3.025047        82.3157 
 151   0.0000       3.067648        83.4750 
 152   0.0000       3.134463        85.2931 
 153   0.0000       3.172928        86.3398 
 154   0.0000       3.223386        87.7128 
 155   0.0000       3.237286        88.0910 
 156   0.0000       3.278968        89.2253 
 157   0.0000       3.290753        89.5459 
 158   0.0000       3.310314        90.0782 
 159   0.0000       3.324299        90.4588 
 160   0.0000       3.350412        91.1693 
 161   0.0000       3.376492        91.8790 
 162   0.0000       3.410968        92.8172 
 163   0.0000       3.418030        93.0093 
 164   0.0000       3.444939        93.7416 
 165   0.0000       3.449822        93.8744 
 166   0.0000       3.468971        94.3955 
 167   0.0000       3.497773        95.1792 
 168   0.0000       3.522927        95.8637 
 169   0.0000       3.550585        96.6163 
 170   0.0000       3.573722        97.2459 
 171   0.0000       3.605821        98.1194 
 172   0.0000       3.650868        99.3452 
 173   0.0000       3.701043       100.7105 
 174   0.0000       3.754049       102.1529 
 175   0.0000       3.777591       102.7935 
 176   0.0000       3.802760       103.4784 
 177   0.0000       3.815421       103.8229 
 178   0.0000       3.845393       104.6385 
 179   0.0000       3.869857       105.3042 
 180   0.0000       3.900287       106.1322 
 181   0.0000       3.947041       107.4044 
 182   0.0000       3.986264       108.4718 
 183   0.0000       4.011426       109.1564 
 184   0.0000       4.046265       110.1045 
 185   0.0000       4.065125       110.6177 
 186   0.0000       4.086718       111.2052 
 187   0.0000       4.110749       111.8592 
 188   0.0000       4.136805       112.5682 
 189   0.0000       4.147164       112.8501 
 190   0.0000       4.164032       113.3091 
 191   0.0000       4.204017       114.3971 
 192   0.0000       4.225196       114.9734 
 193   0.0000       4.259044       115.8945 
 194   0.0000       4.292801       116.8130 
 195   0.0000       4.311323       117.3171 
 196   0.0000       4.321207       117.5860 
 197   0.0000       4.344566       118.2217 
 198   0.0000       4.388856       119.4269 
 199   0.0000       4.401107       119.7602 
 200   0.0000       4.412874       120.0804 
 201   0.0000       4.451579       121.1336 
 202   0.0000       4.464327       121.4805 
 203   0.0000       4.507354       122.6513 
 204   0.0000       4.527805       123.2078 
 205   0.0000       4.576868       124.5429 
 206   0.0000       4.589241       124.8796 
 207   0.0000       4.627864       125.9306 
 208   0.0000       4.709125       128.1418 
 209   0.0000       4.754984       129.3897 
 210   0.0000       4.781218       130.1036 
 211   0.0000       4.873168       132.6056 
 212   0.0000       4.935010       134.2885 
 213   0.0000       4.964569       135.0928 
 214   0.0000       5.042008       137.2000 
 215   0.0000       5.053907       137.5238 
 216   0.0000       5.123007       139.4041 
 217   0.0000       5.195163       141.3676 
 218   0.0000       5.205513       141.6492 
 219   0.0000       5.228373       142.2713 
 220   0.0000       5.251894       142.9113 
 221   0.0000       5.310873       144.5162 
 222   0.0000       5.398173       146.8918 
 223   0.0000       5.404106       147.0532 
 224   0.0000       5.468008       148.7921 
 225   0.0000       5.489818       149.3855 
 226   0.0000       5.520750       150.2272 
 227   0.0000       5.589421       152.0959 
 228   0.0000       5.665163       154.1569 
 229   0.0000       5.686588       154.7399 
 230   0.0000       5.753494       156.5605 
 231   0.0000       5.772530       157.0785 
 232   0.0000       5.794727       157.6825 
 233   0.0000       5.825532       158.5208 
 234   0.0000       5.870213       159.7366 
 235   0.0000       5.977547       162.6573 
 236   0.0000       6.251995       170.1254 
 237   0.0000       6.278349       170.8426 
 238   0.0000       6.353722       172.8936 
 239   0.0000      12.280725       334.1755 
 240   0.0000      12.507241       340.3393 
 241   0.0000      13.346864       363.1866 

                    ********************************
                    * MULLIKEN POPULATION ANALYSIS *
                    ********************************

-----------------------
MULLIKEN ATOMIC CHARGES
-----------------------
   0 C :   -0.089571
   1 Cl:   -0.225989
   2 C :   -0.171597
   3 C :   -0.063687
   4 Cl:   -0.226688
   5 H :    0.126624
   6 H :    0.142621
   7 H :    0.123936
   8 H :    0.119284
   9 H :    0.121249
  10 H :    0.143818
Sum of atomic charges:   -0.0000000

--------------------------------
MULLIKEN REDUCED ORBITAL CHARGES
--------------------------------
  0 C s       :     3.216541  s :     3.216541
      pz      :     1.029445  p :     2.728805
      px      :     0.875529
      py      :     0.823831
      dz2     :     0.032978  d :     0.137332
      dxz     :     0.019171
      dyz     :     0.019584
      dx2y2   :     0.025715
      dxy     :     0.039884
      f0      :     0.001322  f :     0.006893
      f+1     :     0.000772
      f-1     :     0.000525
      f+2     :     0.000649
      f-2     :     0.000801
      f+3     :     0.001502
      f-3     :     0.001324
  1 Cls       :     5.937436  s :     5.937436
      pz      :     3.951687  p :    11.236762
      px      :     3.784349
      py      :     3.500726
      dz2     :     0.007876  d :     0.047659
      dxz     :     0.002577
      dyz     :     0.006613
      dx2y2   :     0.009745
      dxy     :     0.020849
      f0      :     0.000332  f :     0.004132
      f+1     :     0.000301
      f-1     :     0.000642
      f+2     :     0.000163
      f-2     :     0.000517
      f+3     :     0.001404
      f-3     :     0.000774
  2 C s       :     3.212321  s :     3.212321
      pz      :     1.003541  p :     2.835607
      px      :     0.853480
      py      :     0.978586
      dz2     :     0.037161  d :     0.116903
      dxz     :     0.018037
      dyz     :     0.010918
      dx2y2   :     0.026903
      dxy     :     0.023885
      f0      :     0.001212  f :     0.006766
      f+1     :     0.000815
      f-1     :     0.000701
      f+2     :     0.000822
      f-2     :     0.000757
      f+3     :     0.001534
      f-3     :     0.000925
  3 C s       :     3.205693  s :     3.205693
      pz      :     0.984933  p :     2.713398
      px      :     0.708400
      py      :     1.020066
      dz2     :     0.037925  d :     0.137594
      dxz     :     0.022526
      dyz     :     0.011337
      dx2y2   :     0.037586
      dxy     :     0.028220
      f0      :     0.001108  f :     0.007002
      f+1     :     0.000868
      f-1     :     0.000756
      f+2     :     0.001037
      f-2     :     0.000754
      f+3     :     0.001316
      f-3     :     0.001163
  4 Cls       :     5.936153  s :     5.936153
      pz      :     3.901498  p :    11.237898
      px      :     3.363488
      py      :     3.972913
      dz2     :     0.006880  d :     0.048409
      dxz     :     0.012967
      dyz     :     0.000665
      dx2y2   :     0.020815
      dxy     :     0.007082
      f0      :     0.000435  f :     0.004228
      f+1     :     0.000759
      f-1     :     0.000025
      f+2     :     0.000952
      f-2     :     0.000162
      f+3     :     0.001217
      f-3     :     0.000678
  5 H s       :     0.839960  s :     0.839960
      pz      :     0.014682  p :     0.031003
      px      :     0.008952
      py      :     0.007369
      dz2     :     0.000780  d :     0.002413
      dxz     :     0.000875
      dyz     :     0.000668
      dx2y2   :     0.000049
      dxy     :     0.000042
  6 H s       :     0.823485  s :     0.823485
      pz      :     0.007609  p :     0.031450
      px      :     0.010371
      py      :     0.013470
      dz2     :     0.000519  d :     0.002444
      dxz     :     0.000204
      dyz     :     0.000431
      dx2y2   :     0.000655
      dxy     :     0.000635
  7 H s       :     0.845539  s :     0.845539
      pz      :     0.012895  p :     0.028062
      px      :     0.007994
      py      :     0.007174
      dz2     :     0.000806  d :     0.002463
      dxz     :     0.000900
      dyz     :     0.000672
      dx2y2   :     0.000050
      dxy     :     0.000035
  8 H s       :     0.849501  s :     0.849501
      pz      :     0.007142  p :     0.028753
      px      :     0.010093
      py      :     0.011517
      dz2     :     0.000271  d :     0.002462
      dxz     :     0.000113
      dyz     :     0.000531
      dx2y2   :     0.000824
      dxy     :     0.000723
  9 H s       :     0.845081  s :     0.845081
      pz      :     0.015830  p :     0.031234
      px      :     0.007277
      py      :     0.008127
      dz2     :     0.000942  d :     0.002435
      dxz     :     0.000704
      dyz     :     0.000726
      dx2y2   :     0.000037
      dxy     :     0.000027
 10 H s       :     0.821901  s :     0.821901
      pz      :     0.007316  p :     0.031832
      px      :     0.009651
      py      :     0.014865
      dz2     :     0.000322  d :     0.002450
      dxz     :     0.000067
      dyz     :     0.000564
      dx2y2   :     0.000752
      dxy     :     0.000744


                     *******************************
                     * LOEWDIN POPULATION ANALYSIS *
                     *******************************

----------------------
LOEWDIN ATOMIC CHARGES
----------------------
   0 C :   -0.081430
   1 Cl:    0.159386
   2 C :    0.011560
   3 C :   -0.087193
   4 Cl:    0.164759
   5 H :   -0.034801
   6 H :   -0.031173
   7 H :   -0.015503
   8 H :   -0.013240
   9 H :   -0.035991
  10 H :   -0.036374

-------------------------------
LOEWDIN REDUCED ORBITAL CHARGES
-------------------------------
  0 C s       :     2.719315  s :     2.719315
      pz      :     1.022292  p :     2.839689
      px      :     0.943890
      py      :     0.873507
      dz2     :     0.108031  d :     0.480076
      dxz     :     0.067552
      dyz     :     0.066039
      dx2y2   :     0.098674
      dxy     :     0.139779
      f0      :     0.005503  f :     0.042349
      f+1     :     0.005223
      f-1     :     0.003300
      f+2     :     0.005230
      f-2     :     0.006827
      f+3     :     0.007837
      f-3     :     0.008427
  1 Cls       :     5.678654  s :     5.678654
      pz      :     3.887952  p :    11.075213
      px      :     3.716942
      py      :     3.470319
      dz2     :     0.011272  d :     0.078198
      dxz     :     0.005052
      dyz     :     0.013838
      dx2y2   :     0.018901
      dxy     :     0.029136
      f0      :     0.000796  f :     0.008549
      f+1     :     0.000547
      f-1     :     0.001197
      f+2     :     0.000409
      f-2     :     0.001262
      f+3     :     0.002229
      f-3     :     0.002109
  2 C s       :     2.667658  s :     2.667658
      pz      :     0.966808  p :     2.853772
      px      :     0.929598
      py      :     0.957367
      dz2     :     0.119159  d :     0.426788
      dxz     :     0.070939
      dyz     :     0.040993
      dx2y2   :     0.099783
      dxy     :     0.095915
      f0      :     0.004866  f :     0.040222
      f+1     :     0.006243
      f-1     :     0.004543
      f+2     :     0.006161
      f-2     :     0.005437
      f+3     :     0.006851
      f-3     :     0.006120
  3 C s       :     2.717899  s :     2.717899
      pz      :     0.994673  p :     2.847134
      px      :     0.833267
      py      :     1.019195
      dz2     :     0.124661  d :     0.479327
      dxz     :     0.083775
      dyz     :     0.040759
      dx2y2   :     0.129656
      dxy     :     0.100476
      f0      :     0.004961  f :     0.042833
      f+1     :     0.005881
      f-1     :     0.004616
      f+2     :     0.007535
      f-2     :     0.005230
      f+3     :     0.007241
      f-3     :     0.007369
  4 Cls       :     5.674470  s :     5.674470
      pz      :     3.839837  p :    11.072764
      px      :     3.332263
      py      :     3.900664
      dz2     :     0.011419  d :     0.079269
      dxz     :     0.021990
      dyz     :     0.001597
      dx2y2   :     0.027856
      dxy     :     0.016407
      f0      :     0.000769  f :     0.008738
      f+1     :     0.001819
      f-1     :     0.000053
      f+2     :     0.001771
      f-2     :     0.000483
      f+3     :     0.001938
      f-3     :     0.001905
  5 H s       :     0.850492  s :     0.850492
      pz      :     0.082288  p :     0.156162
      px      :     0.037563
      py      :     0.036311
      dz2     :     0.010274  d :     0.028147
      dxz     :     0.008891
      dyz     :     0.008325
      dx2y2   :     0.000338
      dxy     :     0.000318
  6 H s       :     0.846146  s :     0.846146
      pz      :     0.048650  p :     0.156749
      px      :     0.047153
      py      :     0.060946
      dz2     :     0.006084  d :     0.028278
      dxz     :     0.003155
      dyz     :     0.006083
      dx2y2   :     0.006179
      dxy     :     0.006777
  7 H s       :     0.835455  s :     0.835455
      pz      :     0.076154  p :     0.151560
      px      :     0.036083
      py      :     0.039322
      dz2     :     0.009997  d :     0.028489
      dxz     :     0.008756
      dyz     :     0.008774
      dx2y2   :     0.000526
      dxy     :     0.000435
  8 H s       :     0.832577  s :     0.832577
      pz      :     0.039446  p :     0.152302
      px      :     0.044539
      py      :     0.068317
      dz2     :     0.002954  d :     0.028361
      dxz     :     0.001503
      dyz     :     0.007525
      dx2y2   :     0.008556
      dxy     :     0.007824
  9 H s       :     0.851693  s :     0.851693
      pz      :     0.082067  p :     0.156094
      px      :     0.032218
      py      :     0.041810
      dz2     :     0.010704  d :     0.028204
      dxz     :     0.007228
      dyz     :     0.009452
      dx2y2   :     0.000493
      dxy     :     0.000326
 10 H s       :     0.848974  s :     0.848974
      pz      :     0.039609  p :     0.158990
      px      :     0.041765
      py      :     0.077616
      dz2     :     0.003356  d :     0.028411
      dxz     :     0.001213
      dyz     :     0.007973
      dx2y2   :     0.008219
      dxy     :     0.007650


                      *****************************
                      * MAYER POPULATION ANALYSIS *
                      *****************************

  NA   - Mulliken gross atomic population
  ZA   - Total nuclear charge
  QA   - Mulliken gross atomic charge
  VA   - Mayer's total valence
  BVA  - Mayer's bonded valence
  FA   - Mayer's free valence

  ATOM       NA         ZA         QA         VA         BVA        FA
  0 C      6.0896     6.0000    -0.0896     3.8725     3.8725     0.0000
  1 Cl    17.2260    17.0000    -0.2260     0.9720     0.9720     0.0000
  2 C      6.1716     6.0000    -0.1716     3.8471     3.8471    -0.0000
  3 C      6.0637     6.0000    -0.0637     3.8602     3.8602    -0.0000
  4 Cl    17.2267    17.0000    -0.2267     0.9765     0.9765    -0.0000
  5 H      0.8734     1.0000     0.1266     0.9770     0.9770    -0.0000
  6 H      0.8574     1.0000     0.1426     0.9752     0.9752     0.0000
  7 H      0.8761     1.0000     0.1239     0.9853     0.9853    -0.0000
  8 H      0.8807     1.0000     0.1193     0.9830     0.9830    -0.0000
  9 H      0.8788     1.0000     0.1212     0.9805     0.9805    -0.0000
 10 H      0.8562     1.0000     0.1438     0.9833     0.9833    -0.0000

  Mayer bond orders larger than 0.1
B(  0-C ,  1-Cl) :   0.9462 B(  0-C ,  2-C ) :   0.9563 B(  0-C ,  5-H ) :   0.9739 
B(  0-C ,  6-H ) :   0.9798 B(  2-C ,  3-C ) :   0.9575 B(  2-C ,  7-H ) :   0.9697 
B(  2-C ,  8-H ) :   0.9697 B(  3-C ,  4-Cl) :   0.9527 B(  3-C ,  9-H ) :   0.9758 
B(  3-C , 10-H ) :   0.9691 

-------
TIMINGS
-------

Total SCF time: 0 days 0 hours 0 min 24 sec 

Total time                  ....      24.163 sec
Sum of individual times     ....      23.964 sec  ( 99.2%)

Fock matrix formation       ....      23.563 sec  ( 97.5%)
Diagonalization             ....       0.040 sec  (  0.2%)
Density matrix formation    ....       0.008 sec  (  0.0%)
Population analysis         ....       0.038 sec  (  0.2%)
Initial guess               ....       0.193 sec  (  0.8%)
Orbital Transformation      ....       0.000 sec  (  0.0%)
Orbital Orthonormalization  ....       0.000 sec  (  0.0%)
DIIS solution               ....       0.000 sec  (  0.0%)
SOSCF solution              ....       0.043 sec  (  0.2%)


           ************************************************************
           *        Program running with 8 parallel MPI-processes     *
           *              working on a common directory               *
           ************************************************************


------------------------------------------------------------------------------- 
                              ORCA-MATRIX DRIVEN CI                            
------------------------------------------------------------------------------- 


Wavefunction type
-----------------
Correlation treatment                      ...      CCSD     
Single excitations                         ... ON
Orbital optimization                       ... OFF
Calculation of Z vector                    ... OFF
Calculation of Brueckner orbitals          ... OFF
Perturbative triple excitations            ... ON
Calculation of F12 correction              ... OFF
Frozen core treatment                      ... chemical core (26 el)
Reference Wavefunction                     ... RHF
  Internal Orbitals:    13 ...   28 ( 16 MO's/ 32 electrons)
  Virtual  Orbitals:    29 ...  241 (213 MO's              )
Number of AO's                             ...    242
Number of electrons                        ...     58
Number of correlated electrons             ...     32

Algorithmic settings
--------------------
Integral transformation                    ... All integrals via the RI transformation
K(C) Formation                             ... RI-DLPNO
   PNO-Integral Storage                    ... ON DISK
   PNO occupation number cut-off           ... 1.000e-07
   Singles PNO occupation number cut-off   ... 3.000e-09
   PNO Mulliken prescreening cut-off       ... 1.000e-03
   Domain cut-off (Mulliken population)    ... 1.000e-03
   PNO Normalization                       ...    1
Maximum number of iterations               ...        50
Convergence tolerance (max. residuum)      ... 1.000e-05
Level shift for amplitude update           ... 2.000e-01
Maximum number of DIIS vectors             ...         7
DIIS turned on at iteration                ...         0
Damping before turning on DIIS             ...     0.500
Damping after turning on DIIS              ...     0.000
Pair specific amplitude update             ... OFF
Natural orbital iterations                 ... OFF
Perturbative natural orbital generation    ... OFF
Printlevel                                 ... 2

Singles Fock matrix elements calculated using PNOs.

Memory handling:
----------------
Maximum memory for working arrays          ...   8000 MB
Data storage in matrix containers          ... UNCOMPRESSED
Data type for integral storage             ... DOUBLE
In-Core Storage of quantities:
   Amplitudes+Sigma Vector      ... NO
   J+K operators                ... NO
   DIIS vectors                 ... NO
   3-external integrals         ... NO
   4-external integrals         ... NO

Localization treatment:
-----------------------
Localization option                        ...    6
Localization threshhold                    ... -1.0e+00
Using relative localization threshhold     ... 1.0e-08
Neglect threshold for strong pairs         ... 1.000e-05 Eh
Prescreening threshold for very weak pairs ... 1.000e-07 Eh

Initializing the integral package          ... done
Localizing the valence orbitals
------------------------------------------------------------------------------
                           ORCA ORBITAL LOCALIZATION
------------------------------------------------------------------------------

Input orbitals are from                  ... 1_3_dichloropropane_a_g.proc0.gbw
Output orbitals are to                   ... 1_3_dichloropropane_a_g.proc0.loc
Max. number of iterations                ... 128
Localizations seeded randomly            ... off
Convergence tolerance                    ... 1.000e-06
Using relative localization threshhold   ... 1.000e-08
Treshold for strong local MOs            ... 9.500e-01
Treshold for bond MOs                    ... 8.500e-01
Operator                                 ... 0
Orbital range for localization           ... 13 to 28
Localization criterion                   ... FOSTER-BOYS (AUGMENTED HESSIAN)
Doing the dipole integrals     ... o.k.
Initial value of the localization sum :   206.589964
ITERATION   0 : L=  236.9713424504 DL=  3.04e+01 (AVERGE_DL)=    0.5031681178 
ITERATION   1 : L=  238.3167508434 DL=  1.35e+00 (AVERGE_DL)=    0.1058854882 
ITERATION   2 : L=  238.3279194246 DL=  1.12e-02 (AVERGE_DL)=    0.0096473577 
ITERATION   3 : L=  238.3292520281 DL=  1.33e-03 (AVERGE_DL)=    0.0033324210 
ITERATION   4 : L=  238.3299921250 DL=  7.40e-04 (AVERGE_DL)=    0.0024834399 
ITERATION   5 : L=  238.3306292955 DL=  6.37e-04 (AVERGE_DL)=    0.0023042904 
ITERATION   6 : L=  238.3312014455 DL=  5.72e-04 (AVERGE_DL)=    0.0021835560 
ITERATION   7 : L=  238.3317199695 DL=  5.19e-04 (AVERGE_DL)=    0.0020787096 
ITERATION   8 : L=  238.3321906006 DL=  4.71e-04 (AVERGE_DL)=    0.0019803853 
ITERATION   9 : L=  238.3326188584 DL=  4.28e-04 (AVERGE_DL)=    0.0018891308 
ITERATION  10 : L=  238.3330102249 DL=  3.91e-04 (AVERGE_DL)=    0.0018059312 
ITERATION  11 : L=  238.3333701423 DL=  3.60e-04 (AVERGE_DL)=    0.0017318521 
ITERATION  12 : L=  238.3337039676 DL=  3.34e-04 (AVERGE_DL)=    0.0016678961 
ITERATION  13 : L=  238.3340169511 DL=  3.13e-04 (AVERGE_DL)=    0.0016149908 
ITERATION  14 : L=  238.3343142446 DL=  2.97e-04 (AVERGE_DL)=    0.0015739905 
ITERATION  15 : L=  238.3346009183 DL=  2.87e-04 (AVERGE_DL)=    0.0015456219 
ITERATION  16 : L=  238.3348819692 DL=  2.81e-04 (AVERGE_DL)=    0.0015303892 
ITERATION  17 : L=  238.3351623709 DL=  2.80e-04 (AVERGE_DL)=    0.0015286207 
ITERATION  18 : L=  238.3354471063 DL=  2.85e-04 (AVERGE_DL)=    0.0015403878 
ITERATION  19 : L=  238.3357412072 DL=  2.94e-04 (AVERGE_DL)=    0.0015655161 
ITERATION  20 : L=  238.3360497623 DL=  3.09e-04 (AVERGE_DL)=    0.0016035250 
ITERATION  21 : L=  238.3363779660 DL=  3.28e-04 (AVERGE_DL)=    0.0016537928 
DETECTED SLOW CONVERGENCE - QUITTING

------------------------------------------------------
AUGMENTED HESSIAN OPTIMIZATION OF FOSTER-BOYS ORBITALS
------------------------------------------------------

Spin operator:           0
Orbital window:          13 to 28
Number of iterations:    128
Gradient tolerance:      1.000e-06
Number of pairs:         120
Davidson threshold:      2000
Diagonalization method:  LAPACK
Iter:    0   L: 238.3363779660   Grad. norm: 3.649011e-02
Iter:    1   L: 238.3440624748   Grad. norm: 5.739383e-02
Iter:    2   L: 238.3550135802   Grad. norm: 6.638148e-02
Iter:    3   L: 238.3654896140   Grad. norm: 5.720035e-02
Iter:    4   L: 238.3719031537   Grad. norm: 3.114067e-02
Iter:    5   L: 238.3728167338   Grad. norm: 3.845831e-03
   *** Likely close to a maximum now. ***
       Augmented Hessian eigenvalues:  4.46e-07 -1.70e-01 -1.71e-01 -6.10e+00 ... 
Iter:    6   L: 238.3728169570   Grad. norm: 5.858680e-07
LOCALIZATION HAS CONVERGED.

Eigenvalues of the Hessian:
  0 -1.704e-01
  1 -1.707e-01
  2 -6.099e+00
  3 -6.110e+00
  4 -6.118e+00
  5 -6.157e+00
  6 -1.150e+01
  7 -1.151e+01
  8 -1.154e+01
  9 -1.158e+01
    ...


------------------------------------------------------------------------------- 
                    LOCALIZED MOLECULAR ORBITAL COMPOSITIONS                   
------------------------------------------------------------------------------- 

The Mulliken populations for each LMO on each atom are computed
The LMO`s will be ordered according to atom index and type
  (A) Strongly localized MO`s have populations of >=0.950 on one atom
  (B) Two center bond orbitals have populations of >=0.850 on two atoms
  (C) Other MO`s are considered to be `delocalized`

FOUND  -   6 strongly local MO`s
       -  10 two center bond MO`s
       -   0 significantly delocalized MO`s

Rather strongly localized orbitals:
MO  18:   4Cl -   0.997046
MO  17:   4Cl -   0.998987
MO  16:   4Cl -   0.999181
MO  15:   1Cl -   0.999455
MO  14:   1Cl -   0.998970
MO  13:   1Cl -   0.997182
Bond-like localized orbitals:
MO  28:  10H  -   0.438979  and   3C  -   0.586270
MO  27:   9H  -   0.454359  and   3C  -   0.571554
MO  26:   8H  -   0.455347  and   2C  -   0.565041
MO  25:   7H  -   0.451130  and   2C  -   0.567739
MO  24:   6H  -   0.442369  and   0C  -   0.587982
MO  23:   5H  -   0.451851  and   0C  -   0.573519
MO  22:   4Cl -   0.643978  and   3C  -   0.372793
MO  21:   3C  -   0.519599  and   2C  -   0.507986
MO  20:   2C  -   0.502280  and   0C  -   0.527365
MO  19:   1Cl -   0.644798  and   0C  -   0.368315
Localized MO's were stored in: 1_3_dichloropropane_a_g.proc0.loc

Localizing the core orbitals
------------------------------------------------------------------------------
                           ORCA ORBITAL LOCALIZATION
------------------------------------------------------------------------------

Input orbitals are from                  ... 1_3_dichloropropane_a_g.proc0.loc
Output orbitals are to                   ... 1_3_dichloropropane_a_g.proc0.loc
Max. number of iterations                ... 128
Localizations seeded randomly            ... off
Convergence tolerance                    ... 1.000e-06
Using relative localization threshhold   ... 1.000e-08
Treshold for strong local MOs            ... 9.500e-01
Treshold for bond MOs                    ... 8.500e-01
Operator                                 ... 0
Orbital range for localization           ... 0 to 12
Localization criterion                   ... FOSTER-BOYS (AUGMENTED HESSIAN)
Doing the dipole integrals     ... o.k.
Initial value of the localization sum :   242.260169
ITERATION   0 : L=  242.5206351488 DL=  2.60e-01 (AVERGE_DL)=    0.0577867892 
ITERATION   1 : L=  242.6106681645 DL=  9.00e-02 (AVERGE_DL)=    0.0339745409 
ITERATION   2 : L=  242.6126935677 DL=  2.03e-03 (AVERGE_DL)=    0.0050957539 
ITERATION   3 : L=  242.6127711039 DL=  7.75e-05 (AVERGE_DL)=    0.0009970221 
ITERATION   4 : L=  242.6127751898 DL=  4.09e-06 (AVERGE_DL)=    0.0002288756 
ITERATION   5 : L=  242.6127754262 DL=  2.36e-07 (AVERGE_DL)=    0.0000550555 
LOCALIZATION SUM CONVERGED

------------------------------------------------------
AUGMENTED HESSIAN OPTIMIZATION OF FOSTER-BOYS ORBITALS
------------------------------------------------------

Spin operator:           0
Orbital window:          0 to 12
Number of iterations:    128
Gradient tolerance:      1.000e-06
Number of pairs:         78
Davidson threshold:      2000
Diagonalization method:  LAPACK
Iter:    0   L: 242.6127754262   Grad. norm: 7.907148e-04
   *** Detected a saddle point. ***
       Augmented Hessian eigenvalues:  5.18e-06  3.31e-06 -3.00e-06 -2.50e-05 ... 
Iter:    1   L: 242.6127762290   Grad. norm: 6.717434e-04
Iter:    2   L: 242.6127771100   Grad. norm: 5.247731e-04
Iter:    3   L: 242.6127778871   Grad. norm: 3.587483e-04
Iter:    4   L: 242.6127784120   Grad. norm: 1.828509e-04
Iter:    5   L: 242.6127785994   Grad. norm: 4.149372e-06
   *** Likely close to a maximum now. ***
       Augmented Hessian eigenvalues:  2.64e-10 -5.20e-06 -8.33e-06 -3.63e-05 ... 
Iter:    6   L: 242.6127785996   Grad. norm: 1.122688e-09
LOCALIZATION HAS CONVERGED.

Eigenvalues of the Hessian:
  0 -5.198e-06
  1 -8.325e-06
  2 -3.628e-05
  3 -3.753e-05
  4 -4.038e-05
  5 -4.161e-05
  6 -1.173e-01
  7 -1.173e-01
  8 -1.173e-01
  9 -1.173e-01
    ...


------------------------------------------------------------------------------- 
                    LOCALIZED MOLECULAR ORBITAL COMPOSITIONS                   
------------------------------------------------------------------------------- 

The Mulliken populations for each LMO on each atom are computed
The LMO`s will be ordered according to atom index and type
  (A) Strongly localized MO`s have populations of >=0.950 on one atom
  (B) Two center bond orbitals have populations of >=0.850 on two atoms
  (C) Other MO`s are considered to be `delocalized`

FOUND  -  13 strongly local MO`s
       -   0 two center bond MO`s
       -   0 significantly delocalized MO`s

Rather strongly localized orbitals:
MO  12:   4Cl -   1.000109
MO  11:   4Cl -   1.000109
MO  10:   4Cl -   1.000101
MO   9:   4Cl -   1.000000
MO   8:   4Cl -   0.999269
MO   7:   3C  -   1.000987
MO   6:   2C  -   1.001336
MO   5:   1Cl -   1.000085
MO   4:   1Cl -   1.000086
MO   3:   1Cl -   1.000100
MO   2:   1Cl -   1.000000
MO   1:   1Cl -   0.999313
MO   0:   0C  -   1.001108
Localized MO's were stored in: 1_3_dichloropropane_a_g.proc0.loc

Warning: internal orbitals are localized - no re-canonicalization of internal orbitals

--------------------------
CLOSED-SHELL FOCK OPERATOR
--------------------------

RI-JK section for the Fock operator:
  RHF full Fock operator         ... done
  RHF frozen core Fock operator  ... done
Time needed for Fock operator              ...            1.310 sec
Reference energy                           ...  -1036.182813140

--------------
DLPNO SETTINGS (2015 fully linear scaling implementation)
--------------

TCutMKN:           1.000e-03
TCutPAO:           1.000e-03
TCutPNO:           1.000e-07
TCutPNOSingles:    3.000e-09
TCutEN:            9.700e-01
TCutPAOExt:        1.000e-01
TCutPairs:         1.000e-05
TCutPre:           1.000e-07
TCutOSV:           1.000e-06
TCutDOij:          1.000e-05
TCutDO:            5.000e-03
TCutC:             1.000e-04
TCutCPAO:          1.000e-03
TCutCMO:           1.000e-03
TScaleDOMP2PreScr: 2.000e+00
TScaleMKNMP2PreScr:1.000e+01
TScalePNOMP2PreScr:1.000e+00
PAO overlap thresh 1.000e-08
Using PNOs for Singles Fock computation
Use new domains
Use fully linear algorithm
TCutTNO:           1.000e-09
TCutMP2Pairs:      1.000e-06
TCutDOStrong:      2.000e-03
TCutMKNStrong:     1.000e-02
TCutMKNWeak:       1.000e-01
TCutDOWeak:        4.000e-03
NTCutTNO:          1

--------------------------
Calculating differential overlap integrals ... ok
--------------------------
ELECTRON PAIR PRESCREENING
--------------------------

Dipole-based pair screening          .... used

   TCutDOij = 1.000000e-05
   TCutPre  = 1.000000e-07
   .... Finished loop over pairs
Total time spent in the prescreening                  ...     0.000 sec
sum of pair energies estimated for screened out pairs ...       0.000000000000 Eh
Thresholds for map construction and integral transformation for crude MP2:
   TCutMKN                    ...     1.0e-02
   TCutDO                     ...     1.0e-02
   TCutPairs                  ...     1.0e-05
   TCutPNO_CrudeMP2           ...     1.0e-07
   TCutPNOSingles_CrudeMP2    ...     3.0e-09
--------------------------------
LOCAL RI TRANSFORMATION (IAVPAO)
--------------------------------

Orbital window:      13 to 28
Number of PAOs:     242
Basis functions:    242 (90 shells)
Aux. functions:     667 (193 shells)

Processing maps (0.0 sec)
Average map sizes:
   Aux shells -> MOs              16.0
   Aux shells -> PAOs            242.0
   MOs        -> AO shells        89.2
   PAOs       -> AO shells        90.0

Calculating integrals (0.7 sec, 19.711 MB)
Sorting integrals (0.0 sec, 19.704 MB)
Total time for the integral transformation: 0.7 sec
--------------------------------
INITIAL GUESS AND PNO GENERATION
--------------------------------

PNO truncation parameters                   .... 
    PAOOverlapThresh   =        1.000e-08

    TCutPairs          =        1.000e-05
    TCutPNO            =        1.000e-07
    TCutPNOSingles     =        3.000e-09
    TCutMP2Pairs       =        1.000e-06
    TCutMKN            =        1.000e-02
    TCutDO             =        1.000e-02

Pair selection                          .... not used
Type of local MP2 treatment                 .... semi-local MP2
Strategy for PNO selection                  .... occupation number selection
Pair density normalization                  .... MP2 norm
Spin component scaling                      .... not used

   .... Finished loop over pairs
Making pair pair interaction lists          ... done

                       ===========================
                        136 OF  136 PAIRS ARE KEPT CCSD PAIRS
                          0 OF  136 PAIRS ARE KEPT MP2 PAIRS FOR (T)
                          0 OF  136 PAIRS ARE SKIPPED
                       ===========================

Total time spent in the initial guess                 ...     0.608 sec
SL-MP2 correlation energy (all non-screened pairs)    ...      -0.867160474771 Eh

Initial PNO correlation energy                        ...      -0.866545192440 Eh
sum of pair energies prescreened and skipped MP2 pairs...       0.000000000000 Eh
sum of pair energies of crude MP2 skipped pairs only  ...       0.000000000000 Eh
sum of MP2 pair energies for pairs that were not kept ...       0.000000000000 Eh
sum of PNO error estimates for the kept pairs         ...      -0.000615282331 Eh
                                                          --------------------
sum of all corrections                                         -0.000615282331
Initial total correlation energy                               -0.867160474771
Thresholds for map construction and integral transformation for fine MP2 and CCSD(T) calculation:
   TCutMKN   ...     1.0e-03
   TCutDO    ...     5.0e-03
   TCutPairs ...     1.0e-05
   TCutCMO   ...     1.0e-03
   TCutCPAO  ...     1.0e-03

Thresholds for map construction and integral transformation for strong Triples:
   TCutMKN   ...     1.0e-02
   TCutDO    ...     1.0e-02
   TCutCMO   ...     1.0e-03
   TCutCPAO  ...     1.0e-03

Thresholds for map construction and integral transformation for weak Triples:
   TCutMKN   ...     1.0e-01
   TCutDO    ...     2.0e-02
   TCutCMO   ...     1.0e-03
   TCutCPAO  ...     1.0e-03

--------------------------------
LOCAL RI TRANSFORMATION (IAVPAO)
--------------------------------

Orbital window:      13 to 28
Number of PAOs:     242
Basis functions:    242 (90 shells)
Aux. functions:     667 (193 shells)

Processing maps (0.0 sec)
Average map sizes:
   Aux shells -> MOs              16.0
   Aux shells -> PAOs            242.0
   MOs        -> AO shells        89.2
   PAOs       -> AO shells        90.0

Calculating integrals (0.7 sec, 19.711 MB)
Sorting integrals (0.0 sec, 19.704 MB)
Total time for the integral transformation: 0.8 sec
--------------------------------
INITIAL GUESS AND PNO GENERATION
--------------------------------

PNO truncation parameters                   .... 
    ScaleTCutPNO       =        1.000e-02
    PAOOverlapThresh   =        1.000e-08

    TCutPairs          =        1.000e-05
    TCutPNO            =        1.000e-07
    TCutPNOSingles     =        3.000e-09
    TCutMP2Pairs       =        1.000e-06
    TCutMKN            =        1.000e-03
    TCutDO             =        5.000e-03

Pair selection                          .... not used
Type of local MP2 treatment                 .... full local PMP2
Strategy for PNO selection                  .... occupation number selection
Pair density normalization                  .... MP2 norm
Spin component scaling                      .... not used

PASS-1: Formation of initial guess LMP2 amplitudes
Initial amplitudes guess done. Entering LMP2 iteration loop:
   Max. no of iterations          ...  50
   Energy convergence tolerance   ...    1.0e-07
   Residual convergence tolerance ...    5.0e-07
   Fock matrix cutoff             ...    1.0e-05 Eh
   DIIS convergence acceleration parameters:
        Max # vectors in DIIS     ... 7
        Start iteration of DIIS   ... 0
        Levelshift                ... 2.000e-01
        Damping factor 1          ... 5.000e-01
        Damping factor 2          ... 1.000e+00
   L-MP2 PNO cut-off              ...   1.0e-09
   L-MP2 PNO cut-off (core)       ...   1.0e-11
                           *** Turning on DIIS ***
LMP2-Iter=   0:  ELMP2= -0.886297492561  DE=   1.9e-02 RMAX=   6.2e-03
LMP2-Iter=   1:  ELMP2= -0.896554616442  DE=   1.0e-02 RMAX=   3.8e-03
LMP2-Iter=   2:  ELMP2= -0.898336946935  DE=   1.8e-03 RMAX=   6.9e-04
LMP2-Iter=   3:  ELMP2= -0.898530184460  DE=   1.9e-04 RMAX=   2.7e-04
LMP2-Iter=   4:  ELMP2= -0.898541054646  DE=   1.1e-05 RMAX=   3.0e-05
LMP2-Iter=   5:  ELMP2= -0.898539782090  DE=   1.3e-06 RMAX=   1.1e-05
LMP2-Iter=   6:  ELMP2= -0.898539510776  DE=   2.7e-07 RMAX=   8.3e-07
LMP2-Iter=   7:  ELMP2= -0.898539486576  DE=   2.4e-08 RMAX=   2.1e-07
LMP2-Iter=   8:  ELMP2= -0.898539489861  DE=   3.3e-09 RMAX=   2.5e-08 => CONVERGED
PASS-2: Formation of Pair natural orbitals
   .... Finished loop over pairs

 PNO Occupation Number Statistics: 
  | Av. % of trace(Dij) retained        ...  99.556581451232
  | sigma^2 in % of trace(Dij) retained ...   4.19e-01
  | Av. % of trace(Di) retained         ...  99.999805776451
  | sigma^2 in % of trace(Di) retained  ...   6.80e-09
 Distributions of % trace(Dij) recovered:
  |       >= 99.9  ...    50 ( 36.8 % of all pairs)
  |   [90.0, 99.0) ...    21 ( 15.4 % of all pairs)
  |   [99.0, 99.9) ...    65 ( 47.8 % of all pairs)
 Distributions of % trace(Di) recovered :
  |       >= 99.9  ...    16 (100.0 % of all I-pairs )

Making pair pair interaction lists          ... done

                       ===========================
                        136 OF  136 PAIRS ARE KEPT
                       ===========================

Total time spent in the initial guess                 ...     5.155 sec
L-MP2 correlation energy (all non-screened pairs)     ...      -0.898539489861 Eh
L-MP2 PNO error correction                            ...      -0.000011917569 Eh
                                                          --------------------
Initial total L-MP2 energy (non-screened pairs)       ...      -0.898551407431 Eh

Initial PNO correlation energy                        ...      -0.897949748084 Eh
sum of pair energies estimated for screened out pairs ...       0.000000000000 Eh
sum of MP2 pair energies for pairs that were not kept ...       0.000000000000 Eh
sum of PNO error estimates for the kept pairs         ...      -0.000601659346 Eh
                                                          --------------------
sum of all corrections                                         -0.000601659346
Initial total correlation energy                               -0.898551407431
Thresholds for map construction and integral transformation for fine MP2 and CCSD(T) calculation:
   TCutMKN   ...     1.0e-03
   TCutDO    ...     5.0e-03
   TCutPairs ...     1.0e-05
   TCutCMO   ...     1.0e-03
   TCutCPAO  ...     1.0e-03

Time for aux screen maps:            0.002
Time for maps after fine MP2:            0.008
-----------------------------
LOCAL RI TRANSFORMATION (IJV)
-----------------------------

Orbital window:      13 to 28
Basis functions:    242 (90 shells)
Aux. functions:     667 (193 shells)

Processing maps (0.0 sec)
Average map sizes:
   Aux shells -> MOs(i)           16.0
   Aux shells -> MOs(j)           16.0
   MOs        -> AO shells        89.2

Calculating integrals (0.7 sec, 1.310 MB)
Sorting integrals (0.0 sec, 1.303 MB)
Total time for the integral transformation: 0.7 sec
--------------------------------
LOCAL RI TRANSFORMATION (VABPAO)
--------------------------------

Number of PAOs:     242
Basis functions:    242 (90 shells)
Aux. functions:     667 (193 shells)

Processing maps (0.0 sec)
Average map sizes:
   Aux shells -> PAOs            242.0
   PAOs       -> AO shells        90.0

Calculating integrals (1.2 sec, 559.865 MB)
Finished


-------------------------------------
Pair Pair Term precalculation with     
RI-(ij|mn) and (im|jn) transformation  
ON THE FLY                             
-------------------------------------

   IBatch   1 (of   1)              ... done (   20.049 sec)
Total EXT                           ...          20.049 sec

---------------------
RI-PNO TRANSFORMATION
---------------------

Total Number of PNOs                   ...  5436
Average number of PNOs per pair        ...    39
Maximal number of PNOs per pair        ...    69
   #pairs with  1 -  5 PNOs   :    0
   #pairs with  6 - 10 PNOs   :    7
   #pairs with 11 - 15 PNOs   :   11
   #pairs with 16 - 20 PNOs   :    6
   #pairs with 21 - 25 PNOs   :    5
   #pairs with 26 - 30 PNOs   :   12
   #pairs with 31 - 35 PNOs   :   16
   #pairs with 36 - 40 PNOs   :    1
   #pairs with 41 - 45 PNOs   :   11
   #pairs with 46 - 50 PNOs   :   29
   #pairs with 51 - 55 PNOs   :   16
   #pairs with 56 - 60 PNOs   :    4
   #pairs with 61 - 65 PNOs   :   11
   #pairs with 66 - 70 PNOs   :    7

Generation of (ij|ab)[P] integrals            ... on
Generation of (ia|bc)[P],(ja|bc)[P] integrals ... on
Storage of 3 and 4 external integrals         ... on
Generation of ALL (ka|bc)[P] integrals        ... on
Keep RI integrals in memory                   ... off

Ibatch:  1 (of  1)
Starting 2-4 index PNO integral generation ... done

Timings:
Total PNO integral transformation time     ...          8.957 sec
Size of the 3-external file                ...       102 MB
Size of the 4-external file                ...       713 MB
Size of the IKJL file                      ...         0 MB
Size of the all 3-external file            ...       823 MB
Size of the 1-external file                ...         1 MB

Making pair/pair overlap matrices          ... done (    0.729 sec)
Size of the pair overlap file              ... 166 MB
Redoing the guess amplitudes               ... done (    0.002 sec)

-------------------------
FINAL STARTUP INFORMATION
-------------------------

E(0)                                       ...  -1036.182813140
E(L-MP2)                                   ...     -0.898551407
E(L-MP2) including corrections             ...     -0.898551407
Initial E(tot)                             ...  -1037.081364548
<T|T>                                      ...      0.271979645
Number of pairs included                   ... 136
Total number of pairs                      ... 136

------------------------------------------------
                  RHF COUPLED CLUSTER ITERATIONS
------------------------------------------------

Number of PNO amplitudes to be optimized   ...       256640
Number of non-PNO amplitudes               ...      6170184
Untruncated number of regular amplitudes   ...      6170184

Iter       E(tot)           E(Corr)          Delta-E          Residual     Time
  0  -1037.049992382     -0.866577583      0.031973825      0.011815332    6.39
                           *** Turning on DIIS ***
  1  -1037.109770170     -0.926355370     -0.059777787      0.009754987    6.35
  2  -1037.136713396     -0.953298597     -0.026943227      0.003262334    6.36
  3  -1037.140991638     -0.957576838     -0.004278241      0.001715905    6.38
  4  -1037.141877190     -0.958462390     -0.000885552      0.000522740   15.35
  5  -1037.142040696     -0.958625897     -0.000163506      0.000190445    6.28
  6  -1037.142078053     -0.958663253     -0.000037356      0.000076149    6.27
  7  -1037.142084208     -0.958669408     -0.000006156      0.000033297    5.80
  8  -1037.142084739     -0.958669939     -0.000000530      0.000010102    5.73
  9  -1037.142084247     -0.958669448      0.000000491      0.000004086    5.73
               --- The Coupled-Cluster iterations have converged ---

----------------------
COUPLED CLUSTER ENERGY
----------------------

E(0)                                       ...  -1036.182813140
E(CORR)(strong-pairs)                      ...     -0.958669448
E(CORR)(weak-pairs)                        ...     -0.000601659
E(CORR)(corrected)                         ...     -0.959271107
E(TOT)                                     ...  -1037.142084247
Singles Norm <S|S>**1/2                    ...      0.048542808  
T1 diagnostic                              ...      0.008581237  

------------------
LARGEST AMPLITUDES
------------------
  19-> 29  19-> 29       0.057513
  22-> 29  22-> 29       0.057144
  25-> 35  25-> 35       0.033919
  24-> 35  24-> 35       0.029227
  23-> 35  23-> 35       0.028834
  27-> 35  27-> 35       0.027912
  17-> 37  17-> 37       0.027748
  26-> 29  26-> 29       0.027663
  16-> 37  16-> 37       0.027582
  25-> 29  25-> 29       0.027418
  27-> 29  27-> 29       0.027215
  23-> 29  23-> 29       0.026929
  25-> 29  25-> 35       0.026530
  25-> 35  25-> 29       0.026530
  28-> 29  28-> 29       0.026260
  24-> 29  24-> 29       0.026250


-------------------------------------------
DLPNO BASED TRIPLES CORRECTION
-------------------------------------------

Singles multiplier          ...  1.000000
TCutTNO                     ... 1.000e-09
TCutMP2Pairs                ... 1.000e-06
TCutDOStrong                ... 1.000e-02
TCutMKNStrong               ... 1.000e-02
TCutDOWeak                  ... 2.000e-02
TCutMKNWeak                 ... 1.000e-01

Fragment selection                          .... not used
Number of Triples that are to be computed   ...       800

 . . . . . . . . .
10% done  
20% done  
30% done  
40% done  
50% done  
60% done  
70% done  
80% done  
90% done               (     43.725 sec)
Triples timings:
Total time for T0               ...    46.468 sec
Total time for Iterative (T)    ...     0.000 sec
Total time of overall (T)       ...    46.469 sec

Triples List generation         ...     0.000 sec
TNO generation                  ...     2.738 sec
Pair density generation         ...     0.003 sec
Look up tables                  ...     0.000 sec
Generating 3-index integrals    ...    24.181 sec
  Make 4-ind.int. from 3-ind.int...     7.037 sec
  Projecting amplitudes (D + S) ...     2.999 sec
  Downprojecting integrals      ...     0.001 sec
  Energy contr. (sum over a,b,c)...     2.506 sec
Fitting ET(->0)                 ...     0.000 sec

Everything after 3-index        ...    19.543 sec

Timing details:
 TNO integrals                  ...    30.629 sec
   Reading 3-index integrals    ...     0.103 sec
   Sorting integrals            ...     5.108 sec
       Sorting integrals 1      ...     0.000 sec
       Sorting integrals 2      ...     1.754 sec
       Sorting integrals 3      ...     0.172 sec
       Sorting integrals 4      ...     0.010 sec
       Sorting integrals 5      ...     0.052 sec
       Sorting integrals 6      ...     3.120 sec
   Calculating local VM**-1/2   ...     0.139 sec
   Orthogonal. integrals        ...     0.281 sec
   Multipl. 3-index integrals   ...    24.999 sec
   All concerning IRIab (w/TNO) ...     3.311 sec

 Calculate W0/W1                ...     6.997 sec
 W 3-ext contribution           ...     3.948 sec
 W 3-int contribution           ...     0.914 sec
 Sorting W                      ...     2.029 sec

 V exchange contribution        ...     0.902 sec

 Timings for Triples without generation
     of 3-index integrals       ...    19.542 sec
       0 weak pairs             ...    19.542 sec
       1 weak pair              ...     0.000 sec
       2 weak pairs             ...     0.000 sec
       3 weak pairs             ...     0.000 sec
  Extra time for extrapolation  ...     0.000 sec

Number of Triples   (0, 1, 2, 3 weak pairs; overall):    800       0       0       0  (   800)
Number of Atoms     (0, 1, 2, 3 weak pairs; overall):   10.8     0.0     0.0     0.0  (    11)
Number of PAOs      (0, 1, 2, 3 weak pairs; overall):  238.3     0.0     0.0     0.0  (   242)
Number of AuxFcns   (0, 1, 2, 3 weak pairs; overall):  322.9     0.0     0.0     0.0  (   667)
Number of TNOs      (0, 1, 2, 3 weak pairs         ):   90.7     0.0     0.0     0.0
Aver. Number of NTNO, Atoms, PAOs, AuxFcns / Triples:    800    90.7    10.8   238.3   322.9

Triples Correction (T)                     ...     -0.038551721
Final correlation energy                   ...     -0.997822828
E(CCSD)                                    ...  -1037.142084247
E(CCSD(T))                                 ...  -1037.180635969


Maximum memory used throughout the entire calculation: 3990.1 MB


------------------------------------------------------------------------------- 
                                     TIMINGS                                   
------------------------------------------------------------------------------- 


Total execution time                   ...      161.771 sec

Localization of occupied MO's          ...        0.568 sec (  0.4%)
Fock Matrix Formation                  ...        1.310 sec (  0.8%)
Global overlap, Fock, MKN matrices     ...        0.156 sec (  0.1%)
Differential overlap integrals         ...        0.066 sec (  0.0%)
Organizing maps                        ...        0.022 sec (  0.0%)
RI 3-index integral generations        ...        3.403 sec (  2.1%)
RI-PNO integral transformation         ...       30.893 sec ( 19.1%)
Initial Guess                          ...        5.796 sec (  3.6%)
DIIS Solver                            ...        0.855 sec (  0.5%)
State Vector Update                    ...        0.020 sec (  0.0%)
Sigma-vector construction              ...       70.455 sec ( 43.6%)
  <D|H|D>(0-ext)                       ...        1.221 sec (  1.7% of sigma)
  <D|H|D>(2-ext Fock)                  ...        0.009 sec (  0.0% of sigma)
  <D|H|D>(2-ext)                       ...        4.606 sec (  6.5% of sigma)
  <D|H|D>(4-ext)                       ...        8.441 sec ( 12.0% of sigma)
  <D|H|D>(4-ext-corr)                  ...       37.393 sec ( 53.1% of sigma)
  CCSD doubles correction              ...        0.099 sec (  0.1% of sigma)
  <S|H|S>                              ...        0.098 sec (  0.1% of sigma)
  <S|H|D>(1-ext)                       ...        0.170 sec (  0.2% of sigma)
  <D|H|S>(1-ext)                       ...        0.006 sec (  0.0% of sigma)
  <S|H|D>(3-ext)                       ...        0.307 sec (  0.4% of sigma)
  Fock-dressing                        ...       15.731 sec ( 22.3% of sigma)
  Singles amplitudes                   ...        0.218 sec (  0.3% of sigma)
  (ik|jl)-dressing                     ...        0.844 sec (  1.2% of sigma)
  (ij|ab),(ia|jb)-dressing             ...        1.154 sec (  1.6% of sigma)
  Pair energies                        ...        0.005 sec (  0.0% of sigma)
Total Time for computing (T)           ...       46.500 sec ( 28.7% of ALL)


-------------------------   --------------------
FINAL SINGLE POINT ENERGY     -1037.180635968798
-------------------------   --------------------


                            ***************************************
                            *     ORCA property calculations      *
                            ***************************************

                                    ---------------------
                                    Active property flags
                                    ---------------------
   (+) Dipole Moment


------------------------------------------------------------------------------
                       ORCA ELECTRIC PROPERTIES CALCULATION
------------------------------------------------------------------------------

Dipole Moment Calculation                       ... on
Quadrupole Moment Calculation                   ... off
Polarizability Calculation                      ... off
GBWName                                         ... 1_3_dichloropropane_a_g.gbw
Electron density file                           ... 1_3_dichloropropane_a_g.scfp.tmp
The origin for moment calculation is the CENTER OF MASS  = ( 0.028976, -0.087012 -0.026872)

-------------
DIPOLE MOMENT
-------------
                                X             Y             Z
Electronic contribution:      1.31788      -4.27451      -1.20711
Nuclear contribution   :     -1.68055       5.04667       1.55858
                        -----------------------------------------
Total Dipole Moment    :     -0.36266       0.77217       0.35147
                        -----------------------------------------
Magnitude (a.u.)       :      0.92266
Magnitude (Debye)      :      2.34521



--------------------
Rotational spectrum 
--------------------
 
Rotational constants in cm-1:     0.316062     0.034822     0.032703 
Rotational constants in MHz :  9475.307371  1043.924084   980.411803 

 Dipole components along the rotational axes: 
x,y,z [a.u.] :    -0.352495     0.783865     0.335561 
x,y,z [Debye]:    -0.895972     1.992425     0.852929 

 

Timings for individual modules:

Sum of individual times         ...      188.864 sec (=   3.148 min)
GTO integral calculation        ...        2.591 sec (=   0.043 min)   1.4 %
SCF iterations                  ...       24.283 sec (=   0.405 min)  12.9 %
MDCI module                     ...      161.990 sec (=   2.700 min)  85.8 %
                             ****ORCA TERMINATED NORMALLY****
TOTAL RUN TIME: 0 days 0 hours 3 minutes 9 seconds 135 msec
1_3_dichloropropane_a_g.gbw -> /home1/pantazis/klk/xyz_1/haloalkanes_xyz/1_3_dichloropropane_a_g.gbw
1_3_dichloropropane_a_g.job -> /home1/pantazis/klk/xyz_1/haloalkanes_xyz/1_3_dichloropropane_a_g.job
1_3_dichloropropane_a_g.loc -> /home1/pantazis/klk/xyz_1/haloalkanes_xyz/1_3_dichloropropane_a_g.loc
1_3_dichloropropane_a_g.nodes -> /home1/pantazis/klk/xyz_1/haloalkanes_xyz/1_3_dichloropropane_a_g.nodes
1_3_dichloropropane_a_g.prop -> /home1/pantazis/klk/xyz_1/haloalkanes_xyz/1_3_dichloropropane_a_g.prop
1_3_dichloropropane_a_g_property.txt -> /home1/pantazis/klk/xyz_1/haloalkanes_xyz/1_3_dichloropropane_a_g_property.txt
1_3_dichloropropane_a_g.xyz -> /home1/pantazis/klk/xyz_1/haloalkanes_xyz/1_3_dichloropropane_a_g.xyz
cp: cannot stat 1_3_dichloropropane_a_g.asa.inp: No such file or directory
