! Job execution by suborca V 6.07 on ZEUS !
Job started from zeus1, running /scratch/pantazis/1_Butene_cis__GxrS0u/orca/orca copied from /opt/orca on zeussn153 in /scratch/pantazis/1_Butene_cis__GxrS0u
Job execution start: Thu Jun 27 11:29:24 CEST 2019
Shared library path: /scratch/pantazis/1_Butene_cis__GxrS0u/orca:/opt/openmpi_1.10.2/lib:/opt/intel/mkl/lib/intel64:/opt/intel/lib/intel64:
PBS Job ID is: 158022.icqc
izeussn153
izeussn153
izeussn153
izeussn153
izeussn153
izeussn153
izeussn153
izeussn153

                                 *****************
                                 * O   R   C   A *
                                 *****************

           --- An Ab Initio, DFT and Semiempirical electronic structure package ---

                  #######################################################
                  #                        -***-                        #
                  #          Department of theory and spectroscopy      #
                  #               Directorship: Frank Neese             #
                  #        Max Planck Institute fuer Kohlenforschung    #
                  #                Kaiser Wilhelm Platz 1               #
                  #                 D-45470 Muelheim/Ruhr               #
                  #                      Germany                        #
                  #                                                     #
                  #                  All rights reserved                #
                  #                        -***-                        #
                  #######################################################


                         Program Version 4.1.x  -  STABLE  -
                                (SVN: $Rev: 14094$)
                ($Date: 2019-06-14 15:01:15 +0200 (Fri, 14 Jun 2019) $)

                         (BUILD: $Sun Jun 23 06:18:31 CEST 2019$)


 With contributions from (in alphabetic order):
   Daniel Aravena         : Magnetic Properties
   Michael Atanasov       : Ab Initio Ligand Field Theory
   Alexander A. Auer      : GIAO ZORA
   Ute Becker             : Parallelization
   Giovanni Bistoni       : ED, Open-shell LED
   Martin Brehm           : Molecular dynamics
   Dmytro Bykov           : SCF Hessian
   Vijay G. Chilkuri      : MRCI spin determinant printing
   Dipayan Datta          : RHF DLPNO-CCSD density
   Achintya Kumar Dutta   : EOM-CC, STEOM-CC
   Dmitry Ganyushin       : Spin-Orbit,Spin-Spin,Magnetic field MRCI
   Miquel Garcia          : C-PCM Hessian
   Yang Guo               : DLPNO-NEVPT2, CIM, IAO-localization
   Andreas Hansen         : Spin unrestricted coupled pair/coupled cluster methods
   Benjamin Helmich-Paris : CASSCF linear response (MC-RPA)
   Lee Huntington         : MR-EOM, pCC
   Robert Izsak           : Overlap fitted RIJCOSX, COSX-SCS-MP3, EOM
   Christian Kollmar      : KDIIS, OOCD, Brueckner-CCSD(T), CCSD density
   Simone Kossmann        : Meta GGA functionals, TD-DFT gradient, OOMP2, MP2 Hessian
   Martin Krupicka        : AUTO-CI
   Lucas Lang             : DCDCAS
   Dagmar Lenk            : GEPOL surface, SMD
   Dimitrios Liakos       : Extrapolation schemes; parallel MDCI
   Dimitrios Manganas     : ROCIS; embedding schemes
   Dimitrios Pantazis     : SARC Basis sets
   Taras Petrenko         : DFT Hessian,TD-DFT gradient, ASA, ECA, R-Raman, ABS, FL, XAS/XES, NRVS
   Peter Pinski           : DLPNO-MP2, DLPNO-MP2 Gradient
   Christoph Reimann      : Effective Core Potentials
   Marius Retegan         : Local ZFS, SOC
   Christoph Riplinger    : Optimizer, TS searches, QM/MM, DLPNO-CCSD(T), (RO)-DLPNO pert. Triples
   Tobias Risthaus        : Range-separated hybrids, TD-DFT gradient, RPA, STAB
   Michael Roemelt        : Restricted open shell CIS
   Masaaki Saitow         : Open-shell DLPNO
   Barbara Sandhoefer     : DKH picture change effects
   Avijit Sen             : IP-ROCIS
   Kantharuban Sivalingam : CASSCF convergence, NEVPT2, FIC-MRCI
   Bernardo de Souza      : ESD, SOC TD-DFT
   Georgi Stoychev        : AutoAux, RI-MP2 NMR
   Willem Van den Heuvel  : Paramagnetic NMR
   Boris Wezisla          : Elementary symmetry handling
   Frank Wennmohs         : Technical directorship


 We gratefully acknowledge several colleagues who have allowed us to
 interface, adapt or use parts of their codes:
   Stefan Grimme, W. Hujo, H. Kruse,             : VdW corrections, initial TS optimization,
                  C. Bannwarth                     DFT functionals, gCP, sTDA/sTD-DF
   Ed Valeev                                     : LibInt (2-el integral package), F12 methods
   Garnet Chan, S. Sharma, J. Yang, R. Olivares  : DMRG
   Ulf Ekstrom                                   : XCFun DFT Library
   Mihaly Kallay                                 : mrcc  (arbitrary order and MRCC methods)
   Andreas Klamt, Michael Diedenhofen            : otool_cosmo (COSMO solvation model)
   Jiri Pittner, Ondrej Demel                    : Mk-CCSD
   Frank Weinhold                                : gennbo (NPA and NBO analysis)
   Christopher J. Cramer and Donald G. Truhlar   : smd solvation model
   Lars Goerigk                                  : TD-DFT with DH, B97 family of functionals
   V. Asgeirsson, H. Jonsson                     : NEB implementation
   FAccTs GmbH                                   : IRC, NEB, NEB-TS, Multilevel


 Your calculation uses the libint2 library for the computation of 2-el integrals
 For citations please refer to: http://libint.valeyev.net

 This ORCA versions uses:
   CBLAS   interface :  Fast vector & matrix operations
   LAPACKE interface :  Fast linear algebra routines
   SCALAPACK package :  Parallel linear algebra routines




***************************************
The coordinates will be read from file: 1_Butene_cis.xyz
***************************************


----- Orbital basis set information -----
Your calculation utilizes the basis: cc-pVTZ 
       H, B-Ne : Obtained from the ccRepo (grant-hill.group.shef.ac.uk/ccrepo) Feb. 2017
                 T. H. Dunning, Jr., J. Chem. Phys. 90, 1007 (1989)
            He : Obtained from the ccRepo (grant-hill.group.shef.ac.uk/ccrepo) Feb. 2017
                 D. E. Woon, T. H. Dunning, Jr., J. Chem. Phys. 100, 2975 (1994)
  Li-Be, Na-Mg : Obtained from the ccRepo (grant-hill.group.shef.ac.uk/ccrepo) Feb. 2017
                 B. P. Prascher, D. E. Woon, K. A. Peterson, T. H. Dunning, Jr., A. K. Wilson, Theor. Chem. Acc. 128, 69 (2011)
         Al-Ar : Obtained from the ccRepo (grant-hill.group.shef.ac.uk/ccrepo) Feb. 2017
                 D. E. Woon, T. H. Dunning, Jr., J. Chem. Phys. 98, 1358 (1993)
            Ca : Obtained from the Peterson Research Group Website (tyr0.chem.wsu.edu/~kipeters) Feb. 2017
                 J. Koput, K. A. Peterson, J. Phys. Chem. 106, 9595 (2002)
         Sc-Zn : Obtained from the ccRepo (grant-hill.group.shef.ac.uk/ccrepo) Feb. 2017
                 N. B. Balabanov, K. A. Peterson, J. Chem. Phys. 123, 064107 (2005)
                 N. B. Balabanov, K. A. Peterson, J. Chem. Phys. 125, 074110 (2006)
         Ga-Kr : Obtained from the ccRepo (grant-hill.group.shef.ac.uk/ccrepo) Feb. 2017
                 A. K. Wilson, D. E. Woon, K. A. Peterson, T. H. Dunning, Jr., J. Chem. Phys. 110, 7667 (1999)
             Y : Obtained from the ccRepo (grant-hill.group.shef.ac.uk/ccrepo) Feb. 2017
                 K. A. Peterson, D. Figgen, M. Dolg, H. Stoll, J. Chem. Phys. 126, 124101 (2007)
        Ag, Au : Obtained from the Peterson Research Group Website (tyr0.chem.wsu.edu/~kipeters) Feb. 2017
                 K. A. Peterson, C. Puzzarini, Theor. Chem. Acc. 114, 283 (2005)

----- AuxC basis set information -----
Your calculation utilizes the auxiliary basis: cc-pVTZ/C 
  Obtained from the EMSL Basis Set Exchange (bse.pnl.gov) Feb. 2017
  H-He, B-F, Al-Ar, Ga-Kr : F. Weigend, A. Kohn, C. Hattig, J. Chem. Phys. 116, 3175 (2002)
             Li-Be, Na-Mg : C. Haettig, Phys. Chem. Chem. Phys. 7, 59 (2005)
                       Ne : C. Haettig, Phys. Chem. Chem. Phys. 7, 59 (2005)
                            F. Weigend, A. Kohn, C. Hattig, J. Chem. Phys. 116, 3175 (2002)
                    Sc-Zn : J. G. Hill, J. A. Platts, J. Chem. Phys. 128, 044104 (2008)

----- AuxJK basis set information -----
Your calculation utilizes the auxiliary basis: cc-pVTZ/JK 
  H, B-F, Al-Cl, Ga-Br : Obtained from the TURBOMOLE 7.0 basis set library

================================================================================
                                        WARNINGS
                       Please study these warnings very carefully!
================================================================================


WARNING: MDCI localization with Augmented Hessian Foster-Boys
  ===> : Switching off randomization!

WARNING: Post HF methods need fully converged wavefunctions
  ===> : Setting SCFConvForced true
         You can overwrite this default with %scf ConvForced false 


INFO   : the flag for use of LIBINT has been found!

================================================================================
                                       INPUT FILE
================================================================================
NAME = 1_Butene_cis.inp
|  1> ! RHF DLPNO-CCSD(T) cc-pVTZ RIJK cc-pVTZ/JK cc-pVTZ/C
|  2> ! KDIIS SOSCF TightSCF TightPNO
|  3> 
|  4> %pal nprocs 8 end
|  5> 
|  6> %maxcore 8000
|  7> 
|  8> %scf maxiter 300
|  9>      shift shift 0.2 erroff 0.1 end
| 10> end
| 11> 
| 12> * xyzfile 0 1 1_Butene_cis.xyz 
| 13> 
| 14> 
| 15>                          ****END OF INPUT****
================================================================================

                       ****************************
                       * Single Point Calculation *
                       ****************************

---------------------------------
CARTESIAN COORDINATES (ANGSTROEM)
---------------------------------
  C     -1.541180   -0.587620    0.000020
  C     -0.856030    0.560520   -0.000010
  C      0.643590    0.720530    0.000030
  C      1.458860   -0.574840   -0.000030
  H     -1.416410    1.496650   -0.000130
  H     -2.627270   -0.592500   -0.000060
  H     -1.051970   -1.557610    0.000060
  H      2.531020   -0.353620   -0.000010
  H      1.243630   -1.183000    0.885330
  H      1.243610   -1.182940   -0.885420
  H      0.923010    1.330810   -0.871780
  H      0.922950    1.330670    0.871950

----------------------------
CARTESIAN COORDINATES (A.U.)
----------------------------
  NO LB      ZA    FRAG     MASS         X           Y           Z
   0 C     6.0000    0    12.011   -2.912408   -1.110441    0.000038
   1 C     6.0000    0    12.011   -1.617662    1.059229   -0.000019
   2 C     6.0000    0    12.011    1.216209    1.361604    0.000057
   3 C     6.0000    0    12.011    2.756846   -1.086290   -0.000057
   4 H     1.0000    0     1.008   -2.676627    2.828259   -0.000246
   5 H     1.0000    0     1.008   -4.964821   -1.119663   -0.000113
   6 H     1.0000    0     1.008   -1.987935   -2.943456    0.000113
   7 H     1.0000    0     1.008    4.782935   -0.668245   -0.000019
   8 H     1.0000    0     1.008    2.350120   -2.235546    1.673031
   9 H     1.0000    0     1.008    2.350082   -2.235433   -1.673201
  10 H     1.0000    0     1.008    1.744236    2.514866   -1.647425
  11 H     1.0000    0     1.008    1.744123    2.514602    1.647747

--------------------------------
INTERNAL COORDINATES (ANGSTROEM)
--------------------------------
 C      0   0   0     0.000000000000     0.00000000     0.00000000
 C      1   0   0     1.337032528774     0.00000000     0.00000000
 C      2   1   0     1.508132403372   126.91698356     0.00000000
 C      3   2   1     1.530571335613   116.09473733     0.00000000
 H      2   1   3     1.091038558301   118.26814740   179.99640277
 H      1   2   3     1.086100966255   121.08398490   180.00283633
 H      1   2   3     1.086373336289   122.40957005     0.00000000
 H      4   3   2     1.094744424238   110.52687446   179.99916647
 H      4   3   2     1.095465594211   111.41776222   299.75027098
 H      4   3   2     1.095460462363   111.41831597    60.24483985
 H      3   2   1     1.100259010824   108.14080660   123.50937448
 H      3   2   1     1.100253296110   108.13935515   236.50497266

---------------------------
INTERNAL COORDINATES (A.U.)
---------------------------
 C      0   0   0     0.000000000000     0.00000000     0.00000000
 C      1   0   0     2.526625311527     0.00000000     0.00000000
 C      2   1   0     2.849957216065   126.91698356     0.00000000
 C      3   2   1     2.892360652739   116.09473733     0.00000000
 H      2   1   3     2.061764076738   118.26814740   179.99640277
 H      1   2   3     2.052433380009   121.08398490   180.00283633
 H      1   2   3     2.052948084781   122.40957005     0.00000000
 H      4   3   2     2.068767148447   110.52687446   179.99916647
 H      4   3   2     2.070129962192   111.41776222   299.75027098
 H      4   3   2     2.070120264404   111.41831597    60.24483985
 H      3   2   1     2.079188206837   108.14080660   123.50937448
 H      3   2   1     2.079177407591   108.13935515   236.50497266

---------------------
BASIS SET INFORMATION
---------------------
There are 2 groups of distinct atoms

 Group   1 Type C   : 18s5p2d1f contracted to 4s3p2d1f pattern {8811/311/11/1}
 Group   2 Type H   : 5s2p1d contracted to 3s2p1d pattern {311/11/1}

Atom   0C    basis set group =>   1
Atom   1C    basis set group =>   1
Atom   2C    basis set group =>   1
Atom   3C    basis set group =>   1
Atom   4H    basis set group =>   2
Atom   5H    basis set group =>   2
Atom   6H    basis set group =>   2
Atom   7H    basis set group =>   2
Atom   8H    basis set group =>   2
Atom   9H    basis set group =>   2
Atom  10H    basis set group =>   2
Atom  11H    basis set group =>   2
-------------------------------
AUXILIARY BASIS SET INFORMATION
-------------------------------
There are 2 groups of distinct atoms

 Group   1 Type C   : 8s6p5d3f1g contracted to 8s6p5d3f1g pattern {11111111/111111/11111/111/1}
 Group   2 Type H   : 4s3p2d1f contracted to 4s3p2d1f pattern {1111/111/11/1}

Atom   0C    basis set group =>   1
Atom   1C    basis set group =>   1
Atom   2C    basis set group =>   1
Atom   3C    basis set group =>   1
Atom   4H    basis set group =>   2
Atom   5H    basis set group =>   2
Atom   6H    basis set group =>   2
Atom   7H    basis set group =>   2
Atom   8H    basis set group =>   2
Atom   9H    basis set group =>   2
Atom  10H    basis set group =>   2
Atom  11H    basis set group =>   2
-------------------------------
AUXILIARY BASIS SET INFORMATION
-------------------------------
There are 2 groups of distinct atoms

 Group   1 Type C   : 10s7p5d2f1g contracted to 10s7p5d2f1g pattern {1111111111/1111111/11111/11/1}
 Group   2 Type H   : 4s3p2d1f contracted to 4s3p2d1f pattern {1111/111/11/1}

Atom   0C    basis set group =>   1
Atom   1C    basis set group =>   1
Atom   2C    basis set group =>   1
Atom   3C    basis set group =>   1
Atom   4H    basis set group =>   2
Atom   5H    basis set group =>   2
Atom   6H    basis set group =>   2
Atom   7H    basis set group =>   2
Atom   8H    basis set group =>   2
Atom   9H    basis set group =>   2
Atom  10H    basis set group =>   2
Atom  11H    basis set group =>   2


           ************************************************************
           *        Program running with 8 parallel MPI-processes     *
           *              working on a common directory               *
           ************************************************************
------------------------------------------------------------------------------
                           ORCA GTO INTEGRAL CALCULATION
                           -- RI-GTO INTEGRALS CHOSEN --
------------------------------------------------------------------------------

                         BASIS SET STATISTICS AND STARTUP INFO

Gaussian basis set:
 # of primitive gaussian shells          ...  168
 # of primitive gaussian functions       ...  328
 # of contracted shells                  ...   88
 # of contracted basis functions         ...  232
 Highest angular momentum                ...    3
 Maximum contraction depth               ...    8
Auxiliary gaussian basis set:
 # of primitive gaussian shells          ...  180
 # of primitive gaussian functions       ...  556
 # of contracted shells                  ...  180
 # of contracted aux-basis functions     ...  556
 Highest angular momentum                ...    4
 Maximum contraction depth               ...    1
Ratio of auxiliary to basis functions    ...  2.40
Integral package used                  ... LIBINT
 One Electron integrals                  ... done
 Ordering auxiliary basis shells         ... done
 Integral threshhold             Thresh  ...  2.500e-11
 Primitive cut-off               TCut    ...  2.500e-12
 Pre-screening matrix                    ... done
 Shell pair data                         ... 
 Ordering of the shell pairs             ... done (   0.001 sec) 3834 of 3916 pairs
 Determination of significant pairs      ... done (   0.000 sec)
 Creation of shell pair data             ... done (   0.001 sec)
 Storage of shell pair data              ... done (   0.003 sec)
 Shell pair data done in (   0.005 sec)
 Computing two index integrals           ... done
 Cholesky decomposition of the V-matrix  ... done


Timings:
 Total evaluation time                   ...   6.792 sec (  0.113 min)
 One electron matrix time                ...   6.373 sec (  0.106 min) = 93.8%
 Schwartz matrix evaluation time         ...   0.262 sec (  0.004 min) =  3.9%
 Two index repulsion integral time       ...   0.046 sec (  0.001 min) =  0.7%
 Cholesky decomposition of V             ...   0.080 sec (  0.001 min) =  1.2%
 Three index repulsion integral time     ...   0.000 sec (  0.000 min) =  0.0%



           ************************************************************
           *        Program running with 8 parallel MPI-processes     *
           *              working on a common directory               *
           ************************************************************
-------------------------------------------------------------------------------
                                 ORCA SCF
-------------------------------------------------------------------------------

------------
SCF SETTINGS
------------
Hamiltonian:
 Ab initio Hamiltonian  Method          .... Hartree-Fock(GTOs)
 RI-approximation to the Coulomb term is turned on
   Number of auxiliary basis functions  .... 556
   RI-JK (J+K treated both via RI)      .... on


General Settings:
 Integral files         IntName         .... 1_Butene_cis
 Hartree-Fock type      HFTyp           .... RHF
 Total Charge           Charge          ....    0
 Multiplicity           Mult            ....    1
 Number of Electrons    NEL             ....   32
 Basis Dimension        Dim             ....  232
 Nuclear Repulsion      ENuc            ....    118.2395326705 Eh

Convergence Acceleration:
 DIIS                   CNVDIIS         .... off
 Newton-Raphson         CNVNR           .... off
 SOSCF                  CNVSOSCF        .... on
   Start iteration      SOSCFMaxIt      ....   150
   Startup grad/error   SOSCFStart      ....  0.003300
 Level Shifting         CNVShift        .... on
   Level shift para.    LevelShift      ....    0.2000
   Turn off err/grad.   ShiftErr        ....    0.1000
 Zerner damping         CNVZerner       .... off
 Static damping         CNVDamp         .... off
 Fernandez-Rico         CNVRico         .... off

SCF Procedure:
 Maximum # iterations   MaxIter         ....   300
 SCF integral mode      SCFMode         .... Direct
   Integral package                     .... LIBINT
 Reset frequency        DirectResetFreq ....    20
 Integral Threshold     Thresh          ....  2.500e-11 Eh
 Primitive CutOff       TCut            ....  2.500e-12 Eh

Convergence Tolerance:
 Convergence Check Mode ConvCheckMode   .... Total+1el-Energy
 Convergence forced     ConvForced      .... 1
 Energy Change          TolE            ....  1.000e-08 Eh
 1-El. energy change                    ....  1.000e-05 Eh
 Orbital Gradient       TolG            ....  1.000e-05
 Orbital Rotation angle TolX            ....  1.000e-05


Diagonalization of the overlap matrix:
Smallest eigenvalue                        ... 3.555e-04
Time for diagonalization                   ...    0.013 sec
Threshold for overlap eigenvalues          ... 1.000e-08
Number of eigenvalues below threshold      ... 0
Time for construction of square roots      ...    0.024 sec
Total time needed                          ...    0.037 sec

-------------------
DFT GRID GENERATION
-------------------

General Integration Accuracy     IntAcc      ...  4.340
Radial Grid Type                 RadialGrid  ... Gauss-Chebyshev
Angular Grid (max. acc.)         AngularGrid ... Lebedev-110
Angular grid pruning method      GridPruning ... 3 (G Style)
Weight generation scheme         WeightScheme... Becke
Basis function cutoff            BFCut       ...    1.0000e-11
Integration weight cutoff        WCut        ...    1.0000e-14
Grids for H and He will be reduced by one unit

# of grid points (after initial pruning)     ...  12976 (   0.0 sec)
# of grid points (after weights+screening)   ...  12201 (   0.0 sec)
nearest neighbour list constructed           ...    0.0 sec
Grid point re-assignment to atoms done       ...    0.0 sec
Grid point division into batches done        ...    0.0 sec
Reduced shell lists constructed in    0.1 sec

Total number of grid points                  ...    12201
Total number of batches                      ...      195
Average number of points per batch           ...       62
Average number of grid points per atom       ...     1017
Average number of shells per batch           ...    77.38 (87.94%)
Average number of basis functions per batch  ...   203.31 (87.63%)
Average number of large shells per batch     ...    65.46 (84.59%)
Average number of large basis fcns per batch ...   169.38 (83.31%)
Average number of aux-shells per batch       ...    77.38 (42.99%)
Average number of aux functions per batch    ...   203.31 (36.57%)
Maximum spatial batch extension              ...   3.26,  2.63,  6.18 au
Average spatial batch extension              ...   0.22,  0.22,  0.27 au

Time for grid setup =    0.068 sec

------------------------------
INITIAL GUESS: MODEL POTENTIAL
------------------------------
Loading Hartree-Fock densities                     ... done
Calculating cut-offs                               ... done
Setting up the integral package                    ... done
Initializing the effective Hamiltonian             ... done
Starting the Coulomb interaction                   ... done (   0.0 sec)
Reading the grid                                   ... done
Mapping shells                                     ... done
Starting the XC term evaluation                    ... done (   0.0 sec)
Transforming the Hamiltonian                       ... done (   0.0 sec)
Diagonalizing the Hamiltonian                      ... done (   0.0 sec)
Back transforming the eigenvectors                 ... done (   0.0 sec)
Now organizing SCF variables                       ... done
                      ------------------
                      INITIAL GUESS DONE (   0.3 sec)
                      ------------------
--------------
SCF ITERATIONS
--------------
ITER       Energy         Delta-E        Max-DP      RMS-DP      [F,P]   Gradient Norm
                             ****Turning on KDIIS(Cayley)****
  0   -155.9063750625   0.000000000000 0.01114381  0.00030595  0.0979118   0.150832205
  1   -155.9792656273  -0.072890564776 0.01791750  0.00034816  0.0875008   0.130232876
  2   -156.0391293679  -0.059863740634 0.02913856  0.00059661  0.0702239   0.105912260
  3   -156.1134204425  -0.074291074531 0.04429733  0.00095902  0.0421911   0.065455554
                      *** Initiating the SOSCF procedure ***
                           *** Shutting down KDIIS ***
                      *** Re-Reading the Fockian *** 
                      *** Removing any level shift *** 
ITER      Energy       Delta-E        Grad      Rot      Max-DP    RMS-DP
  4   -156.16187865  -0.0484582079  0.003126  0.003126  0.002300  0.000080
  5   -156.16212997  -0.0002513194  0.000949  0.001108  0.001423  0.000045
  6   -156.16215155  -0.0000215757  0.000438  0.000405  0.000426  0.000016
  7   -156.16215811  -0.0000065630  0.000071  0.000108  0.000255  0.000008
  8   -156.16215833  -0.0000002210  0.000069  0.000149  0.000116  0.000003
  9   -156.16215836  -0.0000000303  0.000017  0.000012  0.000022  0.000001
                 **** Energy Check signals convergence ****
              ***Rediagonalizing the Fockian in SOSCF/NRSCF***

               *****************************************************
               *                     SUCCESS                       *
               *           SCF CONVERGED AFTER  10 CYCLES          *
               *****************************************************


----------------
TOTAL SCF ENERGY
----------------

Total Energy       :         -156.16215837 Eh           -4249.38836 eV

Components:
Nuclear Repulsion  :          118.23953267 Eh            3217.46126 eV
Electronic Energy  :         -274.40169104 Eh           -7466.84962 eV
One Electron Energy:         -443.29723035 Eh          -12062.73090 eV
Two Electron Energy:          168.89553931 Eh            4595.88127 eV

Virial components:
Potential Energy   :         -312.03164821 Eh           -8490.81281 eV
Kinetic Energy     :          155.86948984 Eh            4241.42445 eV
Virial Ratio       :            2.00187765


---------------
SCF CONVERGENCE
---------------

  Last Energy change         ...   -6.6901e-09  Tolerance :   1.0000e-08
  Last MAX-Density change    ...    1.8660e-05  Tolerance :   1.0000e-07
  Last RMS-Density change    ...    3.6650e-07  Tolerance :   5.0000e-09
  Last Orbital Gradient      ...    6.5225e-06  Tolerance :   1.0000e-05
  Last Orbital Rotation      ...    1.7845e-05  Tolerance :   1.0000e-05

             **** THE GBW FILE WAS UPDATED (1_Butene_cis.gbw) ****
             **** DENSITY FILE WAS UPDATED (1_Butene_cis.scfp.tmp) ****
             **** ENERGY FILE WAS UPDATED (1_Butene_cis.en.tmp) ****
----------------
ORBITAL ENERGIES
----------------

  NO   OCC          E(Eh)            E(eV) 
   0   2.0000     -11.232442      -305.6503 
   1   2.0000     -11.229122      -305.5600 
   2   2.0000     -11.216052      -305.2043 
   3   2.0000     -11.215573      -305.1913 
   4   2.0000      -1.076446       -29.2916 
   5   2.0000      -0.981345       -26.7037 
   6   2.0000      -0.868477       -23.6324 
   7   2.0000      -0.735815       -20.0225 
   8   2.0000      -0.643009       -17.4972 
   9   2.0000      -0.608964       -16.5707 
  10   2.0000      -0.584037       -15.8925 
  11   2.0000      -0.541153       -14.7255 
  12   2.0000      -0.497638       -13.5414 
  13   2.0000      -0.491986       -13.3876 
  14   2.0000      -0.474460       -12.9107 
  15   2.0000      -0.356557        -9.7024 
  16   0.0000       0.143176         3.8960 
  17   0.0000       0.165410         4.5010 
  18   0.0000       0.165536         4.5045 
  19   0.0000       0.180664         4.9161 
  20   0.0000       0.204145         5.5551 
  21   0.0000       0.215141         5.8543 
  22   0.0000       0.221883         6.0378 
  23   0.0000       0.238314         6.4848 
  24   0.0000       0.246895         6.7183 
  25   0.0000       0.328677         8.9438 
  26   0.0000       0.346657         9.4330 
  27   0.0000       0.369910        10.0658 
  28   0.0000       0.397407        10.8140 
  29   0.0000       0.403626        10.9832 
  30   0.0000       0.454760        12.3746 
  31   0.0000       0.460125        12.5206 
  32   0.0000       0.488744        13.2994 
  33   0.0000       0.499492        13.5919 
  34   0.0000       0.505604        13.7582 
  35   0.0000       0.575780        15.6678 
  36   0.0000       0.587319        15.9818 
  37   0.0000       0.598017        16.2729 
  38   0.0000       0.601959        16.3801 
  39   0.0000       0.618545        16.8315 
  40   0.0000       0.623155        16.9569 
  41   0.0000       0.639141        17.3919 
  42   0.0000       0.648420        17.6444 
  43   0.0000       0.660734        17.9795 
  44   0.0000       0.669251        18.2113 
  45   0.0000       0.678448        18.4615 
  46   0.0000       0.687126        18.6977 
  47   0.0000       0.749343        20.3907 
  48   0.0000       0.752235        20.4693 
  49   0.0000       0.779721        21.2173 
  50   0.0000       0.822804        22.3896 
  51   0.0000       0.860810        23.4238 
  52   0.0000       0.868110        23.6225 
  53   0.0000       0.883405        24.0387 
  54   0.0000       0.916471        24.9384 
  55   0.0000       0.955502        26.0005 
  56   0.0000       0.962759        26.1980 
  57   0.0000       1.009202        27.4618 
  58   0.0000       1.066640        29.0248 
  59   0.0000       1.127353        30.6768 
  60   0.0000       1.145943        31.1827 
  61   0.0000       1.157635        31.5009 
  62   0.0000       1.164061        31.6757 
  63   0.0000       1.195877        32.5415 
  64   0.0000       1.228452        33.4279 
  65   0.0000       1.234281        33.5865 
  66   0.0000       1.258935        34.2574 
  67   0.0000       1.260603        34.3028 
  68   0.0000       1.297234        35.2995 
  69   0.0000       1.307898        35.5897 
  70   0.0000       1.311851        35.6973 
  71   0.0000       1.358799        36.9748 
  72   0.0000       1.362930        37.0872 
  73   0.0000       1.378186        37.5023 
  74   0.0000       1.407206        38.2920 
  75   0.0000       1.441125        39.2150 
  76   0.0000       1.455297        39.6006 
  77   0.0000       1.458926        39.6994 
  78   0.0000       1.504827        40.9484 
  79   0.0000       1.507346        41.0170 
  80   0.0000       1.510336        41.0983 
  81   0.0000       1.557264        42.3753 
  82   0.0000       1.570063        42.7236 
  83   0.0000       1.580177        42.9988 
  84   0.0000       1.614559        43.9344 
  85   0.0000       1.634010        44.4637 
  86   0.0000       1.680279        45.7227 
  87   0.0000       1.722185        46.8630 
  88   0.0000       1.743537        47.4441 
  89   0.0000       1.744965        47.4829 
  90   0.0000       1.780285        48.4440 
  91   0.0000       1.808210        49.2039 
  92   0.0000       1.818432        49.4821 
  93   0.0000       1.834933        49.9311 
  94   0.0000       2.036887        55.4265 
  95   0.0000       2.115522        57.5663 
  96   0.0000       2.401622        65.3515 
  97   0.0000       2.412750        65.6543 
  98   0.0000       2.514480        68.4225 
  99   0.0000       2.548300        69.3428 
 100   0.0000       2.587974        70.4223 
 101   0.0000       2.593761        70.5798 
 102   0.0000       2.659891        72.3793 
 103   0.0000       2.663484        72.4771 
 104   0.0000       2.723912        74.1214 
 105   0.0000       2.748110        74.7799 
 106   0.0000       2.783092        75.7318 
 107   0.0000       2.819584        76.7248 
 108   0.0000       2.864607        77.9499 
 109   0.0000       2.870817        78.1189 
 110   0.0000       2.872655        78.1689 
 111   0.0000       2.910809        79.2071 
 112   0.0000       2.953714        80.3746 
 113   0.0000       2.985217        81.2319 
 114   0.0000       2.987547        81.2953 
 115   0.0000       3.040609        82.7392 
 116   0.0000       3.046539        82.9005 
 117   0.0000       3.068100        83.4872 
 118   0.0000       3.095334        84.2283 
 119   0.0000       3.132570        85.2416 
 120   0.0000       3.159539        85.9754 
 121   0.0000       3.180186        86.5373 
 122   0.0000       3.183391        86.6245 
 123   0.0000       3.196467        86.9803 
 124   0.0000       3.213311        87.4386 
 125   0.0000       3.239643        88.1552 
 126   0.0000       3.265273        88.8526 
 127   0.0000       3.308304        90.0235 
 128   0.0000       3.315313        90.2142 
 129   0.0000       3.316698        90.2519 
 130   0.0000       3.341847        90.9363 
 131   0.0000       3.351356        91.1950 
 132   0.0000       3.364904        91.5637 
 133   0.0000       3.413592        92.8886 
 134   0.0000       3.444666        93.7341 
 135   0.0000       3.448267        93.8321 
 136   0.0000       3.457786        94.0911 
 137   0.0000       3.465010        94.2877 
 138   0.0000       3.488494        94.9268 
 139   0.0000       3.508837        95.4803 
 140   0.0000       3.527948        96.0004 
 141   0.0000       3.562681        96.9455 
 142   0.0000       3.586192        97.5852 
 143   0.0000       3.611991        98.2873 
 144   0.0000       3.615995        98.3962 
 145   0.0000       3.650508        99.3354 
 146   0.0000       3.704875       100.8148 
 147   0.0000       3.718483       101.1851 
 148   0.0000       3.749017       102.0159 
 149   0.0000       3.796676       103.3128 
 150   0.0000       3.802301       103.4659 
 151   0.0000       3.802994       103.4847 
 152   0.0000       3.831411       104.2580 
 153   0.0000       3.856316       104.9357 
 154   0.0000       3.883451       105.6741 
 155   0.0000       3.912645       106.4685 
 156   0.0000       3.938498       107.1720 
 157   0.0000       3.968597       107.9910 
 158   0.0000       3.994311       108.6907 
 159   0.0000       4.033462       109.7561 
 160   0.0000       4.039548       109.9217 
 161   0.0000       4.056011       110.3697 
 162   0.0000       4.102119       111.6243 
 163   0.0000       4.130959       112.4091 
 164   0.0000       4.139228       112.6341 
 165   0.0000       4.162052       113.2552 
 166   0.0000       4.177324       113.6708 
 167   0.0000       4.191369       114.0529 
 168   0.0000       4.198419       114.2448 
 169   0.0000       4.234244       115.2196 
 170   0.0000       4.277423       116.3946 
 171   0.0000       4.280647       116.4823 
 172   0.0000       4.317469       117.4843 
 173   0.0000       4.321079       117.5825 
 174   0.0000       4.353998       118.4783 
 175   0.0000       4.379147       119.1626 
 176   0.0000       4.398917       119.7006 
 177   0.0000       4.415589       120.1543 
 178   0.0000       4.436967       120.7360 
 179   0.0000       4.464464       121.4842 
 180   0.0000       4.473858       121.7399 
 181   0.0000       4.501257       122.4854 
 182   0.0000       4.516207       122.8922 
 183   0.0000       4.559640       124.0741 
 184   0.0000       4.608917       125.4150 
 185   0.0000       4.609399       125.4281 
 186   0.0000       4.650555       126.5480 
 187   0.0000       4.662136       126.8632 
 188   0.0000       4.676341       127.2497 
 189   0.0000       4.691763       127.6694 
 190   0.0000       4.798965       130.5865 
 191   0.0000       4.812379       130.9515 
 192   0.0000       4.869560       132.5075 
 193   0.0000       4.915476       133.7569 
 194   0.0000       4.964680       135.0958 
 195   0.0000       5.013771       136.4316 
 196   0.0000       5.040237       137.1518 
 197   0.0000       5.077984       138.1790 
 198   0.0000       5.096646       138.6868 
 199   0.0000       5.166914       140.5989 
 200   0.0000       5.189483       141.2130 
 201   0.0000       5.238718       142.5528 
 202   0.0000       5.241545       142.6297 
 203   0.0000       5.311184       144.5247 
 204   0.0000       5.317989       144.7098 
 205   0.0000       5.337878       145.2511 
 206   0.0000       5.371984       146.1791 
 207   0.0000       5.391358       146.7063 
 208   0.0000       5.404570       147.0658 
 209   0.0000       5.482845       149.1958 
 210   0.0000       5.560881       151.3193 
 211   0.0000       5.577584       151.7738 
 212   0.0000       5.610601       152.6722 
 213   0.0000       5.689344       154.8149 
 214   0.0000       5.693029       154.9152 
 215   0.0000       5.707083       155.2976 
 216   0.0000       5.744367       156.3122 
 217   0.0000       5.760643       156.7551 
 218   0.0000       5.847136       159.1087 
 219   0.0000       5.858863       159.4278 
 220   0.0000       5.867261       159.6563 
 221   0.0000       6.108763       166.2279 
 222   0.0000       6.271413       170.6538 
 223   0.0000       6.288399       171.1160 
 224   0.0000       6.322992       172.0574 
 225   0.0000       6.331073       172.2772 
 226   0.0000       6.391730       173.9278 
 227   0.0000       6.651200       180.9884 
 228   0.0000      11.408431       310.4392 
 229   0.0000      13.361543       363.5861 
 230   0.0000      14.030218       381.7817 
 231   0.0000      14.757183       401.5634 

                    ********************************
                    * MULLIKEN POPULATION ANALYSIS *
                    ********************************

-----------------------
MULLIKEN ATOMIC CHARGES
-----------------------
   0 C :   -0.358102
   1 C :   -0.132254
   2 C :   -0.109376
   3 C :   -0.308765
   4 H :    0.148780
   5 H :    0.142602
   6 H :    0.138369
   7 H :    0.105344
   8 H :    0.096856
   9 H :    0.096862
  10 H :    0.089840
  11 H :    0.089844
Sum of atomic charges:    0.0000000

--------------------------------
MULLIKEN REDUCED ORBITAL CHARGES
--------------------------------
  0 C s       :     3.335109  s :     3.335109
      pz      :     1.009319  p :     2.933277
      px      :     0.989047
      py      :     0.934911
      dz2     :     0.007981  d :     0.082935
      dxz     :     0.005288
      dyz     :     0.014428
      dx2y2   :     0.037358
      dxy     :     0.017880
      f0      :     0.001015  f :     0.006781
      f+1     :     0.000660
      f-1     :     0.000566
      f+2     :     0.000204
      f-2     :     0.000702
      f+3     :     0.002247
      f-3     :     0.001388
  1 C s       :     3.233693  s :     3.233693
      pz      :     0.917471  p :     2.784110
      px      :     0.913240
      py      :     0.953399
      dz2     :     0.005930  d :     0.105826
      dxz     :     0.016965
      dyz     :     0.017957
      dx2y2   :     0.032088
      dxy     :     0.032885
      f0      :     0.001226  f :     0.008625
      f+1     :     0.000893
      f-1     :     0.000640
      f+2     :     0.000548
      f-2     :     0.000791
      f+3     :     0.002346
      f-3     :     0.002182
  2 C s       :     3.196514  s :     3.196514
      pz      :     0.977388  p :     2.797306
      px      :     0.860279
      py      :     0.959639
      dz2     :     0.013878  d :     0.109143
      dxz     :     0.016036
      dyz     :     0.033274
      dx2y2   :     0.024939
      dxy     :     0.021016
      f0      :     0.000466  f :     0.006413
      f+1     :     0.000866
      f-1     :     0.001349
      f+2     :     0.000395
      f-2     :     0.000366
      f+3     :     0.001787
      f-3     :     0.001184
  3 C s       :     3.268010  s :     3.268010
      pz      :     1.006929  p :     2.951992
      px      :     1.001036
      py      :     0.944028
      dz2     :     0.014595  d :     0.084017
      dxz     :     0.003293
      dyz     :     0.030015
      dx2y2   :     0.022131
      dxy     :     0.013982
      f0      :     0.000237  f :     0.004745
      f+1     :     0.000553
      f-1     :     0.001452
      f+2     :     0.000182
      f-2     :     0.000318
      f+3     :     0.001211
      f-3     :     0.000793
  4 H s       :     0.824233  s :     0.824233
      pz      :     0.009549  p :     0.024673
      px      :     0.010331
      py      :     0.004792
      dz2     :     0.000161  d :     0.002315
      dxz     :     0.000091
      dyz     :     0.000540
      dx2y2   :     0.000794
      dxy     :     0.000729
  5 H s       :     0.830730  s :     0.830730
      pz      :     0.010626  p :     0.024581
      px      :     0.007708
      py      :     0.006247
      dz2     :     0.000150  d :     0.002086
      dxz     :     0.000662
      dyz     :     0.000015
      dx2y2   :     0.000517
      dxy     :     0.000742
  6 H s       :     0.835215  s :     0.835215
      pz      :     0.010059  p :     0.024277
      px      :     0.008340
      py      :     0.005878
      dz2     :     0.000173  d :     0.002138
      dxz     :     0.000063
      dyz     :     0.000576
      dx2y2   :     0.000610
      dxy     :     0.000716
  7 H s       :     0.865204  s :     0.865204
      pz      :     0.007820  p :     0.027257
      px      :     0.011165
      py      :     0.008272
      dz2     :     0.000208  d :     0.002195
      dxz     :     0.000536
      dyz     :     0.000048
      dx2y2   :     0.000616
      dxy     :     0.000787
  8 H s       :     0.874817  s :     0.874817
      pz      :     0.008442  p :     0.026168
      px      :     0.007505
      py      :     0.010221
      dz2     :     0.000577  d :     0.002158
      dxz     :     0.000393
      dyz     :     0.000651
      dx2y2   :     0.000297
      dxy     :     0.000241
  9 H s       :     0.874812  s :     0.874812
      pz      :     0.008442  p :     0.026168
      px      :     0.007505
      py      :     0.010221
      dz2     :     0.000577  d :     0.002158
      dxz     :     0.000393
      dyz     :     0.000651
      dx2y2   :     0.000297
      dxy     :     0.000240
 10 H s       :     0.878138  s :     0.878138
      pz      :     0.008829  p :     0.029494
      px      :     0.009401
      py      :     0.011264
      dz2     :     0.000619  d :     0.002528
      dxz     :     0.000543
      dyz     :     0.000639
      dx2y2   :     0.000400
      dxy     :     0.000327
 11 H s       :     0.878135  s :     0.878135
      pz      :     0.008829  p :     0.029493
      px      :     0.009401
      py      :     0.011263
      dz2     :     0.000619  d :     0.002528
      dxz     :     0.000543
      dyz     :     0.000639
      dx2y2   :     0.000400
      dxy     :     0.000327


                     *******************************
                     * LOEWDIN POPULATION ANALYSIS *
                     *******************************

----------------------
LOEWDIN ATOMIC CHARGES
----------------------
   0 C :    0.066923
   1 C :    0.024541
   2 C :    0.038222
   3 C :    0.108742
   4 H :   -0.028258
   5 H :   -0.041529
   6 H :   -0.044499
   7 H :   -0.028154
   8 H :   -0.028829
   9 H :   -0.028832
  10 H :   -0.019162
  11 H :   -0.019164

-------------------------------
LOEWDIN REDUCED ORBITAL CHARGES
-------------------------------
  0 C s       :     2.724150  s :     2.724150
      pz      :     0.888826  p :     2.896558
      px      :     0.989656
      py      :     1.018076
      dz2     :     0.019419  d :     0.285202
      dxz     :     0.011331
      dyz     :     0.032244
      dx2y2   :     0.132908
      dxy     :     0.089301
      f0      :     0.000697  f :     0.027166
      f+1     :     0.002386
      f-1     :     0.002849
      f+2     :     0.001019
      f-2     :     0.003625
      f+3     :     0.007548
      f-3     :     0.009042
  1 C s       :     2.719159  s :     2.719159
      pz      :     0.810843  p :     2.800204
      px      :     0.964848
      py      :     1.024513
      dz2     :     0.025282  d :     0.417609
      dxz     :     0.064090
      dyz     :     0.044882
      dx2y2   :     0.136209
      dxy     :     0.147146
      f0      :     0.002333  f :     0.038488
      f+1     :     0.003013
      f-1     :     0.002986
      f+2     :     0.004505
      f-2     :     0.003639
      f+3     :     0.008326
      f-3     :     0.013687
  2 C s       :     2.658696  s :     2.658696
      pz      :     0.972093  p :     2.838206
      px      :     0.928396
      py      :     0.937718
      dz2     :     0.055466  d :     0.424940
      dxz     :     0.060600
      dyz     :     0.107459
      dx2y2   :     0.106657
      dxy     :     0.094758
      f0      :     0.003279  f :     0.039936
      f+1     :     0.005017
      f-1     :     0.005441
      f+2     :     0.004960
      f-2     :     0.005188
      f+3     :     0.006890
      f-3     :     0.009161
  3 C s       :     2.661245  s :     2.661245
      pz      :     0.984787  p :     2.888604
      px      :     0.962803
      py      :     0.941014
      dz2     :     0.052755  d :     0.312409
      dxz     :     0.013957
      dyz     :     0.106728
      dx2y2   :     0.084636
      dxy     :     0.054333
      f0      :     0.001980  f :     0.029000
      f+1     :     0.004160
      f-1     :     0.005172
      f+2     :     0.003187
      f-2     :     0.004007
      f+3     :     0.005094
      f-3     :     0.005399
  4 H s       :     0.847899  s :     0.847899
      pz      :     0.039401  p :     0.153483
      px      :     0.048674
      py      :     0.065408
      dz2     :     0.002366  d :     0.026876
      dxz     :     0.001504
      dyz     :     0.005903
      dx2y2   :     0.008776
      dxy     :     0.008328
  5 H s       :     0.857487  s :     0.857487
      pz      :     0.045084  p :     0.157257
      px      :     0.077757
      py      :     0.034416
      dz2     :     0.002337  d :     0.026785
      dxz     :     0.008030
      dyz     :     0.000040
      dx2y2   :     0.007522
      dxy     :     0.008857
  6 H s       :     0.858887  s :     0.858887
      pz      :     0.044893  p :     0.158705
      px      :     0.046358
      py      :     0.067454
      dz2     :     0.002338  d :     0.026907
      dxz     :     0.001258
      dyz     :     0.006794
      dx2y2   :     0.008589
      dxy     :     0.007928
  7 H s       :     0.848623  s :     0.848623
      pz      :     0.040338  p :     0.151858
      px      :     0.070917
      py      :     0.040602
      dz2     :     0.002282  d :     0.027673
      dxz     :     0.008706
      dyz     :     0.000745
      dx2y2   :     0.007170
      dxy     :     0.008770
  8 H s       :     0.849324  s :     0.849324
      pz      :     0.061345  p :     0.151831
      px      :     0.040491
      py      :     0.049995
      dz2     :     0.008647  d :     0.027674
      dxz     :     0.005499
      dyz     :     0.007197
      dx2y2   :     0.003119
      dxy     :     0.003212
  9 H s       :     0.849325  s :     0.849325
      pz      :     0.061347  p :     0.151832
      px      :     0.040491
      py      :     0.049994
      dz2     :     0.008647  d :     0.027674
      dxz     :     0.005500
      dyz     :     0.007197
      dx2y2   :     0.003119
      dxy     :     0.003212
 10 H s       :     0.838116  s :     0.838116
      pz      :     0.061133  p :     0.153038
      px      :     0.041100
      py      :     0.050806
      dz2     :     0.008690  d :     0.028007
      dxz     :     0.005431
      dyz     :     0.007074
      dx2y2   :     0.003508
      dxy     :     0.003305
 11 H s       :     0.838114  s :     0.838114
      pz      :     0.061139  p :     0.153043
      px      :     0.041102
      py      :     0.050802
      dz2     :     0.008691  d :     0.028008
      dxz     :     0.005432
      dyz     :     0.007075
      dx2y2   :     0.003507
      dxy     :     0.003303


                      *****************************
                      * MAYER POPULATION ANALYSIS *
                      *****************************

  NA   - Mulliken gross atomic population
  ZA   - Total nuclear charge
  QA   - Mulliken gross atomic charge
  VA   - Mayer's total valence
  BVA  - Mayer's bonded valence
  FA   - Mayer's free valence

  ATOM       NA         ZA         QA         VA         BVA        FA
  0 C      6.3581     6.0000    -0.3581     3.8306     3.8306     0.0000
  1 C      6.1323     6.0000    -0.1323     3.7910     3.7910     0.0000
  2 C      6.1094     6.0000    -0.1094     3.8557     3.8557    -0.0000
  3 C      6.3088     6.0000    -0.3088     3.8937     3.8937    -0.0000
  4 H      0.8512     1.0000     0.1488     0.9727     0.9727     0.0000
  5 H      0.8574     1.0000     0.1426     0.9761     0.9761    -0.0000
  6 H      0.8616     1.0000     0.1384     0.9725     0.9725     0.0000
  7 H      0.8947     1.0000     0.1053     0.9801     0.9801     0.0000
  8 H      0.9031     1.0000     0.0969     0.9775     0.9775    -0.0000
  9 H      0.9031     1.0000     0.0969     0.9775     0.9775    -0.0000
 10 H      0.9102     1.0000     0.0898     0.9785     0.9785     0.0000
 11 H      0.9102     1.0000     0.0898     0.9785     0.9785     0.0000

  Mayer bond orders larger than 0.1
B(  0-C ,  1-C ) :   1.8697 B(  0-C ,  5-H ) :   0.9765 B(  0-C ,  6-H ) :   0.9642 
B(  1-C ,  2-C ) :   0.9636 B(  1-C ,  4-H ) :   0.9675 B(  2-C ,  3-C ) :   0.9505 
B(  2-C , 10-H ) :   0.9778 B(  2-C , 11-H ) :   0.9778 B(  3-C ,  7-H ) :   0.9865 
B(  3-C ,  8-H ) :   0.9791 B(  3-C ,  9-H ) :   0.9791 

-------
TIMINGS
-------

Total SCF time: 0 days 0 hours 0 min 5 sec 

Total time                  ....       5.729 sec
Sum of individual times     ....       5.480 sec  ( 95.6%)

Fock matrix formation       ....       5.048 sec  ( 88.1%)
Diagonalization             ....       0.048 sec  (  0.8%)
Density matrix formation    ....       0.010 sec  (  0.2%)
Population analysis         ....       0.049 sec  (  0.8%)
Initial guess               ....       0.208 sec  (  3.6%)
Orbital Transformation      ....       0.000 sec  (  0.0%)
Orbital Orthonormalization  ....       0.000 sec  (  0.0%)
DIIS solution               ....       0.000 sec  (  0.0%)
SOSCF solution              ....       0.050 sec  (  0.9%)


           ************************************************************
           *        Program running with 8 parallel MPI-processes     *
           *              working on a common directory               *
           ************************************************************


------------------------------------------------------------------------------- 
                              ORCA-MATRIX DRIVEN CI                            
------------------------------------------------------------------------------- 


Wavefunction type
-----------------
Correlation treatment                      ...      CCSD     
Single excitations                         ... ON
Orbital optimization                       ... OFF
Calculation of Z vector                    ... OFF
Calculation of Brueckner orbitals          ... OFF
Perturbative triple excitations            ... ON
Calculation of F12 correction              ... OFF
Frozen core treatment                      ... chemical core (8 el)
Reference Wavefunction                     ... RHF
  Internal Orbitals:     4 ...   15 ( 12 MO's/ 24 electrons)
  Virtual  Orbitals:    16 ...  231 (216 MO's              )
Number of AO's                             ...    232
Number of electrons                        ...     32
Number of correlated electrons             ...     24

Algorithmic settings
--------------------
Integral transformation                    ... All integrals via the RI transformation
K(C) Formation                             ... RI-DLPNO
   PNO-Integral Storage                    ... ON DISK
   PNO occupation number cut-off           ... 1.000e-07
   Singles PNO occupation number cut-off   ... 3.000e-09
   PNO Mulliken prescreening cut-off       ... 1.000e-03
   Domain cut-off (Mulliken population)    ... 1.000e-03
   PNO Normalization                       ...    1
Maximum number of iterations               ...        50
Convergence tolerance (max. residuum)      ... 1.000e-05
Level shift for amplitude update           ... 2.000e-01
Maximum number of DIIS vectors             ...         7
DIIS turned on at iteration                ...         0
Damping before turning on DIIS             ...     0.500
Damping after turning on DIIS              ...     0.000
Pair specific amplitude update             ... OFF
Natural orbital iterations                 ... OFF
Perturbative natural orbital generation    ... OFF
Printlevel                                 ... 2

Singles Fock matrix elements calculated using PNOs.

Memory handling:
----------------
Maximum memory for working arrays          ...   8000 MB
Data storage in matrix containers          ... UNCOMPRESSED
Data type for integral storage             ... DOUBLE
In-Core Storage of quantities:
   Amplitudes+Sigma Vector      ... NO
   J+K operators                ... NO
   DIIS vectors                 ... NO
   3-external integrals         ... NO
   4-external integrals         ... NO

Localization treatment:
-----------------------
Localization option                        ...    6
Localization threshhold                    ... -1.0e+00
Using relative localization threshhold     ... 1.0e-08
Neglect threshold for strong pairs         ... 1.000e-05 Eh
Prescreening threshold for very weak pairs ... 1.000e-07 Eh

Initializing the integral package          ... done
Localizing the valence orbitals
------------------------------------------------------------------------------
                           ORCA ORBITAL LOCALIZATION
------------------------------------------------------------------------------

Input orbitals are from                  ... 1_Butene_cis.proc0.gbw
Output orbitals are to                   ... 1_Butene_cis.proc0.loc
Max. number of iterations                ... 128
Localizations seeded randomly            ... off
Convergence tolerance                    ... 1.000e-06
Using relative localization threshhold   ... 1.000e-08
Treshold for strong local MOs            ... 9.500e-01
Treshold for bond MOs                    ... 8.500e-01
Operator                                 ... 0
Orbital range for localization           ... 4 to 15
Localization criterion                   ... FOSTER-BOYS (AUGMENTED HESSIAN)
Doing the dipole integrals     ... o.k.
Initial value of the localization sum :    78.281921
ITERATION   0 : L=  110.5790414908 DL=  3.23e+01 (AVERGE_DL)=    0.6995357775 
ITERATION   1 : L=  113.5181888694 DL=  2.94e+00 (AVERGE_DL)=    0.2110273348 
ITERATION   2 : L=  113.5399115196 DL=  2.17e-02 (AVERGE_DL)=    0.0181419697 
ITERATION   3 : L=  113.5399278865 DL=  1.64e-05 (AVERGE_DL)=    0.0004979792 
ITERATION   4 : L=  113.5399279222 DL=  3.57e-08 (AVERGE_DL)=    0.0000232705 
LOCALIZATION SUM CONVERGED

------------------------------------------------------
AUGMENTED HESSIAN OPTIMIZATION OF FOSTER-BOYS ORBITALS
------------------------------------------------------

Spin operator:           0
Orbital window:          4 to 15
Number of iterations:    128
Gradient tolerance:      1.000e-06
Number of pairs:         66
Davidson threshold:      2000
Diagonalization method:  LAPACK
Iter:    0   L: 113.5399279222   Grad. norm: 3.911687e-04
   *** Likely close to a maximum now. ***
       Augmented Hessian eigenvalues:  2.05e-09 -5.59e+00 -1.69e+01 -1.71e+01 ... 
Iter:    1   L: 113.5399279233   Grad. norm: 1.457806e-10
LOCALIZATION HAS CONVERGED.

Eigenvalues of the Hessian:
  0 -5.585e+00
  1 -1.689e+01
  2 -1.709e+01
  3 -1.788e+01
  4 -1.813e+01
  5 -1.840e+01
  6 -1.845e+01
  7 -1.906e+01
  8 -1.952e+01
  9 -1.965e+01
    ...


------------------------------------------------------------------------------- 
                    LOCALIZED MOLECULAR ORBITAL COMPOSITIONS                   
------------------------------------------------------------------------------- 

The Mulliken populations for each LMO on each atom are computed
The LMO`s will be ordered according to atom index and type
  (A) Strongly localized MO`s have populations of >=0.950 on one atom
  (B) Two center bond orbitals have populations of >=0.850 on two atoms
  (C) Other MO`s are considered to be `delocalized`

FOUND  -   0 strongly local MO`s
       -  12 two center bond MO`s
       -   0 significantly delocalized MO`s

Bond-like localized orbitals:
MO  15:  11H  -   0.475753  and   2C  -   0.550785
MO  14:  10H  -   0.475754  and   2C  -   0.550789
MO  13:   9H  -   0.472167  and   3C  -   0.555329
MO  12:   8H  -   0.472171  and   3C  -   0.555325
MO  11:   7H  -   0.465982  and   3C  -   0.560793
MO  10:   6H  -   0.447221  and   0C  -   0.577072
MO   9:   5H  -   0.442180  and   0C  -   0.587553
MO   8:   4H  -   0.439508  and   1C  -   0.585464
MO   7:   3C  -   0.505371  and   2C  -   0.522539
MO   6:   2C  -   0.485836  and   1C  -   0.548193
MO   5:   1C  -   0.497170  and   0C  -   0.518599
MO   4:   1C  -   0.497162  and   0C  -   0.518603
Localized MO's were stored in: 1_Butene_cis.proc0.loc

Localizing the core orbitals
------------------------------------------------------------------------------
                           ORCA ORBITAL LOCALIZATION
------------------------------------------------------------------------------

Input orbitals are from                  ... 1_Butene_cis.proc0.loc
Output orbitals are to                   ... 1_Butene_cis.proc0.loc
Max. number of iterations                ... 128
Localizations seeded randomly            ... off
Convergence tolerance                    ... 1.000e-06
Using relative localization threshhold   ... 1.000e-08
Treshold for strong local MOs            ... 9.500e-01
Treshold for bond MOs                    ... 8.500e-01
Operator                                 ... 0
Orbital range for localization           ... 0 to 3
Localization criterion                   ... FOSTER-BOYS (AUGMENTED HESSIAN)
Doing the dipole integrals     ... o.k.
Initial value of the localization sum :    25.567575
ITERATION   0 : L=   25.5675791619 DL=  3.98e-06 (AVERGE_DL)=    0.0008145963 
ITERATION   1 : L=   25.5675791619 DL=  0.00e+00 (AVERGE_DL)=    0.0000000000 
LOCALIZATION SUM CONVERGED

------------------------------------------------------
AUGMENTED HESSIAN OPTIMIZATION OF FOSTER-BOYS ORBITALS
------------------------------------------------------

Spin operator:           0
Orbital window:          0 to 3
Number of iterations:    128
Gradient tolerance:      1.000e-06
Number of pairs:         6
Davidson threshold:      2000
Diagonalization method:  LAPACK
Iter:    0   L: 25.5675791619   Grad. norm: 1.526033e-06
   *** Likely close to a maximum now. ***
       Augmented Hessian eigenvalues:  1.99e-14 -2.55e+01 -3.25e+01 -3.35e+01 ... 
Iter:    1   L: 25.5675791619   Grad. norm: 8.756883e-21
LOCALIZATION HAS CONVERGED.

Eigenvalues of the Hessian:
  0 -2.554e+01
  1 -3.249e+01
  2 -3.346e+01
  3 -9.263e+01
  4 -9.496e+01
  5 -1.286e+02


------------------------------------------------------------------------------- 
                    LOCALIZED MOLECULAR ORBITAL COMPOSITIONS                   
------------------------------------------------------------------------------- 

The Mulliken populations for each LMO on each atom are computed
The LMO`s will be ordered according to atom index and type
  (A) Strongly localized MO`s have populations of >=0.950 on one atom
  (B) Two center bond orbitals have populations of >=0.850 on two atoms
  (C) Other MO`s are considered to be `delocalized`

FOUND  -   4 strongly local MO`s
       -   0 two center bond MO`s
       -   0 significantly delocalized MO`s

Rather strongly localized orbitals:
MO   3:   3C  -   1.001270
MO   2:   2C  -   1.001393
MO   1:   1C  -   1.000854
MO   0:   0C  -   1.000728
Localized MO's were stored in: 1_Butene_cis.proc0.loc

Warning: internal orbitals are localized - no re-canonicalization of internal orbitals

--------------------------
CLOSED-SHELL FOCK OPERATOR
--------------------------

RI-JK section for the Fock operator:
  RHF full Fock operator         ... done
  RHF frozen core Fock operator  ... done
Time needed for Fock operator              ...            1.051 sec
Reference energy                           ...   -156.162158367

--------------
DLPNO SETTINGS (2015 fully linear scaling implementation)
--------------

TCutMKN:           1.000e-03
TCutPAO:           1.000e-03
TCutPNO:           1.000e-07
TCutPNOSingles:    3.000e-09
TCutEN:            9.700e-01
TCutPAOExt:        1.000e-01
TCutPairs:         1.000e-05
TCutPre:           1.000e-07
TCutOSV:           1.000e-06
TCutDOij:          1.000e-05
TCutDO:            5.000e-03
TCutC:             1.000e-04
TCutCPAO:          1.000e-03
TCutCMO:           1.000e-03
TScaleDOMP2PreScr: 2.000e+00
TScaleMKNMP2PreScr:1.000e+01
TScalePNOMP2PreScr:1.000e+00
PAO overlap thresh 1.000e-08
Using PNOs for Singles Fock computation
Use new domains
Use fully linear algorithm
TCutTNO:           1.000e-09
TCutMP2Pairs:      1.000e-06
TCutDOStrong:      2.000e-03
TCutMKNStrong:     1.000e-02
TCutMKNWeak:       1.000e-01
TCutDOWeak:        4.000e-03
NTCutTNO:          1

--------------------------
Calculating differential overlap integrals ... ok
--------------------------
ELECTRON PAIR PRESCREENING
--------------------------

Dipole-based pair screening          .... used

   TCutDOij = 1.000000e-05
   TCutPre  = 1.000000e-07
   .... Finished loop over pairs
Total time spent in the prescreening                  ...     0.000 sec
sum of pair energies estimated for screened out pairs ...       0.000000000000 Eh
Thresholds for map construction and integral transformation for crude MP2:
   TCutMKN                    ...     1.0e-02
   TCutDO                     ...     1.0e-02
   TCutPairs                  ...     1.0e-05
   TCutPNO_CrudeMP2           ...     1.0e-07
   TCutPNOSingles_CrudeMP2    ...     3.0e-09
--------------------------------
LOCAL RI TRANSFORMATION (IAVPAO)
--------------------------------

Orbital window:       4 to 15
Number of PAOs:     232
Basis functions:    232 (88 shells)
Aux. functions:     564 (172 shells)

Processing maps (0.0 sec)
Average map sizes:
   Aux shells -> MOs              12.0
   Aux shells -> PAOs            232.0
   MOs        -> AO shells        88.0
   PAOs       -> AO shells        88.0

Calculating integrals (0.5 sec, 11.986 MB)
Sorting integrals (0.0 sec, 11.980 MB)
Total time for the integral transformation: 0.5 sec
--------------------------------
INITIAL GUESS AND PNO GENERATION
--------------------------------

PNO truncation parameters                   .... 
    PAOOverlapThresh   =        1.000e-08

    TCutPairs          =        1.000e-05
    TCutPNO            =        1.000e-07
    TCutPNOSingles     =        3.000e-09
    TCutMP2Pairs       =        1.000e-06
    TCutMKN            =        1.000e-02
    TCutDO             =        1.000e-02

Pair selection                          .... not used
Type of local MP2 treatment                 .... semi-local MP2
Strategy for PNO selection                  .... occupation number selection
Pair density normalization                  .... MP2 norm
Spin component scaling                      .... not used

   .... Finished loop over pairs
Making pair pair interaction lists          ... done

                       ===========================
                         78 OF   78 PAIRS ARE KEPT CCSD PAIRS
                          0 OF   78 PAIRS ARE KEPT MP2 PAIRS FOR (T)
                          0 OF   78 PAIRS ARE SKIPPED
                       ===========================

Total time spent in the initial guess                 ...     0.417 sec
SL-MP2 correlation energy (all non-screened pairs)    ...      -0.665415957017 Eh

Initial PNO correlation energy                        ...      -0.664920458518 Eh
sum of pair energies prescreened and skipped MP2 pairs...       0.000000000000 Eh
sum of pair energies of crude MP2 skipped pairs only  ...       0.000000000000 Eh
sum of MP2 pair energies for pairs that were not kept ...       0.000000000000 Eh
sum of PNO error estimates for the kept pairs         ...      -0.000495498499 Eh
                                                          --------------------
sum of all corrections                                         -0.000495498499
Initial total correlation energy                               -0.665415957017
Thresholds for map construction and integral transformation for fine MP2 and CCSD(T) calculation:
   TCutMKN   ...     1.0e-03
   TCutDO    ...     5.0e-03
   TCutPairs ...     1.0e-05
   TCutCMO   ...     1.0e-03
   TCutCPAO  ...     1.0e-03

Thresholds for map construction and integral transformation for strong Triples:
   TCutMKN   ...     1.0e-02
   TCutDO    ...     1.0e-02
   TCutCMO   ...     1.0e-03
   TCutCPAO  ...     1.0e-03

Thresholds for map construction and integral transformation for weak Triples:
   TCutMKN   ...     1.0e-01
   TCutDO    ...     2.0e-02
   TCutCMO   ...     1.0e-03
   TCutCPAO  ...     1.0e-03

--------------------------------
LOCAL RI TRANSFORMATION (IAVPAO)
--------------------------------

Orbital window:       4 to 15
Number of PAOs:     232
Basis functions:    232 (88 shells)
Aux. functions:     564 (172 shells)

Processing maps (0.0 sec)
Average map sizes:
   Aux shells -> MOs              12.0
   Aux shells -> PAOs            232.0
   MOs        -> AO shells        88.0
   PAOs       -> AO shells        88.0

Calculating integrals (0.5 sec, 11.986 MB)
Sorting integrals (0.0 sec, 11.980 MB)
Total time for the integral transformation: 0.5 sec
--------------------------------
INITIAL GUESS AND PNO GENERATION
--------------------------------

PNO truncation parameters                   .... 
    ScaleTCutPNO       =        1.000e-02
    PAOOverlapThresh   =        1.000e-08

    TCutPairs          =        1.000e-05
    TCutPNO            =        1.000e-07
    TCutPNOSingles     =        3.000e-09
    TCutMP2Pairs       =        1.000e-06
    TCutMKN            =        1.000e-03
    TCutDO             =        5.000e-03

Pair selection                          .... not used
Type of local MP2 treatment                 .... full local PMP2
Strategy for PNO selection                  .... occupation number selection
Pair density normalization                  .... MP2 norm
Spin component scaling                      .... not used

PASS-1: Formation of initial guess LMP2 amplitudes
Initial amplitudes guess done. Entering LMP2 iteration loop:
   Max. no of iterations          ...  50
   Energy convergence tolerance   ...    1.0e-07
   Residual convergence tolerance ...    5.0e-07
   Fock matrix cutoff             ...    1.0e-05 Eh
   DIIS convergence acceleration parameters:
        Max # vectors in DIIS     ... 7
        Start iteration of DIIS   ... 0
        Levelshift                ... 2.000e-01
        Damping factor 1          ... 5.000e-01
        Damping factor 2          ... 1.000e+00
   L-MP2 PNO cut-off              ...   1.0e-09
   L-MP2 PNO cut-off (core)       ...   1.0e-11
                           *** Turning on DIIS ***
LMP2-Iter=   0:  ELMP2= -0.676795846829  DE=   1.1e-02 RMAX=   1.6e-02
LMP2-Iter=   1:  ELMP2= -0.683354212791  DE=   6.6e-03 RMAX=   6.6e-03
LMP2-Iter=   2:  ELMP2= -0.684563049431  DE=   1.2e-03 RMAX=   2.5e-03
LMP2-Iter=   3:  ELMP2= -0.684689152178  DE=   1.3e-04 RMAX=   7.3e-04
LMP2-Iter=   4:  ELMP2= -0.684674801444  DE=   1.4e-05 RMAX=   1.7e-04
LMP2-Iter=   5:  ELMP2= -0.684672308791  DE=   2.5e-06 RMAX=   3.3e-05
LMP2-Iter=   6:  ELMP2= -0.684672150697  DE=   1.6e-07 RMAX=   4.5e-06
LMP2-Iter=   7:  ELMP2= -0.684672237479  DE=   8.7e-08 RMAX=   5.5e-07
LMP2-Iter=   8:  ELMP2= -0.684672250976  DE=   1.3e-08 RMAX=   7.3e-08 => CONVERGED
PASS-2: Formation of Pair natural orbitals
   .... Finished loop over pairs

 PNO Occupation Number Statistics: 
  | Av. % of trace(Dij) retained        ...  99.786814371314
  | sigma^2 in % of trace(Dij) retained ...   7.53e-02
  | Av. % of trace(Di) retained         ...  99.999771951432
  | sigma^2 in % of trace(Di) retained  ...   4.50e-09
 Distributions of % trace(Dij) recovered:
  |       >= 99.9  ...    35 ( 44.9 % of all pairs)
  |   [90.0, 99.0) ...     3 (  3.8 % of all pairs)
  |   [99.0, 99.9) ...    40 ( 51.3 % of all pairs)
 Distributions of % trace(Di) recovered :
  |       >= 99.9  ...    12 (100.0 % of all I-pairs )

Making pair pair interaction lists          ... done

                       ===========================
                         78 OF   78 PAIRS ARE KEPT
                       ===========================

Total time spent in the initial guess                 ...     3.617 sec
L-MP2 correlation energy (all non-screened pairs)     ...      -0.684672250976 Eh
L-MP2 PNO error correction                            ...      -0.000007987310 Eh
                                                          --------------------
Initial total L-MP2 energy (non-screened pairs)       ...      -0.684680238286 Eh

Initial PNO correlation energy                        ...      -0.684197152444 Eh
sum of pair energies estimated for screened out pairs ...       0.000000000000 Eh
sum of MP2 pair energies for pairs that were not kept ...       0.000000000000 Eh
sum of PNO error estimates for the kept pairs         ...      -0.000483085842 Eh
                                                          --------------------
sum of all corrections                                         -0.000483085842
Initial total correlation energy                               -0.684680238286
Thresholds for map construction and integral transformation for fine MP2 and CCSD(T) calculation:
   TCutMKN   ...     1.0e-03
   TCutDO    ...     5.0e-03
   TCutPairs ...     1.0e-05
   TCutCMO   ...     1.0e-03
   TCutCPAO  ...     1.0e-03

Time for aux screen maps:            0.002
Time for maps after fine MP2:            0.006
-----------------------------
LOCAL RI TRANSFORMATION (IJV)
-----------------------------

Orbital window:       4 to 15
Basis functions:    232 (88 shells)
Aux. functions:     564 (172 shells)

Processing maps (0.0 sec)
Average map sizes:
   Aux shells -> MOs(i)           12.0
   Aux shells -> MOs(j)           12.0
   MOs        -> AO shells        88.0

Calculating integrals (0.5 sec, 0.626 MB)
Sorting integrals (0.0 sec, 0.620 MB)
Total time for the integral transformation: 0.5 sec
--------------------------------
LOCAL RI TRANSFORMATION (VABPAO)
--------------------------------

Number of PAOs:     232
Basis functions:    232 (88 shells)
Aux. functions:     564 (172 shells)

Processing maps (0.0 sec)
Average map sizes:
   Aux shells -> PAOs            232.0
   PAOs       -> AO shells        88.0

Calculating integrals (0.9 sec, 436.938 MB)
Finished


-------------------------------------
Pair Pair Term precalculation with     
RI-(ij|mn) and (im|jn) transformation  
ON THE FLY                             
-------------------------------------

   IBatch   1 (of   1)              ... done (   22.277 sec)
Total EXT                           ...          22.277 sec

---------------------
RI-PNO TRANSFORMATION
---------------------

Total Number of PNOs                   ...  3962
Average number of PNOs per pair        ...    50
Maximal number of PNOs per pair        ...    75
   #pairs with  1 -  5 PNOs   :    0
   #pairs with  6 - 10 PNOs   :    0
   #pairs with 11 - 15 PNOs   :    0
   #pairs with 16 - 20 PNOs   :    3
   #pairs with 21 - 25 PNOs   :    0
   #pairs with 26 - 30 PNOs   :    7
   #pairs with 31 - 35 PNOs   :    9
   #pairs with 36 - 40 PNOs   :    2
   #pairs with 41 - 45 PNOs   :    0
   #pairs with 46 - 50 PNOs   :   14
   #pairs with 51 - 55 PNOs   :   12
   #pairs with 56 - 60 PNOs   :    5
   #pairs with 61 - 65 PNOs   :   10
   #pairs with 66 - 70 PNOs   :   13
   #pairs with 71 - 75 PNOs   :    3

Generation of (ij|ab)[P] integrals            ... on
Generation of (ia|bc)[P],(ja|bc)[P] integrals ... on
Storage of 3 and 4 external integrals         ... on
Generation of ALL (ka|bc)[P] integrals        ... on
Keep RI integrals in memory                   ... off

Ibatch:  1 (of  1)
Starting 2-4 index PNO integral generation ... done

Timings:
Total PNO integral transformation time     ...          9.640 sec
Size of the 3-external file                ...        97 MB
Size of the 4-external file                ...       744 MB
Size of the IKJL file                      ...         0 MB
Size of the all 3-external file            ...       585 MB
Size of the 1-external file                ...         1 MB

Making pair/pair overlap matrices          ... done (    0.372 sec)
Size of the pair overlap file              ... 96 MB
Redoing the guess amplitudes               ... done (    0.004 sec)

-------------------------
FINAL STARTUP INFORMATION
-------------------------

E(0)                                       ...   -156.162158367
E(L-MP2)                                   ...     -0.684680238
E(L-MP2) including corrections             ...     -0.684680238
Initial E(tot)                             ...   -156.846838606
<T|T>                                      ...      0.202606242
Number of pairs included                   ... 78
Total number of pairs                      ... 78

------------------------------------------------
                  RHF COUPLED CLUSTER ITERATIONS
------------------------------------------------

Number of PNO amplitudes to be optimized   ...       217504
Number of non-PNO amplitudes               ...      3639168
Untruncated number of regular amplitudes   ...      3639168

Iter       E(tot)           E(Corr)          Delta-E          Residual     Time
  0   -156.827585683     -0.664944230      0.019736008      0.017068497   13.75
                           *** Turning on DIIS ***
  1   -156.865528068     -0.702886615     -0.037942385      0.011639046   14.01
  2   -156.885707383     -0.723065930     -0.020179315      0.006786756   14.13
  3   -156.889810042     -0.727168589     -0.004102659      0.003644395   13.70
  4   -156.890929145     -0.728287692     -0.001119103      0.001889632   13.63
  5   -156.891277133     -0.728635680     -0.000347987      0.000669696   17.56
  6   -156.891363076     -0.728721622     -0.000085943      0.000187537   13.33
  7   -156.891369025     -0.728727572     -0.000005949      0.000035801   13.38
  8   -156.891367196     -0.728725742      0.000001829      0.000020901   13.34
  9   -156.891366150     -0.728724697      0.000001045      0.000011660   13.29
 10   -156.891365967     -0.728724514      0.000000183      0.000005797   13.13
               --- The Coupled-Cluster iterations have converged ---

----------------------
COUPLED CLUSTER ENERGY
----------------------

E(0)                                       ...   -156.162158367
E(CORR)(strong-pairs)                      ...     -0.728724514
E(CORR)(weak-pairs)                        ...     -0.000483086
E(CORR)(corrected)                         ...     -0.729207600
E(TOT)                                     ...   -156.891365967
Singles Norm <S|S>**1/2                    ...      0.046542942  
T1 diagnostic                              ...      0.009500538  

------------------
LARGEST AMPLITUDES
------------------
   4-> 16   4-> 16       0.061050
   5-> 16   5-> 16       0.061047
   5-> 16   4-> 16       0.054695
  10-> 23  10-> 23       0.032115
  14-> 23  14-> 23       0.029933
  15-> 23  15-> 23       0.029931
  12-> 16  12-> 16       0.027332
  13-> 16  13-> 16       0.027331
   9-> 23   9-> 23       0.026772
  11-> 16  11-> 16       0.026639
  14-> 16  14-> 16       0.026476
  15-> 16  15-> 16       0.026474
  10-> 17  10-> 17       0.026450
   4-> 16   4-> 25       0.025563
   4-> 25   4-> 16       0.025563
   5-> 25   5-> 16       0.025560


-------------------------------------------
DLPNO BASED TRIPLES CORRECTION
-------------------------------------------

Singles multiplier          ...  1.000000
TCutTNO                     ... 1.000e-09
TCutMP2Pairs                ... 1.000e-06
TCutDOStrong                ... 1.000e-02
TCutMKNStrong               ... 1.000e-02
TCutDOWeak                  ... 2.000e-02
TCutMKNWeak                 ... 1.000e-01

Fragment selection                          .... not used
Number of Triples that are to be computed   ...       352

 . . . . . . . . .
10% done  
20% done  
30% done  
40% done  
50% done  
60% done  
70% done  
80% done  
90% done               (     27.132 sec)
Triples timings:
Total time for T0               ...    28.366 sec
Total time for Iterative (T)    ...     0.000 sec
Total time of overall (T)       ...    28.366 sec

Triples List generation         ...     0.000 sec
TNO generation                  ...     1.229 sec
Pair density generation         ...     0.003 sec
Look up tables                  ...     0.000 sec
Generating 3-index integrals    ...    12.835 sec
  Make 4-ind.int. from 3-ind.int...     5.669 sec
  Projecting amplitudes (D + S) ...     1.272 sec
  Downprojecting integrals      ...     0.001 sec
  Energy contr. (sum over a,b,c)...     1.859 sec
Fitting ET(->0)                 ...     0.000 sec

Everything after 3-index        ...    14.296 sec

Timing details:
 TNO integrals                  ...    17.636 sec
   Reading 3-index integrals    ...     0.122 sec
   Sorting integrals            ...     3.482 sec
       Sorting integrals 1      ...     0.000 sec
       Sorting integrals 2      ...     0.842 sec
       Sorting integrals 3      ...     0.261 sec
       Sorting integrals 4      ...     0.006 sec
       Sorting integrals 5      ...     0.019 sec
       Sorting integrals 6      ...     2.354 sec
   Calculating local VM**-1/2   ...     0.068 sec
   Orthogonal. integrals        ...     0.169 sec
   Multipl. 3-index integrals   ...    13.795 sec
   All concerning IRIab (w/TNO) ...     2.926 sec

 Calculate W0/W1                ...     5.487 sec
 W 3-ext contribution           ...     2.965 sec
 W 3-int contribution           ...     0.709 sec
 Sorting W                      ...     1.727 sec

 V exchange contribution        ...     0.630 sec

 Timings for Triples without generation
     of 3-index integrals       ...    14.295 sec
       0 weak pairs             ...    14.295 sec
       1 weak pair              ...     0.000 sec
       2 weak pairs             ...     0.000 sec
       3 weak pairs             ...     0.000 sec
  Extra time for extrapolation  ...     0.000 sec

Number of Triples   (0, 1, 2, 3 weak pairs; overall):    352       0       0       0  (   352)
Number of Atoms     (0, 1, 2, 3 weak pairs; overall):   11.9     0.0     0.0     0.0  (    12)
Number of PAOs      (0, 1, 2, 3 weak pairs; overall):  230.6     0.0     0.0     0.0  (   232)
Number of AuxFcns   (0, 1, 2, 3 weak pairs; overall):  331.9     0.0     0.0     0.0  (   564)
Number of TNOs      (0, 1, 2, 3 weak pairs         ):  108.9     0.0     0.0     0.0
Aver. Number of NTNO, Atoms, PAOs, AuxFcns / Triples:    352   108.9    11.9   230.6   331.9

Triples Correction (T)                     ...     -0.029171614
Final correlation energy                   ...     -0.758379214
E(CCSD)                                    ...   -156.891365967
E(CCSD(T))                                 ...   -156.920537581


Maximum memory used throughout the entire calculation: 2531.9 MB


------------------------------------------------------------------------------- 
                                     TIMINGS                                   
------------------------------------------------------------------------------- 


Total execution time                   ...      223.291 sec

Localization of occupied MO's          ...        0.536 sec (  0.2%)
Fock Matrix Formation                  ...        1.051 sec (  0.5%)
Global overlap, Fock, MKN matrices     ...        0.258 sec (  0.1%)
Differential overlap integrals         ...        0.059 sec (  0.0%)
Organizing maps                        ...        0.016 sec (  0.0%)
RI 3-index integral generations        ...        2.436 sec (  1.1%)
RI-PNO integral transformation         ...       32.805 sec ( 14.7%)
Initial Guess                          ...        4.059 sec (  1.8%)
DIIS Solver                            ...        0.826 sec (  0.4%)
State Vector Update                    ...        0.027 sec (  0.0%)
Sigma-vector construction              ...      153.040 sec ( 68.5%)
  <0|H|D>                              ...        0.002 sec (  0.0% of sigma)
  <D|H|D>(0-ext)                       ...        0.884 sec (  0.6% of sigma)
  <D|H|D>(2-ext Fock)                  ...        0.015 sec (  0.0% of sigma)
  <D|H|D>(2-ext)                       ...        3.030 sec (  2.0% of sigma)
  <D|H|D>(4-ext)                       ...       24.138 sec ( 15.8% of sigma)
  <D|H|D>(4-ext-corr)                  ...      115.117 sec ( 75.2% of sigma)
  CCSD doubles correction              ...        0.111 sec (  0.1% of sigma)
  <S|H|S>                              ...        0.331 sec (  0.2% of sigma)
  <S|H|D>(1-ext)                       ...        0.109 sec (  0.1% of sigma)
  <D|H|S>(1-ext)                       ...        0.006 sec (  0.0% of sigma)
  <S|H|D>(3-ext)                       ...        0.431 sec (  0.3% of sigma)
  Fock-dressing                        ...        6.919 sec (  4.5% of sigma)
  Singles amplitudes                   ...        0.162 sec (  0.1% of sigma)
  (ik|jl)-dressing                     ...        0.533 sec (  0.3% of sigma)
  (ij|ab),(ia|jb)-dressing             ...        1.115 sec (  0.7% of sigma)
  Pair energies                        ...        0.009 sec (  0.0% of sigma)
Total Time for computing (T)           ...       28.393 sec ( 12.7% of ALL)


-------------------------   --------------------
FINAL SINGLE POINT ENERGY      -156.920537580869
-------------------------   --------------------


                            ***************************************
                            *     ORCA property calculations      *
                            ***************************************

                                    ---------------------
                                    Active property flags
                                    ---------------------
   (+) Dipole Moment


------------------------------------------------------------------------------
                       ORCA ELECTRIC PROPERTIES CALCULATION
------------------------------------------------------------------------------

Dipole Moment Calculation                       ... on
Quadrupole Moment Calculation                   ... off
Polarizability Calculation                      ... off
GBWName                                         ... 1_Butene_cis.gbw
Electron density file                           ... 1_Butene_cis.scfp.tmp
The origin for moment calculation is the CENTER OF MASS  = (-0.059198,  0.023817  0.000002)

-------------
DIPOLE MOMENT
-------------
                                X             Y             Z
Electronic contribution:     -1.75047       0.87088       0.00004
Nuclear contribution   :      1.89435      -0.76214      -0.00006
                        -----------------------------------------
Total Dipole Moment    :      0.14388       0.10873      -0.00003
                        -----------------------------------------
Magnitude (a.u.)       :      0.18034
Magnitude (Debye)      :      0.45839



--------------------
Rotational spectrum 
--------------------
 
Rotational constants in cm-1:     0.513916     0.182608     0.141789 
Rotational constants in MHz : 15406.808857  5474.458496  4250.720181 

 Dipole components along the rotational axes: 
x,y,z [a.u.] :    -0.144470     0.107943    -0.000026 
x,y,z [Debye]:    -0.367213     0.274368    -0.000067 

 

Timings for individual modules:

Sum of individual times         ...      236.440 sec (=   3.941 min)
GTO integral calculation        ...        7.033 sec (=   0.117 min)   3.0 %
SCF iterations                  ...        5.868 sec (=   0.098 min)   2.5 %
MDCI module                     ...      223.539 sec (=   3.726 min)  94.5 %
                             ****ORCA TERMINATED NORMALLY****
TOTAL RUN TIME: 0 days 0 hours 3 minutes 56 seconds 737 msec
1_Butene_cis.gbw -> /home1/pantazis/klk/xyz_1/hydrocarbons_xyz/1_Butene_cis.gbw
1_Butene_cis.job -> /home1/pantazis/klk/xyz_1/hydrocarbons_xyz/1_Butene_cis.job
1_Butene_cis.loc -> /home1/pantazis/klk/xyz_1/hydrocarbons_xyz/1_Butene_cis.loc
1_Butene_cis.nodes -> /home1/pantazis/klk/xyz_1/hydrocarbons_xyz/1_Butene_cis.nodes
1_Butene_cis.prop -> /home1/pantazis/klk/xyz_1/hydrocarbons_xyz/1_Butene_cis.prop
1_Butene_cis_property.txt -> /home1/pantazis/klk/xyz_1/hydrocarbons_xyz/1_Butene_cis_property.txt
1_Butene_cis.xyz -> /home1/pantazis/klk/xyz_1/hydrocarbons_xyz/1_Butene_cis.xyz
cp: cannot stat 1_Butene_cis.asa.inp: No such file or directory
