! Job execution by suborca V 6.07 on ZEUS !
Job started from zeus1, running /scratch/pantazis/2_butanone_skew__50IvWf/orca/orca copied from /opt/orca on zeussn119 in /scratch/pantazis/2_butanone_skew__50IvWf
Job execution start: Thu Jun 27 13:11:19 CEST 2019
Shared library path: /scratch/pantazis/2_butanone_skew__50IvWf/orca:/opt/openmpi_1.10.2/lib:/opt/intel/mkl/lib/intel64:/opt/intel/lib/intel64:
PBS Job ID is: 158107.icqc
izeussn119
izeussn119
izeussn119
izeussn119
izeussn119
izeussn119
izeussn119
izeussn119

                                 *****************
                                 * O   R   C   A *
                                 *****************

           --- An Ab Initio, DFT and Semiempirical electronic structure package ---

                  #######################################################
                  #                        -***-                        #
                  #          Department of theory and spectroscopy      #
                  #               Directorship: Frank Neese             #
                  #        Max Planck Institute fuer Kohlenforschung    #
                  #                Kaiser Wilhelm Platz 1               #
                  #                 D-45470 Muelheim/Ruhr               #
                  #                      Germany                        #
                  #                                                     #
                  #                  All rights reserved                #
                  #                        -***-                        #
                  #######################################################


                         Program Version 4.1.x  -  STABLE  -
                                (SVN: $Rev: 14094$)
                ($Date: 2019-06-14 15:01:15 +0200 (Fri, 14 Jun 2019) $)

                         (BUILD: $Sun Jun 23 06:18:31 CEST 2019$)


 With contributions from (in alphabetic order):
   Daniel Aravena         : Magnetic Properties
   Michael Atanasov       : Ab Initio Ligand Field Theory
   Alexander A. Auer      : GIAO ZORA
   Ute Becker             : Parallelization
   Giovanni Bistoni       : ED, Open-shell LED
   Martin Brehm           : Molecular dynamics
   Dmytro Bykov           : SCF Hessian
   Vijay G. Chilkuri      : MRCI spin determinant printing
   Dipayan Datta          : RHF DLPNO-CCSD density
   Achintya Kumar Dutta   : EOM-CC, STEOM-CC
   Dmitry Ganyushin       : Spin-Orbit,Spin-Spin,Magnetic field MRCI
   Miquel Garcia          : C-PCM Hessian
   Yang Guo               : DLPNO-NEVPT2, CIM, IAO-localization
   Andreas Hansen         : Spin unrestricted coupled pair/coupled cluster methods
   Benjamin Helmich-Paris : CASSCF linear response (MC-RPA)
   Lee Huntington         : MR-EOM, pCC
   Robert Izsak           : Overlap fitted RIJCOSX, COSX-SCS-MP3, EOM
   Christian Kollmar      : KDIIS, OOCD, Brueckner-CCSD(T), CCSD density
   Simone Kossmann        : Meta GGA functionals, TD-DFT gradient, OOMP2, MP2 Hessian
   Martin Krupicka        : AUTO-CI
   Lucas Lang             : DCDCAS
   Dagmar Lenk            : GEPOL surface, SMD
   Dimitrios Liakos       : Extrapolation schemes; parallel MDCI
   Dimitrios Manganas     : ROCIS; embedding schemes
   Dimitrios Pantazis     : SARC Basis sets
   Taras Petrenko         : DFT Hessian,TD-DFT gradient, ASA, ECA, R-Raman, ABS, FL, XAS/XES, NRVS
   Peter Pinski           : DLPNO-MP2, DLPNO-MP2 Gradient
   Christoph Reimann      : Effective Core Potentials
   Marius Retegan         : Local ZFS, SOC
   Christoph Riplinger    : Optimizer, TS searches, QM/MM, DLPNO-CCSD(T), (RO)-DLPNO pert. Triples
   Tobias Risthaus        : Range-separated hybrids, TD-DFT gradient, RPA, STAB
   Michael Roemelt        : Restricted open shell CIS
   Masaaki Saitow         : Open-shell DLPNO
   Barbara Sandhoefer     : DKH picture change effects
   Avijit Sen             : IP-ROCIS
   Kantharuban Sivalingam : CASSCF convergence, NEVPT2, FIC-MRCI
   Bernardo de Souza      : ESD, SOC TD-DFT
   Georgi Stoychev        : AutoAux, RI-MP2 NMR
   Willem Van den Heuvel  : Paramagnetic NMR
   Boris Wezisla          : Elementary symmetry handling
   Frank Wennmohs         : Technical directorship


 We gratefully acknowledge several colleagues who have allowed us to
 interface, adapt or use parts of their codes:
   Stefan Grimme, W. Hujo, H. Kruse,             : VdW corrections, initial TS optimization,
                  C. Bannwarth                     DFT functionals, gCP, sTDA/sTD-DF
   Ed Valeev                                     : LibInt (2-el integral package), F12 methods
   Garnet Chan, S. Sharma, J. Yang, R. Olivares  : DMRG
   Ulf Ekstrom                                   : XCFun DFT Library
   Mihaly Kallay                                 : mrcc  (arbitrary order and MRCC methods)
   Andreas Klamt, Michael Diedenhofen            : otool_cosmo (COSMO solvation model)
   Jiri Pittner, Ondrej Demel                    : Mk-CCSD
   Frank Weinhold                                : gennbo (NPA and NBO analysis)
   Christopher J. Cramer and Donald G. Truhlar   : smd solvation model
   Lars Goerigk                                  : TD-DFT with DH, B97 family of functionals
   V. Asgeirsson, H. Jonsson                     : NEB implementation
   FAccTs GmbH                                   : IRC, NEB, NEB-TS, Multilevel


 Your calculation uses the libint2 library for the computation of 2-el integrals
 For citations please refer to: http://libint.valeyev.net

 This ORCA versions uses:
   CBLAS   interface :  Fast vector & matrix operations
   LAPACKE interface :  Fast linear algebra routines
   SCALAPACK package :  Parallel linear algebra routines




***************************************
The coordinates will be read from file: 2_butanone_skew.xyz
***************************************


----- Orbital basis set information -----
Your calculation utilizes the basis: cc-pVTZ 
       H, B-Ne : Obtained from the ccRepo (grant-hill.group.shef.ac.uk/ccrepo) Feb. 2017
                 T. H. Dunning, Jr., J. Chem. Phys. 90, 1007 (1989)
            He : Obtained from the ccRepo (grant-hill.group.shef.ac.uk/ccrepo) Feb. 2017
                 D. E. Woon, T. H. Dunning, Jr., J. Chem. Phys. 100, 2975 (1994)
  Li-Be, Na-Mg : Obtained from the ccRepo (grant-hill.group.shef.ac.uk/ccrepo) Feb. 2017
                 B. P. Prascher, D. E. Woon, K. A. Peterson, T. H. Dunning, Jr., A. K. Wilson, Theor. Chem. Acc. 128, 69 (2011)
         Al-Ar : Obtained from the ccRepo (grant-hill.group.shef.ac.uk/ccrepo) Feb. 2017
                 D. E. Woon, T. H. Dunning, Jr., J. Chem. Phys. 98, 1358 (1993)
            Ca : Obtained from the Peterson Research Group Website (tyr0.chem.wsu.edu/~kipeters) Feb. 2017
                 J. Koput, K. A. Peterson, J. Phys. Chem. 106, 9595 (2002)
         Sc-Zn : Obtained from the ccRepo (grant-hill.group.shef.ac.uk/ccrepo) Feb. 2017
                 N. B. Balabanov, K. A. Peterson, J. Chem. Phys. 123, 064107 (2005)
                 N. B. Balabanov, K. A. Peterson, J. Chem. Phys. 125, 074110 (2006)
         Ga-Kr : Obtained from the ccRepo (grant-hill.group.shef.ac.uk/ccrepo) Feb. 2017
                 A. K. Wilson, D. E. Woon, K. A. Peterson, T. H. Dunning, Jr., J. Chem. Phys. 110, 7667 (1999)
             Y : Obtained from the ccRepo (grant-hill.group.shef.ac.uk/ccrepo) Feb. 2017
                 K. A. Peterson, D. Figgen, M. Dolg, H. Stoll, J. Chem. Phys. 126, 124101 (2007)
        Ag, Au : Obtained from the Peterson Research Group Website (tyr0.chem.wsu.edu/~kipeters) Feb. 2017
                 K. A. Peterson, C. Puzzarini, Theor. Chem. Acc. 114, 283 (2005)

----- AuxC basis set information -----
Your calculation utilizes the auxiliary basis: cc-pVTZ/C 
  Obtained from the EMSL Basis Set Exchange (bse.pnl.gov) Feb. 2017
  H-He, B-F, Al-Ar, Ga-Kr : F. Weigend, A. Kohn, C. Hattig, J. Chem. Phys. 116, 3175 (2002)
             Li-Be, Na-Mg : C. Haettig, Phys. Chem. Chem. Phys. 7, 59 (2005)
                       Ne : C. Haettig, Phys. Chem. Chem. Phys. 7, 59 (2005)
                            F. Weigend, A. Kohn, C. Hattig, J. Chem. Phys. 116, 3175 (2002)
                    Sc-Zn : J. G. Hill, J. A. Platts, J. Chem. Phys. 128, 044104 (2008)

----- AuxJK basis set information -----
Your calculation utilizes the auxiliary basis: cc-pVTZ/JK 
  H, B-F, Al-Cl, Ga-Br : Obtained from the TURBOMOLE 7.0 basis set library

================================================================================
                                        WARNINGS
                       Please study these warnings very carefully!
================================================================================


WARNING: MDCI localization with Augmented Hessian Foster-Boys
  ===> : Switching off randomization!

WARNING: Post HF methods need fully converged wavefunctions
  ===> : Setting SCFConvForced true
         You can overwrite this default with %scf ConvForced false 


INFO   : the flag for use of LIBINT has been found!

================================================================================
                                       INPUT FILE
================================================================================
NAME = 2_butanone_skew.inp
|  1> ! RHF DLPNO-CCSD(T) cc-pVTZ RIJK cc-pVTZ/JK cc-pVTZ/C
|  2> ! KDIIS SOSCF TightSCF TightPNO
|  3> 
|  4> %pal nprocs 8 end
|  5> 
|  6> %maxcore 8000
|  7> 
|  8> %scf maxiter 300
|  9>      shift shift 0.2 erroff 0.1 end
| 10> end
| 11> 
| 12> * xyzfile 0 1 2_butanone_skew.xyz 
| 13> 
| 14> 
| 15>                          ****END OF INPUT****
================================================================================

                       ****************************
                       * Single Point Calculation *
                       ****************************

---------------------------------
CARTESIAN COORDINATES (ANGSTROEM)
---------------------------------
  C     -1.031460    1.262650    0.071760
  C     -0.620150   -0.199880    0.054230
  O     -1.405760   -1.070470   -0.282540
  C      0.804810   -0.541750    0.472010
  C      1.891790    0.212890   -0.313450
  H     -2.118230    1.338460    0.008540
  H     -0.667580    1.771960    0.970910
  H     -0.592840    1.779190   -0.790750
  H      0.901820   -0.305590    1.541650
  H      0.923800   -1.623100    0.360940
  H      1.812210    0.015270   -1.387810
  H      1.831550    1.295220   -0.161480
  H      2.885400   -0.111140    0.010960

----------------------------
CARTESIAN COORDINATES (A.U.)
----------------------------
  NO LB      ZA    FRAG     MASS         X           Y           Z
   0 C     6.0000    0    12.011   -1.949177    2.386063    0.135607
   1 C     6.0000    0    12.011   -1.171914   -0.377718    0.102480
   2 O     8.0000    0    15.999   -2.656501   -2.022895   -0.533923
   3 C     6.0000    0    12.011    1.520870   -1.023759    0.891970
   4 C     6.0000    0    12.011    3.574965    0.402304   -0.592335
   5 H     1.0000    0     1.008   -4.002875    2.529323    0.016138
   6 H     1.0000    0     1.008   -1.261543    3.348519    1.834754
   7 H     1.0000    0     1.008   -1.120305    3.362182   -1.494301
   8 H     1.0000    0     1.008    1.704193   -0.577481    2.913296
   9 H     1.0000    0     1.008    1.745729   -3.067214    0.682078
  10 H     1.0000    0     1.008    3.424581    0.028856   -2.622581
  11 H     1.0000    0     1.008    3.461128    2.447611   -0.305153
  12 H     1.0000    0     1.008    5.452616   -0.210024    0.020711

--------------------------------
INTERNAL COORDINATES (ANGSTROEM)
--------------------------------
 C      0   0   0     0.000000000000     0.00000000     0.00000000
 C      1   0   0     1.519367374238     0.00000000     0.00000000
 O      2   1   0     1.220050840375   121.04722907     0.00000000
 C      2   1   3     1.523786804937   117.77194700   180.04241700
 C      4   2   1     1.538815928433   114.24195881   305.30466051
 H      1   2   3     1.091243766259   109.62152534    14.61390459
 H      1   2   3     1.095571108144   111.53355792   136.99829671
 H      1   2   3     1.096870355192   109.63212437   255.41545275
 H      4   2   1     1.099687326152   107.51735800    66.65880233
 H      4   2   1     1.093532344058   107.20334620   182.04732291
 H      5   4   2     1.095278982908   111.15403138   301.52000677
 H      5   4   2     1.094605850249   112.03439049    62.57650693
 H      5   4   2     1.094302572920   110.17241402   182.26685983

---------------------------
INTERNAL COORDINATES (A.U.)
---------------------------
 C      0   0   0     0.000000000000     0.00000000     0.00000000
 C      1   0   0     2.871188234126     0.00000000     0.00000000
 O      2   1   0     2.305561957769   121.04722907     0.00000000
 C      2   1   3     2.879539747814   117.77194700   180.04241700
 C      4   2   1     2.907940675255   114.24195881   305.30466051
 H      1   2   3     2.062151863579   109.62152534    14.61390459
 H      1   2   3     2.070329354629   111.53355792   136.99829671
 H      1   2   3     2.072784575731   109.63212437   255.41545275
 H      4   2   1     2.078107879372   107.51735800    66.65880233
 H      4   2   1     2.066476648854   107.20334620   182.04732291
 H      5   4   2     2.069777317936   111.15403138   301.52000677
 H      5   4   2     2.068505281559   112.03439049    62.57650693
 H      5   4   2     2.067932170465   110.17241402   182.26685983

---------------------
BASIS SET INFORMATION
---------------------
There are 3 groups of distinct atoms

 Group   1 Type C   : 18s5p2d1f contracted to 4s3p2d1f pattern {8811/311/11/1}
 Group   2 Type O   : 18s5p2d1f contracted to 4s3p2d1f pattern {8811/311/11/1}
 Group   3 Type H   : 5s2p1d contracted to 3s2p1d pattern {311/11/1}

Atom   0C    basis set group =>   1
Atom   1C    basis set group =>   1
Atom   2O    basis set group =>   2
Atom   3C    basis set group =>   1
Atom   4C    basis set group =>   1
Atom   5H    basis set group =>   3
Atom   6H    basis set group =>   3
Atom   7H    basis set group =>   3
Atom   8H    basis set group =>   3
Atom   9H    basis set group =>   3
Atom  10H    basis set group =>   3
Atom  11H    basis set group =>   3
Atom  12H    basis set group =>   3
-------------------------------
AUXILIARY BASIS SET INFORMATION
-------------------------------
There are 3 groups of distinct atoms

 Group   1 Type C   : 8s6p5d3f1g contracted to 8s6p5d3f1g pattern {11111111/111111/11111/111/1}
 Group   2 Type O   : 8s6p5d3f1g contracted to 8s6p5d3f1g pattern {11111111/111111/11111/111/1}
 Group   3 Type H   : 4s3p2d1f contracted to 4s3p2d1f pattern {1111/111/11/1}

Atom   0C    basis set group =>   1
Atom   1C    basis set group =>   1
Atom   2O    basis set group =>   2
Atom   3C    basis set group =>   1
Atom   4C    basis set group =>   1
Atom   5H    basis set group =>   3
Atom   6H    basis set group =>   3
Atom   7H    basis set group =>   3
Atom   8H    basis set group =>   3
Atom   9H    basis set group =>   3
Atom  10H    basis set group =>   3
Atom  11H    basis set group =>   3
Atom  12H    basis set group =>   3
-------------------------------
AUXILIARY BASIS SET INFORMATION
-------------------------------
There are 3 groups of distinct atoms

 Group   1 Type C   : 10s7p5d2f1g contracted to 10s7p5d2f1g pattern {1111111111/1111111/11111/11/1}
 Group   2 Type O   : 10s7p5d2f1g contracted to 10s7p5d2f1g pattern {1111111111/1111111/11111/11/1}
 Group   3 Type H   : 4s3p2d1f contracted to 4s3p2d1f pattern {1111/111/11/1}

Atom   0C    basis set group =>   1
Atom   1C    basis set group =>   1
Atom   2O    basis set group =>   2
Atom   3C    basis set group =>   1
Atom   4C    basis set group =>   1
Atom   5H    basis set group =>   3
Atom   6H    basis set group =>   3
Atom   7H    basis set group =>   3
Atom   8H    basis set group =>   3
Atom   9H    basis set group =>   3
Atom  10H    basis set group =>   3
Atom  11H    basis set group =>   3
Atom  12H    basis set group =>   3


           ************************************************************
           *        Program running with 8 parallel MPI-processes     *
           *              working on a common directory               *
           ************************************************************
------------------------------------------------------------------------------
                           ORCA GTO INTEGRAL CALCULATION
                           -- RI-GTO INTEGRALS CHOSEN --
------------------------------------------------------------------------------

                         BASIS SET STATISTICS AND STARTUP INFO

Gaussian basis set:
 # of primitive gaussian shells          ...  194
 # of primitive gaussian functions       ...  378
 # of contracted shells                  ...   98
 # of contracted basis functions         ...  262
 Highest angular momentum                ...    3
 Maximum contraction depth               ...    8
Auxiliary gaussian basis set:
 # of primitive gaussian shells          ...  205
 # of primitive gaussian functions       ...  635
 # of contracted shells                  ...  205
 # of contracted aux-basis functions     ...  635
 Highest angular momentum                ...    4
 Maximum contraction depth               ...    1
Ratio of auxiliary to basis functions    ...  2.42
Integral package used                  ... LIBINT
 One Electron integrals                  ... done
 Ordering auxiliary basis shells         ... done
 Integral threshhold             Thresh  ...  2.500e-11
 Primitive cut-off               TCut    ...  2.500e-12
 Pre-screening matrix                    ... done
 Shell pair data                         ... 
 Ordering of the shell pairs             ... done (   0.001 sec) 4729 of 4851 pairs
 Determination of significant pairs      ... done (   0.000 sec)
 Creation of shell pair data             ... done (   0.001 sec)
 Storage of shell pair data              ... done (   0.002 sec)
 Shell pair data done in (   0.004 sec)
 Computing two index integrals           ... done
 Cholesky decomposition of the V-matrix  ... done


Timings:
 Total evaluation time                   ...   0.413 sec (  0.007 min)
 One electron matrix time                ...   0.071 sec (  0.001 min) = 17.2%
 Schwartz matrix evaluation time         ...   0.187 sec (  0.003 min) = 45.2%
 Two index repulsion integral time       ...   0.065 sec (  0.001 min) = 15.7%
 Cholesky decomposition of V             ...   0.060 sec (  0.001 min) = 14.5%
 Three index repulsion integral time     ...   0.000 sec (  0.000 min) =  0.0%



           ************************************************************
           *        Program running with 8 parallel MPI-processes     *
           *              working on a common directory               *
           ************************************************************
-------------------------------------------------------------------------------
                                 ORCA SCF
-------------------------------------------------------------------------------

------------
SCF SETTINGS
------------
Hamiltonian:
 Ab initio Hamiltonian  Method          .... Hartree-Fock(GTOs)
 RI-approximation to the Coulomb term is turned on
   Number of auxiliary basis functions  .... 635
   RI-JK (J+K treated both via RI)      .... on


General Settings:
 Integral files         IntName         .... 2_butanone_skew
 Hartree-Fock type      HFTyp           .... RHF
 Total Charge           Charge          ....    0
 Multiplicity           Mult            ....    1
 Number of Electrons    NEL             ....   40
 Basis Dimension        Dim             ....  262
 Nuclear Repulsion      ENuc            ....    175.3640765527 Eh

Convergence Acceleration:
 DIIS                   CNVDIIS         .... off
 Newton-Raphson         CNVNR           .... off
 SOSCF                  CNVSOSCF        .... on
   Start iteration      SOSCFMaxIt      ....   150
   Startup grad/error   SOSCFStart      ....  0.003300
 Level Shifting         CNVShift        .... on
   Level shift para.    LevelShift      ....    0.2000
   Turn off err/grad.   ShiftErr        ....    0.1000
 Zerner damping         CNVZerner       .... off
 Static damping         CNVDamp         .... off
 Fernandez-Rico         CNVRico         .... off

SCF Procedure:
 Maximum # iterations   MaxIter         ....   300
 SCF integral mode      SCFMode         .... Direct
   Integral package                     .... LIBINT
 Reset frequency        DirectResetFreq ....    20
 Integral Threshold     Thresh          ....  2.500e-11 Eh
 Primitive CutOff       TCut            ....  2.500e-12 Eh

Convergence Tolerance:
 Convergence Check Mode ConvCheckMode   .... Total+1el-Energy
 Convergence forced     ConvForced      .... 1
 Energy Change          TolE            ....  1.000e-08 Eh
 1-El. energy change                    ....  1.000e-05 Eh
 Orbital Gradient       TolG            ....  1.000e-05
 Orbital Rotation angle TolX            ....  1.000e-05


Diagonalization of the overlap matrix:
Smallest eigenvalue                        ... 5.805e-04
Time for diagonalization                   ...    0.015 sec
Threshold for overlap eigenvalues          ... 1.000e-08
Number of eigenvalues below threshold      ... 0
Time for construction of square roots      ...    0.029 sec
Total time needed                          ...    0.044 sec

-------------------
DFT GRID GENERATION
-------------------

General Integration Accuracy     IntAcc      ...  4.340
Radial Grid Type                 RadialGrid  ... Gauss-Chebyshev
Angular Grid (max. acc.)         AngularGrid ... Lebedev-110
Angular grid pruning method      GridPruning ... 3 (G Style)
Weight generation scheme         WeightScheme... Becke
Basis function cutoff            BFCut       ...    1.0000e-11
Integration weight cutoff        WCut        ...    1.0000e-14
Grids for H and He will be reduced by one unit

# of grid points (after initial pruning)     ...  14692 (   0.0 sec)
# of grid points (after weights+screening)   ...  13731 (   0.0 sec)
nearest neighbour list constructed           ...    0.0 sec
Grid point re-assignment to atoms done       ...    0.0 sec
Grid point division into batches done        ...    0.0 sec
Reduced shell lists constructed in    0.1 sec

Total number of grid points                  ...    13731
Total number of batches                      ...      221
Average number of points per batch           ...       62
Average number of grid points per atom       ...     1056
Average number of shells per batch           ...    86.34 (88.11%)
Average number of basis functions per batch  ...   229.52 (87.60%)
Average number of large shells per batch     ...    73.52 (85.14%)
Average number of large basis fcns per batch ...   192.55 (83.89%)
Average number of aux-shells per batch       ...    86.34 (42.12%)
Average number of aux functions per batch    ...   229.52 (36.14%)
Maximum spatial batch extension              ...   3.60,  2.75,  3.25 au
Average spatial batch extension              ...   0.20,  0.21,  0.21 au

Time for grid setup =    0.082 sec

------------------------------
INITIAL GUESS: MODEL POTENTIAL
------------------------------
Loading Hartree-Fock densities                     ... done
Calculating cut-offs                               ... done
Setting up the integral package                    ... done
Initializing the effective Hamiltonian             ... done
Starting the Coulomb interaction                   ... done (   0.0 sec)
Reading the grid                                   ... done
Mapping shells                                     ... done
Starting the XC term evaluation                    ... done (   0.0 sec)
Transforming the Hamiltonian                       ... done (   0.0 sec)
Diagonalizing the Hamiltonian                      ... done (   0.0 sec)
Back transforming the eigenvectors                 ... done (   0.0 sec)
Now organizing SCF variables                       ... done
                      ------------------
                      INITIAL GUESS DONE (   0.3 sec)
                      ------------------
--------------
SCF ITERATIONS
--------------
ITER       Energy         Delta-E        Max-DP      RMS-DP      [F,P]   Gradient Norm
                             ****Turning on KDIIS(Cayley)****
  0   -230.7896674875   0.000000000000 0.01277057  0.00032753  0.1304495   0.158708765
  1   -230.8722350871  -0.082567599593 0.01777193  0.00035046  0.1207137   0.136496751
  2   -230.9397445369  -0.067509449820 0.02896752  0.00057963  0.0964466   0.111144588
  3   -231.0226849014  -0.082940364473 0.04409555  0.00092792  0.0585332   0.068597143
  4   -231.0778972467  -0.055212345343 0.00268459  0.00008214  0.0041530   0.003984077
                      *** Initiating the SOSCF procedure ***
                           *** Shutting down KDIIS ***
                      *** Re-Reading the Fockian *** 
                      *** Removing any level shift *** 
ITER      Energy       Delta-E        Grad      Rot      Max-DP    RMS-DP
  5   -231.07823260  -0.0003353516  0.001309  0.001309  0.001717  0.000054
  6   -231.07825984  -0.0000272392  0.000271  0.000323  0.000532  0.000013
  7   -231.07826427  -0.0000044278  0.000169  0.000147  0.000274  0.000005
  8   -231.07826626  -0.0000019979  0.000069  0.000118  0.000063  0.000002
  9   -231.07826636  -0.0000000957  0.000037  0.000113  0.000062  0.000001
 10   -231.07826639  -0.0000000265  0.000005  0.000011  0.000028  0.000000
 11   -231.07826639  -0.0000000014  0.000003  0.000004  0.000012  0.000000
                  ***Gradient check signals convergence***
              ***Rediagonalizing the Fockian in SOSCF/NRSCF***

               *****************************************************
               *                     SUCCESS                       *
               *           SCF CONVERGED AFTER  12 CYCLES          *
               *****************************************************


----------------
TOTAL SCF ENERGY
----------------

Total Energy       :         -231.07826639 Eh           -6287.95930 eV

Components:
Nuclear Repulsion  :          175.36407655 Eh            4771.89912 eV
Electronic Energy  :         -406.44234294 Eh          -11059.85842 eV
One Electron Energy:         -660.59448813 Eh          -17975.68989 eV
Two Electron Energy:          254.15214519 Eh            6915.83146 eV

Virial components:
Potential Energy   :         -461.73910817 Eh          -12564.55990 eV
Kinetic Energy     :          230.66084178 Eh            6276.60060 eV
Virial Ratio       :            2.00180969


---------------
SCF CONVERGENCE
---------------

  Last Energy change         ...   -3.1116e-10  Tolerance :   1.0000e-08
  Last MAX-Density change    ...    5.6299e-06  Tolerance :   1.0000e-07
  Last RMS-Density change    ...    7.9026e-08  Tolerance :   5.0000e-09
  Last Orbital Gradient      ...    1.1594e-06  Tolerance :   1.0000e-05
  Last Orbital Rotation      ...    1.3793e-06  Tolerance :   1.0000e-05

             **** THE GBW FILE WAS UPDATED (2_butanone_skew.gbw) ****
             **** DENSITY FILE WAS UPDATED (2_butanone_skew.scfp.tmp) ****
             **** ENERGY FILE WAS UPDATED (2_butanone_skew.en.tmp) ****
----------------
ORBITAL ENERGIES
----------------

  NO   OCC          E(Eh)            E(eV) 
   0   2.0000     -20.540435      -558.9337 
   1   2.0000     -11.329175      -308.2825 
   2   2.0000     -11.240304      -305.8642 
   3   2.0000     -11.235266      -305.7271 
   4   2.0000     -11.235173      -305.7246 
   5   2.0000      -1.376978       -37.4695 
   6   2.0000      -1.066312       -29.0158 
   7   2.0000      -0.992335       -27.0028 
   8   2.0000      -0.887091       -24.1390 
   9   2.0000      -0.733547       -19.9608 
  10   2.0000      -0.648334       -17.6421 
  11   2.0000      -0.645080       -17.5535 
  12   2.0000      -0.611069       -16.6280 
  13   2.0000      -0.588019       -16.0008 
  14   2.0000      -0.559298       -15.2193 
  15   2.0000      -0.541263       -14.7285 
  16   2.0000      -0.526938       -14.3387 
  17   2.0000      -0.503879       -13.7112 
  18   2.0000      -0.478185       -13.0121 
  19   2.0000      -0.406440       -11.0598 
  20   0.0000       0.123422         3.3585 
  21   0.0000       0.149028         4.0553 
  22   0.0000       0.167931         4.5696 
  23   0.0000       0.178934         4.8690 
  24   0.0000       0.194820         5.3013 
  25   0.0000       0.211045         5.7428 
  26   0.0000       0.219092         5.9618 
  27   0.0000       0.235574         6.4103 
  28   0.0000       0.244184         6.6446 
  29   0.0000       0.288698         7.8559 
  30   0.0000       0.314145         8.5483 
  31   0.0000       0.351102         9.5540 
  32   0.0000       0.362852         9.8737 
  33   0.0000       0.377198        10.2641 
  34   0.0000       0.391247        10.6464 
  35   0.0000       0.394437        10.7332 
  36   0.0000       0.437229        11.8976 
  37   0.0000       0.480695        13.0804 
  38   0.0000       0.500709        13.6250 
  39   0.0000       0.556889        15.1537 
  40   0.0000       0.567743        15.4491 
  41   0.0000       0.581067        15.8116 
  42   0.0000       0.591354        16.0916 
  43   0.0000       0.598878        16.2963 
  44   0.0000       0.606019        16.4906 
  45   0.0000       0.616886        16.7863 
  46   0.0000       0.621071        16.9002 
  47   0.0000       0.627603        17.0780 
  48   0.0000       0.644096        17.5267 
  49   0.0000       0.647174        17.6105 
  50   0.0000       0.659830        17.9549 
  51   0.0000       0.671291        18.2668 
  52   0.0000       0.701421        19.0866 
  53   0.0000       0.718450        19.5500 
  54   0.0000       0.752197        20.4683 
  55   0.0000       0.785583        21.3768 
  56   0.0000       0.806371        21.9425 
  57   0.0000       0.839903        22.8549 
  58   0.0000       0.865598        23.5541 
  59   0.0000       0.907422        24.6922 
  60   0.0000       0.937539        25.5117 
  61   0.0000       0.967358        26.3232 
  62   0.0000       0.985365        26.8132 
  63   0.0000       1.005687        27.3661 
  64   0.0000       1.039636        28.2899 
  65   0.0000       1.069083        29.0912 
  66   0.0000       1.100082        29.9348 
  67   0.0000       1.105199        30.0740 
  68   0.0000       1.130428        30.7605 
  69   0.0000       1.151795        31.3419 
  70   0.0000       1.175128        31.9769 
  71   0.0000       1.198438        32.6112 
  72   0.0000       1.211804        32.9749 
  73   0.0000       1.225148        33.3380 
  74   0.0000       1.265250        34.4292 
  75   0.0000       1.272934        34.6383 
  76   0.0000       1.281573        34.8734 
  77   0.0000       1.309807        35.6416 
  78   0.0000       1.316855        35.8335 
  79   0.0000       1.322847        35.9965 
  80   0.0000       1.351729        36.7824 
  81   0.0000       1.362217        37.0678 
  82   0.0000       1.388916        37.7943 
  83   0.0000       1.406601        38.2756 
  84   0.0000       1.410357        38.3778 
  85   0.0000       1.478354        40.2281 
  86   0.0000       1.488229        40.4968 
  87   0.0000       1.499953        40.8158 
  88   0.0000       1.508296        41.0428 
  89   0.0000       1.516072        41.2544 
  90   0.0000       1.534310        41.7507 
  91   0.0000       1.541982        41.9595 
  92   0.0000       1.545583        42.0575 
  93   0.0000       1.559626        42.4396 
  94   0.0000       1.612516        43.8788 
  95   0.0000       1.620852        44.1056 
  96   0.0000       1.653067        44.9822 
  97   0.0000       1.675318        45.5877 
  98   0.0000       1.712250        46.5927 
  99   0.0000       1.767028        48.0833 
 100   0.0000       1.775062        48.3019 
 101   0.0000       1.787227        48.6329 
 102   0.0000       1.825679        49.6792 
 103   0.0000       1.889859        51.4257 
 104   0.0000       2.004187        54.5367 
 105   0.0000       2.093645        56.9710 
 106   0.0000       2.158417        58.7335 
 107   0.0000       2.262823        61.5745 
 108   0.0000       2.419147        65.8283 
 109   0.0000       2.449651        66.6584 
 110   0.0000       2.466630        67.1204 
 111   0.0000       2.484747        67.6134 
 112   0.0000       2.545940        69.2785 
 113   0.0000       2.587581        70.4117 
 114   0.0000       2.630174        71.5707 
 115   0.0000       2.645338        71.9833 
 116   0.0000       2.698327        73.4252 
 117   0.0000       2.723799        74.1183 
 118   0.0000       2.746580        74.7382 
 119   0.0000       2.759003        75.0763 
 120   0.0000       2.806153        76.3593 
 121   0.0000       2.833387        77.1004 
 122   0.0000       2.855150        77.6926 
 123   0.0000       2.877695        78.3061 
 124   0.0000       2.922547        79.5266 
 125   0.0000       2.942162        80.0603 
 126   0.0000       2.971780        80.8663 
 127   0.0000       2.990147        81.3660 
 128   0.0000       3.017215        82.1026 
 129   0.0000       3.071297        83.5742 
 130   0.0000       3.094980        84.2187 
 131   0.0000       3.104220        84.4701 
 132   0.0000       3.122363        84.9638 
 133   0.0000       3.145005        85.5799 
 134   0.0000       3.165677        86.1425 
 135   0.0000       3.180040        86.5333 
 136   0.0000       3.191572        86.8471 
 137   0.0000       3.209898        87.3458 
 138   0.0000       3.239182        88.1426 
 139   0.0000       3.250676        88.4554 
 140   0.0000       3.284309        89.3706 
 141   0.0000       3.305454        89.9460 
 142   0.0000       3.317840        90.2830 
 143   0.0000       3.321847        90.3921 
 144   0.0000       3.351439        91.1973 
 145   0.0000       3.375228        91.8446 
 146   0.0000       3.383707        92.0753 
 147   0.0000       3.402003        92.5732 
 148   0.0000       3.418406        93.0196 
 149   0.0000       3.436853        93.5215 
 150   0.0000       3.445699        93.7622 
 151   0.0000       3.459465        94.1368 
 152   0.0000       3.485126        94.8351 
 153   0.0000       3.528884        96.0258 
 154   0.0000       3.537602        96.2631 
 155   0.0000       3.589588        97.6776 
 156   0.0000       3.602817        98.0376 
 157   0.0000       3.619852        98.5012 
 158   0.0000       3.644955        99.1843 
 159   0.0000       3.653976        99.4297 
 160   0.0000       3.702080       100.7387 
 161   0.0000       3.718441       101.1839 
 162   0.0000       3.737378       101.6992 
 163   0.0000       3.753926       102.1495 
 164   0.0000       3.762086       102.3716 
 165   0.0000       3.772539       102.6560 
 166   0.0000       3.793444       103.2249 
 167   0.0000       3.817186       103.8709 
 168   0.0000       3.843843       104.5963 
 169   0.0000       3.860515       105.0500 
 170   0.0000       3.888281       105.8055 
 171   0.0000       3.942329       107.2762 
 172   0.0000       3.959636       107.7472 
 173   0.0000       4.011495       109.1583 
 174   0.0000       4.037013       109.8527 
 175   0.0000       4.049515       110.1929 
 176   0.0000       4.068290       110.7038 
 177   0.0000       4.076160       110.9179 
 178   0.0000       4.102625       111.6381 
 179   0.0000       4.126014       112.2745 
 180   0.0000       4.158040       113.1460 
 181   0.0000       4.176274       113.6422 
 182   0.0000       4.178756       113.7097 
 183   0.0000       4.190740       114.0358 
 184   0.0000       4.220928       114.8573 
 185   0.0000       4.246524       115.5538 
 186   0.0000       4.264569       116.0448 
 187   0.0000       4.277808       116.4051 
 188   0.0000       4.288947       116.7082 
 189   0.0000       4.327425       117.7552 
 190   0.0000       4.353666       118.4693 
 191   0.0000       4.375232       119.0561 
 192   0.0000       4.389021       119.4313 
 193   0.0000       4.399142       119.7067 
 194   0.0000       4.421149       120.3056 
 195   0.0000       4.439737       120.8114 
 196   0.0000       4.475793       121.7925 
 197   0.0000       4.491970       122.2327 
 198   0.0000       4.544310       123.6570 
 199   0.0000       4.556520       123.9892 
 200   0.0000       4.566594       124.2633 
 201   0.0000       4.581919       124.6803 
 202   0.0000       4.599902       125.1697 
 203   0.0000       4.651582       126.5760 
 204   0.0000       4.677968       127.2940 
 205   0.0000       4.701210       127.9264 
 206   0.0000       4.718107       128.3862 
 207   0.0000       4.773501       129.8936 
 208   0.0000       4.777958       130.0149 
 209   0.0000       4.864814       132.3783 
 210   0.0000       4.872380       132.5842 
 211   0.0000       4.901010       133.3633 
 212   0.0000       4.986713       135.6954 
 213   0.0000       5.116867       139.2370 
 214   0.0000       5.152463       140.2056 
 215   0.0000       5.157518       140.3432 
 216   0.0000       5.190042       141.2282 
 217   0.0000       5.195454       141.3755 
 218   0.0000       5.218825       142.0114 
 219   0.0000       5.237397       142.5168 
 220   0.0000       5.280742       143.6963 
 221   0.0000       5.314083       144.6035 
 222   0.0000       5.366155       146.0205 
 223   0.0000       5.429746       147.7509 
 224   0.0000       5.453040       148.3848 
 225   0.0000       5.473323       148.9367 
 226   0.0000       5.497686       149.5996 
 227   0.0000       5.504796       149.7931 
 228   0.0000       5.532593       150.5495 
 229   0.0000       5.600174       152.3885 
 230   0.0000       5.604169       152.4972 
 231   0.0000       5.617895       152.8707 
 232   0.0000       5.643397       153.5647 
 233   0.0000       5.672998       154.3701 
 234   0.0000       5.690157       154.8370 
 235   0.0000       5.701962       155.1583 
 236   0.0000       5.717330       155.5765 
 237   0.0000       5.739319       156.1748 
 238   0.0000       5.761866       156.7883 
 239   0.0000       5.808598       158.0600 
 240   0.0000       5.849633       159.1766 
 241   0.0000       5.966198       162.3485 
 242   0.0000       6.068129       165.1222 
 243   0.0000       6.172731       167.9686 
 244   0.0000       6.226391       169.4287 
 245   0.0000       6.252664       170.1436 
 246   0.0000       6.279645       170.8778 
 247   0.0000       6.330639       172.2654 
 248   0.0000       6.341763       172.5681 
 249   0.0000       6.711521       182.6298 
 250   0.0000       6.734643       183.2590 
 251   0.0000       6.929863       188.5712 
 252   0.0000       6.982842       190.0128 
 253   0.0000       7.108592       193.4346 
 254   0.0000       7.377957       200.7644 
 255   0.0000       7.554599       205.5711 
 256   0.0000       7.577758       206.2013 
 257   0.0000       9.522326       259.1157 
 258   0.0000      13.085512       356.0749 
 259   0.0000      13.468803       366.5048 
 260   0.0000      13.906759       378.4222 
 261   0.0000      14.081162       383.1679 

                    ********************************
                    * MULLIKEN POPULATION ANALYSIS *
                    ********************************

-----------------------
MULLIKEN ATOMIC CHARGES
-----------------------
   0 C :   -0.311121
   1 C :    0.291856
   2 O :   -0.363182
   3 C :   -0.186731
   4 C :   -0.305018
   5 H :    0.134813
   6 H :    0.100431
   7 H :    0.104232
   8 H :    0.099068
   9 H :    0.124665
  10 H :    0.104898
  11 H :    0.092623
  12 H :    0.113468
Sum of atomic charges:   -0.0000000

--------------------------------
MULLIKEN REDUCED ORBITAL CHARGES
--------------------------------
  0 C s       :     3.264650  s :     3.264650
      pz      :     1.000042  p :     2.979709
      px      :     1.055470
      py      :     0.924197
      dz2     :     0.012662  d :     0.062346
      dxz     :     0.008702
      dyz     :     0.010865
      dx2y2   :     0.018853
      dxy     :     0.011264
      f0      :     0.000141  f :     0.004417
      f+1     :     0.000881
      f-1     :     0.001103
      f+2     :     0.000266
      f-2     :    -0.000027
      f+3     :     0.001305
      f-3     :     0.000748
  1 C s       :     3.173662  s :     3.173662
      pz      :     0.636220  p :     2.300338
      px      :     0.826101
      py      :     0.838017
      dz2     :     0.019383  d :     0.216462
      dxz     :     0.031411
      dyz     :     0.036236
      dx2y2   :     0.087166
      dxy     :     0.042268
      f0      :     0.001279  f :     0.017682
      f+1     :     0.001661
      f-1     :     0.001608
      f+2     :     0.001796
      f-2     :     0.002226
      f+3     :     0.004308
      f-3     :     0.004805
  2 O s       :     3.752711  s :     3.752711
      pz      :     1.357086  p :     4.572504
      px      :     1.612782
      py      :     1.602635
      dz2     :     0.004606  d :     0.035604
      dxz     :     0.005616
      dyz     :     0.007420
      dx2y2   :     0.006562
      dxy     :     0.011399
      f0      :     0.000153  f :     0.002363
      f+1     :     0.000166
      f-1     :     0.000233
      f+2     :     0.000097
      f-2     :     0.000549
      f+3     :     0.000601
      f-3     :     0.000565
  3 C s       :     3.215274  s :     3.215274
      pz      :     0.972787  p :     2.869859
      px      :     0.873158
      py      :     1.023913
      dz2     :     0.029609  d :     0.095499
      dxz     :     0.012039
      dyz     :     0.008756
      dx2y2   :     0.030340
      dxy     :     0.014756
      f0      :     0.000994  f :     0.006100
      f+1     :     0.000719
      f-1     :     0.000634
      f+2     :     0.000676
      f-2     :     0.000691
      f+3     :     0.001039
      f-3     :     0.001347
  4 C s       :     3.267098  s :     3.267098
      pz      :     0.991789  p :     2.949367
      px      :     0.976371
      py      :     0.981208
      dz2     :     0.028509  d :     0.083882
      dxz     :     0.011122
      dyz     :     0.006682
      dx2y2   :     0.027075
      dxy     :     0.010494
      f0      :     0.001118  f :     0.004671
      f+1     :     0.000509
      f-1     :     0.000463
      f+2     :     0.000364
      f-2     :     0.000593
      f+3     :     0.000530
      f-3     :     0.001093
  5 H s       :     0.835986  s :     0.835986
      pz      :     0.008133  p :     0.026921
      px      :     0.011510
      py      :     0.007278
      dz2     :     0.000199  d :     0.002281
      dxz     :     0.000637
      dyz     :     0.000015
      dx2y2   :     0.000587
      dxy     :     0.000843
  6 H s       :     0.869315  s :     0.869315
      pz      :     0.008857  p :     0.028024
      px      :     0.007995
      py      :     0.011172
      dz2     :     0.000610  d :     0.002230
      dxz     :     0.000471
      dyz     :     0.000643
      dx2y2   :     0.000348
      dxy     :     0.000158
  7 H s       :     0.864461  s :     0.864461
      pz      :     0.008889  p :     0.029053
      px      :     0.008330
      py      :     0.011833
      dz2     :     0.000581  d :     0.002254
      dxz     :     0.000452
      dyz     :     0.000633
      dx2y2   :     0.000392
      dxy     :     0.000196
  8 H s       :     0.869146  s :     0.869146
      pz      :     0.011743  p :     0.029325
      px      :     0.009993
      py      :     0.007590
      dz2     :     0.000766  d :     0.002461
      dxz     :     0.000976
      dyz     :     0.000613
      dx2y2   :     0.000085
      dxy     :     0.000020
  9 H s       :     0.845214  s :     0.845214
      pz      :     0.007654  p :     0.027621
      px      :     0.007436
      py      :     0.012531
      dz2     :     0.000249  d :     0.002499
      dxz     :     0.000009
      dyz     :     0.000661
      dx2y2   :     0.000614
      dxy     :     0.000967
 10 H s       :     0.866755  s :     0.866755
      pz      :     0.011566  p :     0.026207
      px      :     0.007142
      py      :     0.007499
      dz2     :     0.000808  d :     0.002140
      dxz     :     0.000693
      dyz     :     0.000589
      dx2y2   :     0.000043
      dxy     :     0.000007
 11 H s       :     0.878288  s :     0.878288
      pz      :     0.007691  p :     0.026914
      px      :     0.007835
      py      :     0.011388
      dz2     :     0.000262  d :     0.002175
      dxz     :     0.000003
      dyz     :     0.000622
      dx2y2   :     0.000566
      dxy     :     0.000722
 12 H s       :     0.857216  s :     0.857216
      pz      :     0.007480  p :     0.027120
      px      :     0.011964
      py      :     0.007676
      dz2     :     0.000326  d :     0.002196
      dxz     :     0.000539
      dyz     :     0.000068
      dx2y2   :     0.000732
      dxy     :     0.000531


                     *******************************
                     * LOEWDIN POPULATION ANALYSIS *
                     *******************************

----------------------
LOEWDIN ATOMIC CHARGES
----------------------
   0 C :    0.109586
   1 C :   -0.232431
   2 O :    0.128820
   3 C :    0.047880
   4 C :    0.112722
   5 H :   -0.015928
   6 H :   -0.021068
   7 H :   -0.016836
   8 H :   -0.017556
   9 H :   -0.015113
  10 H :   -0.025484
  11 H :   -0.030839
  12 H :   -0.023754

-------------------------------
LOEWDIN REDUCED ORBITAL CHARGES
-------------------------------
  0 C s       :     2.668497  s :     2.668497
      pz      :     0.981919  p :     2.915356
      px      :     0.985880
      py      :     0.947557
      dz2     :     0.051444  d :     0.278731
      dxz     :     0.029210
      dyz     :     0.062461
      dx2y2   :     0.084630
      dxy     :     0.050986
      f0      :     0.001187  f :     0.027829
      f+1     :     0.004498
      f-1     :     0.005276
      f+2     :     0.001904
      f-2     :     0.003788
      f+3     :     0.006768
      f-3     :     0.004409
  1 C s       :     2.761221  s :     2.761221
      pz      :     0.645808  p :     2.578357
      px      :     0.952473
      py      :     0.980076
      dz2     :     0.069181  d :     0.780037
      dxz     :     0.102878
      dyz     :     0.115820
      dx2y2   :     0.290043
      dxy     :     0.202114
      f0      :     0.006846  f :     0.112816
      f+1     :     0.007630
      f-1     :     0.008950
      f+2     :     0.011315
      f-2     :     0.016277
      f+3     :     0.027809
      f-3     :     0.033988
  2 O s       :     3.378407  s :     3.378407
      pz      :     1.282643  p :     4.419657
      px      :     1.563067
      py      :     1.573946
      dz2     :     0.006931  d :     0.067995
      dxz     :     0.008118
      dyz     :     0.008944
      dx2y2   :     0.021116
      dxy     :     0.022886
      f0      :     0.000320  f :     0.005121
      f+1     :     0.000269
      f-1     :     0.000382
      f+2     :     0.000377
      f-2     :     0.000829
      f+3     :     0.001428
      f-3     :     0.001516
  3 C s       :     2.668575  s :     2.668575
      pz      :     0.958805  p :     2.853968
      px      :     0.925538
      py      :     0.969624
      dz2     :     0.107780  d :     0.391576
      dxz     :     0.060634
      dyz     :     0.030657
      dx2y2   :     0.123863
      dxy     :     0.068643
      f0      :     0.004572  f :     0.038002
      f+1     :     0.005218
      f-1     :     0.004255
      f+2     :     0.005204
      f-2     :     0.005212
      f+3     :     0.006393
      f-3     :     0.007148
  4 C s       :     2.662512  s :     2.662512
      pz      :     0.969554  p :     2.886131
      px      :     0.947524
      py      :     0.969053
      dz2     :     0.101472  d :     0.309947
      dxz     :     0.043352
      dyz     :     0.025792
      dx2y2   :     0.097314
      dxy     :     0.042016
      f0      :     0.004311  f :     0.028688
      f+1     :     0.003432
      f-1     :     0.003618
      f+2     :     0.003960
      f-2     :     0.004892
      f+3     :     0.003285
      f-3     :     0.005191
  5 H s       :     0.837781  s :     0.837781
      pz      :     0.038942  p :     0.149937
      px      :     0.075214
      py      :     0.035781
      dz2     :     0.002385  d :     0.028210
      dxz     :     0.009228
      dyz     :     0.000056
      dx2y2   :     0.007242
      dxy     :     0.009299
  6 H s       :     0.841489  s :     0.841489
      pz      :     0.062239  p :     0.151835
      px      :     0.042732
      py      :     0.046864
      dz2     :     0.008792  d :     0.027744
      dxz     :     0.006127
      dyz     :     0.006855
      dx2y2   :     0.003501
      dxy     :     0.002468
  7 H s       :     0.834244  s :     0.834244
      pz      :     0.060657  p :     0.154769
      px      :     0.045262
      py      :     0.048850
      dz2     :     0.008666  d :     0.027823
      dxz     :     0.005734
      dyz     :     0.006462
      dx2y2   :     0.004168
      dxy     :     0.002793
  8 H s       :     0.835005  s :     0.835005
      pz      :     0.073205  p :     0.154377
      px      :     0.040437
      py      :     0.040734
      dz2     :     0.009544  d :     0.028174
      dxz     :     0.008948
      dyz     :     0.008466
      dx2y2   :     0.000943
      dxy     :     0.000273
  9 H s       :     0.835339  s :     0.835339
      pz      :     0.038242  p :     0.150999
      px      :     0.035770
      py      :     0.076987
      dz2     :     0.002841  d :     0.028774
      dxz     :     0.000110
      dyz     :     0.008899
      dx2y2   :     0.007557
      dxy     :     0.009368
 10 H s       :     0.846464  s :     0.846464
      pz      :     0.072476  p :     0.151407
      px      :     0.038645
      py      :     0.040287
      dz2     :     0.009294  d :     0.027613
      dxz     :     0.008906
      dyz     :     0.008579
      dx2y2   :     0.000680
      dxy     :     0.000154
 11 H s       :     0.850154  s :     0.850154
      pz      :     0.040465  p :     0.152973
      px      :     0.039616
      py      :     0.072893
      dz2     :     0.002908  d :     0.027711
      dxz     :     0.000073
      dyz     :     0.008808
      dx2y2   :     0.006856
      dxy     :     0.009066
 12 H s       :     0.843894  s :     0.843894
      pz      :     0.042321  p :     0.152131
      px      :     0.067441
      py      :     0.042369
      dz2     :     0.003993  d :     0.027729
      dxz     :     0.007578
      dyz     :     0.001076
      dx2y2   :     0.007545
      dxy     :     0.007538


                      *****************************
                      * MAYER POPULATION ANALYSIS *
                      *****************************

  NA   - Mulliken gross atomic population
  ZA   - Total nuclear charge
  QA   - Mulliken gross atomic charge
  VA   - Mayer's total valence
  BVA  - Mayer's bonded valence
  FA   - Mayer's free valence

  ATOM       NA         ZA         QA         VA         BVA        FA
  0 C      6.3111     6.0000    -0.3111     3.8086     3.8086    -0.0000
  1 C      5.7081     6.0000     0.2919     3.9798     3.9798    -0.0000
  2 O      8.3632     8.0000    -0.3632     2.1204     2.1204     0.0000
  3 C      6.1867     6.0000    -0.1867     3.7799     3.7799    -0.0000
  4 C      6.3050     6.0000    -0.3050     3.8865     3.8865    -0.0000
  5 H      0.8652     1.0000     0.1348     0.9932     0.9932    -0.0000
  6 H      0.8996     1.0000     0.1004     0.9806     0.9806     0.0000
  7 H      0.8958     1.0000     0.1042     0.9816     0.9816    -0.0000
  8 H      0.9009     1.0000     0.0991     0.9821     0.9821     0.0000
  9 H      0.8753     1.0000     0.1247     0.9935     0.9935    -0.0000
 10 H      0.8951     1.0000     0.1049     0.9765     0.9765    -0.0000
 11 H      0.9074     1.0000     0.0926     0.9759     0.9759    -0.0000
 12 H      0.8865     1.0000     0.1135     0.9773     0.9773    -0.0000

  Mayer bond orders larger than 0.1
B(  0-C ,  1-C ) :   0.9323 B(  0-C ,  5-H ) :   0.9791 B(  0-C ,  6-H ) :   0.9686 
B(  0-C ,  7-H ) :   0.9623 B(  1-C ,  2-O ) :   2.0987 B(  1-C ,  3-C ) :   0.9440 
B(  3-C ,  4-C ) :   0.9370 B(  3-C ,  8-H ) :   0.9679 B(  3-C ,  9-H ) :   0.9792 
B(  4-C , 10-H ) :   0.9772 B(  4-C , 11-H ) :   0.9777 B(  4-C , 12-H ) :   0.9816 


-------
TIMINGS
-------

Total SCF time: 0 days 0 hours 0 min 7 sec 

Total time                  ....       7.738 sec
Sum of individual times     ....       7.511 sec  ( 97.1%)

Fock matrix formation       ....       7.077 sec  ( 91.5%)
Diagonalization             ....       0.061 sec  (  0.8%)
Density matrix formation    ....       0.008 sec  (  0.1%)
Population analysis         ....       0.035 sec  (  0.4%)
Initial guess               ....       0.189 sec  (  2.4%)
Orbital Transformation      ....       0.000 sec  (  0.0%)
Orbital Orthonormalization  ....       0.000 sec  (  0.0%)
DIIS solution               ....       0.000 sec  (  0.0%)
SOSCF solution              ....       0.058 sec  (  0.8%)


           ************************************************************
           *        Program running with 8 parallel MPI-processes     *
           *              working on a common directory               *
           ************************************************************


------------------------------------------------------------------------------- 
                              ORCA-MATRIX DRIVEN CI                            
------------------------------------------------------------------------------- 


Wavefunction type
-----------------
Correlation treatment                      ...      CCSD     
Single excitations                         ... ON
Orbital optimization                       ... OFF
Calculation of Z vector                    ... OFF
Calculation of Brueckner orbitals          ... OFF
Perturbative triple excitations            ... ON
Calculation of F12 correction              ... OFF
Frozen core treatment                      ... chemical core (10 el)
Reference Wavefunction                     ... RHF
  Internal Orbitals:     5 ...   19 ( 15 MO's/ 30 electrons)
  Virtual  Orbitals:    20 ...  261 (242 MO's              )
Number of AO's                             ...    262
Number of electrons                        ...     40
Number of correlated electrons             ...     30

Algorithmic settings
--------------------
Integral transformation                    ... All integrals via the RI transformation
K(C) Formation                             ... RI-DLPNO
   PNO-Integral Storage                    ... ON DISK
   PNO occupation number cut-off           ... 1.000e-07
   Singles PNO occupation number cut-off   ... 3.000e-09
   PNO Mulliken prescreening cut-off       ... 1.000e-03
   Domain cut-off (Mulliken population)    ... 1.000e-03
   PNO Normalization                       ...    1
Maximum number of iterations               ...        50
Convergence tolerance (max. residuum)      ... 1.000e-05
Level shift for amplitude update           ... 2.000e-01
Maximum number of DIIS vectors             ...         7
DIIS turned on at iteration                ...         0
Damping before turning on DIIS             ...     0.500
Damping after turning on DIIS              ...     0.000
Pair specific amplitude update             ... OFF
Natural orbital iterations                 ... OFF
Perturbative natural orbital generation    ... OFF
Printlevel                                 ... 2

Singles Fock matrix elements calculated using PNOs.

Memory handling:
----------------
Maximum memory for working arrays          ...   8000 MB
Data storage in matrix containers          ... UNCOMPRESSED
Data type for integral storage             ... DOUBLE
In-Core Storage of quantities:
   Amplitudes+Sigma Vector      ... NO
   J+K operators                ... NO
   DIIS vectors                 ... NO
   3-external integrals         ... NO
   4-external integrals         ... NO

Localization treatment:
-----------------------
Localization option                        ...    6
Localization threshhold                    ... -1.0e+00
Using relative localization threshhold     ... 1.0e-08
Neglect threshold for strong pairs         ... 1.000e-05 Eh
Prescreening threshold for very weak pairs ... 1.000e-07 Eh

Initializing the integral package          ... done
Localizing the valence orbitals
------------------------------------------------------------------------------
                           ORCA ORBITAL LOCALIZATION
------------------------------------------------------------------------------

Input orbitals are from                  ... 2_butanone_skew.proc0.gbw
Output orbitals are to                   ... 2_butanone_skew.proc0.loc
Max. number of iterations                ... 128
Localizations seeded randomly            ... off
Convergence tolerance                    ... 1.000e-06
Using relative localization threshhold   ... 1.000e-08
Treshold for strong local MOs            ... 9.500e-01
Treshold for bond MOs                    ... 8.500e-01
Operator                                 ... 0
Orbital range for localization           ... 5 to 19
Localization criterion                   ... FOSTER-BOYS (AUGMENTED HESSIAN)
Doing the dipole integrals     ... o.k.
Initial value of the localization sum :   120.055504
ITERATION   0 : L=  158.2276510409 DL=  3.82e+01 (AVERGE_DL)=    0.6029463164 
ITERATION   1 : L=  164.7915670664 DL=  6.56e+00 (AVERGE_DL)=    0.2500269705 
ITERATION   2 : L=  164.8557133986 DL=  6.41e-02 (AVERGE_DL)=    0.0247167443 
ITERATION   3 : L=  164.8567647907 DL=  1.05e-03 (AVERGE_DL)=    0.0031643733 
ITERATION   4 : L=  164.8568368890 DL=  7.21e-05 (AVERGE_DL)=    0.0008286437 
ITERATION   5 : L=  164.8568433196 DL=  6.43e-06 (AVERGE_DL)=    0.0002474749 
ITERATION   6 : L=  164.8568437637 DL=  4.44e-07 (AVERGE_DL)=    0.0000650313 
LOCALIZATION SUM CONVERGED

------------------------------------------------------
AUGMENTED HESSIAN OPTIMIZATION OF FOSTER-BOYS ORBITALS
------------------------------------------------------

Spin operator:           0
Orbital window:          5 to 19
Number of iterations:    128
Gradient tolerance:      1.000e-06
Number of pairs:         105
Davidson threshold:      2000
Diagonalization method:  LAPACK
Iter:    0   L: 164.8568437637   Grad. norm: 9.782645e-04
   *** Likely close to a maximum now. ***
       Augmented Hessian eigenvalues:  6.49e-08 -1.72e+00 -2.40e+00 -3.11e+00 ... 
Iter:    1   L: 164.8568437961   Grad. norm: 3.433800e-08
LOCALIZATION HAS CONVERGED.

Eigenvalues of the Hessian:
  0 -1.720e+00
  1 -2.398e+00
  2 -3.113e+00
  3 -5.590e+00
  4 -6.715e+00
  5 -7.294e+00
  6 -1.629e+01
  7 -1.669e+01
  8 -1.696e+01
  9 -1.720e+01
    ...


------------------------------------------------------------------------------- 
                    LOCALIZED MOLECULAR ORBITAL COMPOSITIONS                   
------------------------------------------------------------------------------- 

The Mulliken populations for each LMO on each atom are computed
The LMO`s will be ordered according to atom index and type
  (A) Strongly localized MO`s have populations of >=0.950 on one atom
  (B) Two center bond orbitals have populations of >=0.850 on two atoms
  (C) Other MO`s are considered to be `delocalized`

FOUND  -   2 strongly local MO`s
       -  13 two center bond MO`s
       -   0 significantly delocalized MO`s

Rather strongly localized orbitals:
MO   6:   2O  -   0.956881
MO   5:   2O  -   0.957079
Bond-like localized orbitals:
MO  19:  12H  -   0.462086  and   4C  -   0.563283
MO  18:  11H  -   0.475680  and   4C  -   0.549431
MO  17:  10H  -   0.467303  and   4C  -   0.558207
MO  16:   9H  -   0.447491  and   3C  -   0.581698
MO  15:   8H  -   0.469382  and   3C  -   0.546241
MO  14:   7H  -   0.467049  and   0C  -   0.543634
MO  13:   6H  -   0.468885  and   0C  -   0.549343
MO  12:   5H  -   0.441764  and   0C  -   0.584538
MO  11:   4C  -   0.506806  and   3C  -   0.513970
MO  10:   3C  -   0.521318  and   1C  -   0.534049
MO   9:   2O  -   0.646706  and   1C  -   0.367339
MO   8:   2O  -   0.646972  and   1C  -   0.361653
MO   7:   1C  -   0.532846  and   0C  -   0.516198
Localized MO's were stored in: 2_butanone_skew.proc0.loc

Localizing the core orbitals
------------------------------------------------------------------------------
                           ORCA ORBITAL LOCALIZATION
------------------------------------------------------------------------------

Input orbitals are from                  ... 2_butanone_skew.proc0.loc
Output orbitals are to                   ... 2_butanone_skew.proc0.loc
Max. number of iterations                ... 128
Localizations seeded randomly            ... off
Convergence tolerance                    ... 1.000e-06
Using relative localization threshhold   ... 1.000e-08
Treshold for strong local MOs            ... 9.500e-01
Treshold for bond MOs                    ... 8.500e-01
Operator                                 ... 0
Orbital range for localization           ... 0 to 4
Localization criterion                   ... FOSTER-BOYS (AUGMENTED HESSIAN)
Doing the dipole integrals     ... o.k.
Initial value of the localization sum :    39.919155
ITERATION   0 : L=   39.9191600012 DL=  5.19e-06 (AVERGE_DL)=    0.0007205326 
ITERATION   1 : L=   39.9191600012 DL=  0.00e+00 (AVERGE_DL)=    0.0000000000 
LOCALIZATION SUM CONVERGED

------------------------------------------------------
AUGMENTED HESSIAN OPTIMIZATION OF FOSTER-BOYS ORBITALS
------------------------------------------------------

Spin operator:           0
Orbital window:          0 to 4
Number of iterations:    128
Gradient tolerance:      1.000e-06
Number of pairs:         10
Davidson threshold:      2000
Diagonalization method:  LAPACK
Iter:    0   L: 39.9191600012   Grad. norm: 1.996529e-06
   *** Likely close to a maximum now. ***
       Augmented Hessian eigenvalues:  7.44e-14 -2.13e+01 -3.30e+01 -3.32e+01 ... 
Iter:    1   L: 39.9191600012   Grad. norm: 2.487087e-20
LOCALIZATION HAS CONVERGED.

Eigenvalues of the Hessian:
  0 -2.126e+01
  1 -3.298e+01
  2 -3.317e+01
  3 -3.382e+01
  4 -8.154e+01
  5 -8.192e+01
  6 -9.450e+01
  7 -9.696e+01
  8 -1.399e+02
  9 -1.788e+02


------------------------------------------------------------------------------- 
                    LOCALIZED MOLECULAR ORBITAL COMPOSITIONS                   
------------------------------------------------------------------------------- 

The Mulliken populations for each LMO on each atom are computed
The LMO`s will be ordered according to atom index and type
  (A) Strongly localized MO`s have populations of >=0.950 on one atom
  (B) Two center bond orbitals have populations of >=0.850 on two atoms
  (C) Other MO`s are considered to be `delocalized`

FOUND  -   5 strongly local MO`s
       -   0 two center bond MO`s
       -   0 significantly delocalized MO`s

Rather strongly localized orbitals:
MO   4:   4C  -   1.001086
MO   3:   3C  -   1.001426
MO   2:   2O  -   0.999592
MO   1:   1C  -   1.000536
MO   0:   0C  -   1.001234
Localized MO's were stored in: 2_butanone_skew.proc0.loc

Warning: internal orbitals are localized - no re-canonicalization of internal orbitals

--------------------------
CLOSED-SHELL FOCK OPERATOR
--------------------------

RI-JK section for the Fock operator:
  RHF full Fock operator         ... done
  RHF frozen core Fock operator  ... done
Time needed for Fock operator              ...            1.066 sec
Reference energy                           ...   -231.078266387

--------------
DLPNO SETTINGS (2015 fully linear scaling implementation)
--------------

TCutMKN:           1.000e-03
TCutPAO:           1.000e-03
TCutPNO:           1.000e-07
TCutPNOSingles:    3.000e-09
TCutEN:            9.700e-01
TCutPAOExt:        1.000e-01
TCutPairs:         1.000e-05
TCutPre:           1.000e-07
TCutOSV:           1.000e-06
TCutDOij:          1.000e-05
TCutDO:            5.000e-03
TCutC:             1.000e-04
TCutCPAO:          1.000e-03
TCutCMO:           1.000e-03
TScaleDOMP2PreScr: 2.000e+00
TScaleMKNMP2PreScr:1.000e+01
TScalePNOMP2PreScr:1.000e+00
PAO overlap thresh 1.000e-08
Using PNOs for Singles Fock computation
Use new domains
Use fully linear algorithm
TCutTNO:           1.000e-09
TCutMP2Pairs:      1.000e-06
TCutDOStrong:      2.000e-03
TCutMKNStrong:     1.000e-02
TCutMKNWeak:       1.000e-01
TCutDOWeak:        4.000e-03
NTCutTNO:          1

--------------------------
Calculating differential overlap integrals ... ok
--------------------------
ELECTRON PAIR PRESCREENING
--------------------------

Dipole-based pair screening          .... used

   TCutDOij = 1.000000e-05
   TCutPre  = 1.000000e-07
   .... Finished loop over pairs
Total time spent in the prescreening                  ...     0.000 sec
sum of pair energies estimated for screened out pairs ...       0.000000000000 Eh
Thresholds for map construction and integral transformation for crude MP2:
   TCutMKN                    ...     1.0e-02
   TCutDO                     ...     1.0e-02
   TCutPairs                  ...     1.0e-05
   TCutPNO_CrudeMP2           ...     1.0e-07
   TCutPNOSingles_CrudeMP2    ...     3.0e-09
--------------------------------
LOCAL RI TRANSFORMATION (IAVPAO)
--------------------------------

Orbital window:       5 to 19
Number of PAOs:     262
Basis functions:    262 (98 shells)
Aux. functions:     645 (195 shells)

Processing maps (0.0 sec)
Average map sizes:
   Aux shells -> MOs              15.0
   Aux shells -> PAOs            262.0
   MOs        -> AO shells        97.6
   PAOs       -> AO shells        98.0

Calculating integrals (0.4 sec, 19.347 MB)
Sorting integrals (0.0 sec, 19.340 MB)
Total time for the integral transformation: 0.5 sec
--------------------------------
INITIAL GUESS AND PNO GENERATION
--------------------------------

PNO truncation parameters                   .... 
    PAOOverlapThresh   =        1.000e-08

    TCutPairs          =        1.000e-05
    TCutPNO            =        1.000e-07
    TCutPNOSingles     =        3.000e-09
    TCutMP2Pairs       =        1.000e-06
    TCutMKN            =        1.000e-02
    TCutDO             =        1.000e-02

Pair selection                          .... not used
Type of local MP2 treatment                 .... semi-local MP2
Strategy for PNO selection                  .... occupation number selection
Pair density normalization                  .... MP2 norm
Spin component scaling                      .... not used

   .... Finished loop over pairs
Making pair pair interaction lists          ... done

                       ===========================
                        120 OF  120 PAIRS ARE KEPT CCSD PAIRS
                          0 OF  120 PAIRS ARE KEPT MP2 PAIRS FOR (T)
                          0 OF  120 PAIRS ARE SKIPPED
                       ===========================

Total time spent in the initial guess                 ...     0.718 sec
SL-MP2 correlation energy (all non-screened pairs)    ...      -0.886018092049 Eh

Initial PNO correlation energy                        ...      -0.885300146521 Eh
sum of pair energies prescreened and skipped MP2 pairs...       0.000000000000 Eh
sum of pair energies of crude MP2 skipped pairs only  ...       0.000000000000 Eh
sum of MP2 pair energies for pairs that were not kept ...       0.000000000000 Eh
sum of PNO error estimates for the kept pairs         ...      -0.000717945528 Eh
                                                          --------------------
sum of all corrections                                         -0.000717945528
Initial total correlation energy                               -0.886018092049
Thresholds for map construction and integral transformation for fine MP2 and CCSD(T) calculation:
   TCutMKN   ...     1.0e-03
   TCutDO    ...     5.0e-03
   TCutPairs ...     1.0e-05
   TCutCMO   ...     1.0e-03
   TCutCPAO  ...     1.0e-03

Thresholds for map construction and integral transformation for strong Triples:
   TCutMKN   ...     1.0e-02
   TCutDO    ...     1.0e-02
   TCutCMO   ...     1.0e-03
   TCutCPAO  ...     1.0e-03

Thresholds for map construction and integral transformation for weak Triples:
   TCutMKN   ...     1.0e-01
   TCutDO    ...     2.0e-02
   TCutCMO   ...     1.0e-03
   TCutCPAO  ...     1.0e-03

--------------------------------
LOCAL RI TRANSFORMATION (IAVPAO)
--------------------------------

Orbital window:       5 to 19
Number of PAOs:     262
Basis functions:    262 (98 shells)
Aux. functions:     645 (195 shells)

Processing maps (0.0 sec)
Average map sizes:
   Aux shells -> MOs              15.0
   Aux shells -> PAOs            262.0
   MOs        -> AO shells        97.6
   PAOs       -> AO shells        98.0

Calculating integrals (0.4 sec, 19.347 MB)
Sorting integrals (0.0 sec, 19.340 MB)
Total time for the integral transformation: 0.5 sec
--------------------------------
INITIAL GUESS AND PNO GENERATION
--------------------------------

PNO truncation parameters                   .... 
    ScaleTCutPNO       =        1.000e-02
    PAOOverlapThresh   =        1.000e-08

    TCutPairs          =        1.000e-05
    TCutPNO            =        1.000e-07
    TCutPNOSingles     =        3.000e-09
    TCutMP2Pairs       =        1.000e-06
    TCutMKN            =        1.000e-03
    TCutDO             =        5.000e-03

Pair selection                          .... not used
Type of local MP2 treatment                 .... full local PMP2
Strategy for PNO selection                  .... occupation number selection
Pair density normalization                  .... MP2 norm
Spin component scaling                      .... not used

PASS-1: Formation of initial guess LMP2 amplitudes
Initial amplitudes guess done. Entering LMP2 iteration loop:
   Max. no of iterations          ...  50
   Energy convergence tolerance   ...    1.0e-07
   Residual convergence tolerance ...    5.0e-07
   Fock matrix cutoff             ...    1.0e-05 Eh
   DIIS convergence acceleration parameters:
        Max # vectors in DIIS     ... 7
        Start iteration of DIIS   ... 0
        Levelshift                ... 2.000e-01
        Damping factor 1          ... 5.000e-01
        Damping factor 2          ... 1.000e+00
   L-MP2 PNO cut-off              ...   1.0e-09
   L-MP2 PNO cut-off (core)       ...   1.0e-11
                           *** Turning on DIIS ***
LMP2-Iter=   0:  ELMP2= -0.904600619432  DE=   1.8e-02 RMAX=   2.1e-02
LMP2-Iter=   1:  ELMP2= -0.914307641987  DE=   9.7e-03 RMAX=   9.8e-03
LMP2-Iter=   2:  ELMP2= -0.916117426952  DE=   1.8e-03 RMAX=   4.0e-03
LMP2-Iter=   3:  ELMP2= -0.916381602659  DE=   2.6e-04 RMAX=   1.4e-03
LMP2-Iter=   4:  ELMP2= -0.916378574357  DE=   3.0e-06 RMAX=   3.6e-04
LMP2-Iter=   5:  ELMP2= -0.916371549119  DE=   7.0e-06 RMAX=   8.0e-05
LMP2-Iter=   6:  ELMP2= -0.916370100770  DE=   1.4e-06 RMAX=   1.1e-05
LMP2-Iter=   7:  ELMP2= -0.916370132292  DE=   3.2e-08 RMAX=   1.3e-06
LMP2-Iter=   8:  ELMP2= -0.916370175733  DE=   4.3e-08 RMAX=   2.6e-07
LMP2-Iter=   9:  ELMP2= -0.916370175270  DE=   4.6e-10 RMAX=   6.6e-08 => CONVERGED
PASS-2: Formation of Pair natural orbitals
   .... Finished loop over pairs

 PNO Occupation Number Statistics: 
  | Av. % of trace(Dij) retained        ...  99.653732422493
  | sigma^2 in % of trace(Dij) retained ...   2.15e-01
  | Av. % of trace(Di) retained         ...  99.999775666639
  | sigma^2 in % of trace(Di) retained  ...   5.12e-09
 Distributions of % trace(Dij) recovered:
  |       >= 99.9  ...    46 ( 38.3 % of all pairs)
  |   [90.0, 99.0) ...    10 (  8.3 % of all pairs)
  |   [99.0, 99.9) ...    64 ( 53.3 % of all pairs)
 Distributions of % trace(Di) recovered :
  |       >= 99.9  ...    15 (100.0 % of all I-pairs )

Making pair pair interaction lists          ... done

                       ===========================
                        120 OF  120 PAIRS ARE KEPT
                       ===========================

Total time spent in the initial guess                 ...     5.788 sec
L-MP2 correlation energy (all non-screened pairs)     ...      -0.916370175270 Eh
L-MP2 PNO error correction                            ...      -0.000013069013 Eh
                                                          --------------------
Initial total L-MP2 energy (non-screened pairs)       ...      -0.916383244283 Eh

Initial PNO correlation energy                        ...      -0.915684163115 Eh
sum of pair energies estimated for screened out pairs ...       0.000000000000 Eh
sum of MP2 pair energies for pairs that were not kept ...       0.000000000000 Eh
sum of PNO error estimates for the kept pairs         ...      -0.000699081168 Eh
                                                          --------------------
sum of all corrections                                         -0.000699081168
Initial total correlation energy                               -0.916383244283
Thresholds for map construction and integral transformation for fine MP2 and CCSD(T) calculation:
   TCutMKN   ...     1.0e-03
   TCutDO    ...     5.0e-03
   TCutPairs ...     1.0e-05
   TCutCMO   ...     1.0e-03
   TCutCPAO  ...     1.0e-03

Time for aux screen maps:            0.002
Time for maps after fine MP2:            0.007
-----------------------------
LOCAL RI TRANSFORMATION (IJV)
-----------------------------

Orbital window:       5 to 19
Basis functions:    262 (98 shells)
Aux. functions:     645 (195 shells)

Processing maps (0.0 sec)
Average map sizes:
   Aux shells -> MOs(i)           15.0
   Aux shells -> MOs(j)           15.0
   MOs        -> AO shells        97.6

Calculating integrals (0.4 sec, 1.115 MB)
Sorting integrals (0.0 sec, 1.107 MB)
Total time for the integral transformation: 0.4 sec
--------------------------------
LOCAL RI TRANSFORMATION (VABPAO)
--------------------------------

Number of PAOs:     262
Basis functions:    262 (98 shells)
Aux. functions:     645 (195 shells)

Processing maps (0.0 sec)
Average map sizes:
   Aux shells -> PAOs            262.0
   PAOs       -> AO shells        98.0

Calculating integrals (1.0 sec, 632.134 MB)
Finished


-------------------------------------
Pair Pair Term precalculation with     
RI-(ij|mn) and (im|jn) transformation  
ON THE FLY                             
-------------------------------------

   IBatch   1 (of   1)              ... done (   21.253 sec)
Total EXT                           ...          21.253 sec

---------------------
RI-PNO TRANSFORMATION
---------------------

Total Number of PNOs                   ...  5312
Average number of PNOs per pair        ...    44
Maximal number of PNOs per pair        ...    70
   #pairs with  1 -  5 PNOs   :    0
   #pairs with  6 - 10 PNOs   :    0
   #pairs with 11 - 15 PNOs   :    3
   #pairs with 16 - 20 PNOs   :    8
   #pairs with 21 - 25 PNOs   :   10
   #pairs with 26 - 30 PNOs   :   10
   #pairs with 31 - 35 PNOs   :    3
   #pairs with 36 - 40 PNOs   :   10
   #pairs with 41 - 45 PNOs   :   12
   #pairs with 46 - 50 PNOs   :   17
   #pairs with 51 - 55 PNOs   :   19
   #pairs with 56 - 60 PNOs   :    2
   #pairs with 61 - 65 PNOs   :   16
   #pairs with 66 - 70 PNOs   :   10

Generation of (ij|ab)[P] integrals            ... on
Generation of (ia|bc)[P],(ja|bc)[P] integrals ... on
Storage of 3 and 4 external integrals         ... on
Generation of ALL (ka|bc)[P] integrals        ... on
Keep RI integrals in memory                   ... off

Ibatch:  1 (of  1)
Starting 2-4 index PNO integral generation ... done

Timings:
Total PNO integral transformation time     ...          9.595 sec
Size of the 3-external file                ...       110 MB
Size of the 4-external file                ...       792 MB
Size of the IKJL file                      ...         0 MB
Size of the all 3-external file            ...       828 MB
Size of the 1-external file                ...         1 MB

Making pair/pair overlap matrices          ... done (    0.723 sec)
Size of the pair overlap file              ... 163 MB
Redoing the guess amplitudes               ... done (    0.002 sec)

-------------------------
FINAL STARTUP INFORMATION
-------------------------

E(0)                                       ...   -231.078266387
E(L-MP2)                                   ...     -0.916383244
E(L-MP2) including corrections             ...     -0.916383244
Initial E(tot)                             ...   -231.994649631
<T|T>                                      ...      0.245452542
Number of pairs included                   ... 120
Total number of pairs                      ... 120

------------------------------------------------
                  RHF COUPLED CLUSTER ITERATIONS
------------------------------------------------

Number of PNO amplitudes to be optimized   ...       264752
Number of non-PNO amplitudes               ...      7027680
Untruncated number of regular amplitudes   ...      7027680

Iter       E(tot)           E(Corr)          Delta-E          Residual     Time
  0   -231.964284057     -0.885318589      0.031064655      0.016392754    6.83
                           *** Turning on DIIS ***
  1   -232.003139447     -0.924173979     -0.038855390      0.014213417    6.85
  2   -232.027743100     -0.948777631     -0.024603653      0.007456577    6.84
  3   -232.033002035     -0.954036567     -0.005258936      0.004599412    6.81
  4   -232.034517052     -0.955551584     -0.001515017      0.002350031   13.46
  5   -232.035002562     -0.956037093     -0.000485509      0.001026743    6.86
  6   -232.035144754     -0.956179286     -0.000142192      0.000409876    6.82
  7   -232.035166562     -0.956201094     -0.000021808      0.000161653    6.83
  8   -232.035163256     -0.956197788      0.000003306      0.000062006    6.82
  9   -232.035160345     -0.956194877      0.000002911      0.000020204    6.84
 10   -232.035160178     -0.956194709      0.000000167      0.000004646    6.83
               --- The Coupled-Cluster iterations have converged ---

----------------------
COUPLED CLUSTER ENERGY
----------------------

E(0)                                       ...   -231.078266387
E(CORR)(strong-pairs)                      ...     -0.956194709
E(CORR)(weak-pairs)                        ...     -0.000699081
E(CORR)(corrected)                         ...     -0.956893790
E(TOT)                                     ...   -232.035160178
Singles Norm <S|S>**1/2                    ...      0.068090249  
T1 diagnostic                              ...      0.012431522  

------------------
LARGEST AMPLITUDES
------------------
   9-> 20   9-> 20       0.056144
   8-> 20   8-> 20       0.055789
   9-> 20   8-> 20       0.047509
  18-> 27  18-> 27       0.029655
   9-> 20  -1-> -1       0.029591
   8-> 20  -1-> -1       0.029405
  18-> 20  18-> 20       0.027630
  13-> 20  13-> 20       0.027193
  17-> 20  17-> 20       0.027111
  15-> 20  15-> 20       0.026871
  16-> 20  16-> 20       0.026857
  19-> 20  19-> 20       0.026458
  12-> 20  12-> 20       0.025799
  18-> 27  18-> 20       0.024705
  18-> 20  18-> 27       0.024705
  14-> 20  14-> 20       0.024531


-------------------------------------------
DLPNO BASED TRIPLES CORRECTION
-------------------------------------------

Singles multiplier          ...  1.000000
TCutTNO                     ... 1.000e-09
TCutMP2Pairs                ... 1.000e-06
TCutDOStrong                ... 1.000e-02
TCutMKNStrong               ... 1.000e-02
TCutDOWeak                  ... 2.000e-02
TCutMKNWeak                 ... 1.000e-01

Fragment selection                          .... not used
Number of Triples that are to be computed   ...       665

 . . . . . . . . .
10% done  
20% done  
30% done  
40% done  
50% done  
60% done  
70% done  
80% done  
90% done               (     47.493 sec)
Triples timings:
Total time for T0               ...    50.406 sec
Total time for Iterative (T)    ...     0.000 sec
Total time of overall (T)       ...    51.603 sec

Triples List generation         ...     0.000 sec
TNO generation                  ...     2.909 sec
Pair density generation         ...     0.003 sec
Look up tables                  ...     0.000 sec
Generating 3-index integrals    ...    27.265 sec
  Make 4-ind.int. from 3-ind.int...     7.166 sec
  Projecting amplitudes (D + S) ...     3.139 sec
  Downprojecting integrals      ...     0.001 sec
  Energy contr. (sum over a,b,c)...     2.897 sec
Fitting ET(->0)                 ...     0.000 sec

Everything after 3-index        ...    20.227 sec

Timing details:
 TNO integrals                  ...    33.821 sec
   Reading 3-index integrals    ...     0.114 sec
   Sorting integrals            ...     5.021 sec
       Sorting integrals 1      ...     0.000 sec
       Sorting integrals 2      ...     1.929 sec
       Sorting integrals 3      ...     0.172 sec
       Sorting integrals 4      ...     0.008 sec
       Sorting integrals 5      ...     0.047 sec
       Sorting integrals 6      ...     2.865 sec
   Calculating local VM**-1/2   ...     0.153 sec
   Orthogonal. integrals        ...     0.314 sec
   Multipl. 3-index integrals   ...    28.219 sec
   All concerning IRIab (w/TNO) ...     3.647 sec

 Calculate W0/W1                ...     7.020 sec
 W 3-ext contribution           ...     3.834 sec
 W 3-int contribution           ...     0.978 sec
 Sorting W                      ...     2.108 sec

 V exchange contribution        ...     0.920 sec

 Timings for Triples without generation
     of 3-index integrals       ...    20.226 sec
       0 weak pairs             ...    20.226 sec
       1 weak pair              ...     0.000 sec
       2 weak pairs             ...     0.000 sec
       3 weak pairs             ...     0.000 sec
  Extra time for extrapolation  ...     0.000 sec

Number of Triples   (0, 1, 2, 3 weak pairs; overall):    665       0       0       0  (   665)
Number of Atoms     (0, 1, 2, 3 weak pairs; overall):   12.7     0.0     0.0     0.0  (    13)
Number of PAOs      (0, 1, 2, 3 weak pairs; overall):  258.4     0.0     0.0     0.0  (   262)
Number of AuxFcns   (0, 1, 2, 3 weak pairs; overall):  354.8     0.0     0.0     0.0  (   645)
Number of TNOs      (0, 1, 2, 3 weak pairs         ):  100.2     0.0     0.0     0.0
Aver. Number of NTNO, Atoms, PAOs, AuxFcns / Triples:    665   100.2    12.7   258.4   354.8

Triples Correction (T)                     ...     -0.037848330
Final correlation energy                   ...     -0.994742121
E(CCSD)                                    ...   -232.035160178
E(CCSD(T))                                 ...   -232.073008508


Maximum memory used throughout the entire calculation: 4082.3 MB


------------------------------------------------------------------------------- 
                                     TIMINGS                                   
------------------------------------------------------------------------------- 


Total execution time                   ...      190.625 sec

Localization of occupied MO's          ...        0.471 sec (  0.2%)
Fock Matrix Formation                  ...        1.066 sec (  0.6%)
Global overlap, Fock, MKN matrices     ...        0.169 sec (  0.1%)
Differential overlap integrals         ...        0.068 sec (  0.0%)
Organizing maps                        ...        0.020 sec (  0.0%)
RI 3-index integral generations        ...        2.361 sec (  1.2%)
RI-PNO integral transformation         ...       46.043 sec ( 24.2%)
Initial Guess                          ...        6.537 sec (  3.4%)
DIIS Solver                            ...        1.013 sec (  0.5%)
State Vector Update                    ...        0.022 sec (  0.0%)
Sigma-vector construction              ...       81.597 sec ( 42.8%)
  <D|H|D>(0-ext)                       ...        1.129 sec (  1.4% of sigma)
  <D|H|D>(2-ext Fock)                  ...        0.009 sec (  0.0% of sigma)
  <D|H|D>(2-ext)                       ...        4.901 sec (  6.0% of sigma)
  <D|H|D>(4-ext)                       ...       11.544 sec ( 14.1% of sigma)
  <D|H|D>(4-ext-corr)                  ...       46.655 sec ( 57.2% of sigma)
  CCSD doubles correction              ...        0.103 sec (  0.1% of sigma)
  <S|H|S>                              ...        0.166 sec (  0.2% of sigma)
  <S|H|D>(1-ext)                       ...        0.180 sec (  0.2% of sigma)
  <D|H|S>(1-ext)                       ...        0.006 sec (  0.0% of sigma)
  <S|H|D>(3-ext)                       ...        0.387 sec (  0.5% of sigma)
  Fock-dressing                        ...       13.600 sec ( 16.7% of sigma)
  Singles amplitudes                   ...        0.234 sec (  0.3% of sigma)
  (ik|jl)-dressing                     ...        0.887 sec (  1.1% of sigma)
  (ij|ab),(ia|jb)-dressing             ...        1.257 sec (  1.5% of sigma)
  Pair energies                        ...        0.005 sec (  0.0% of sigma)
Total Time for computing (T)           ...       51.631 sec ( 27.1% of ALL)


-------------------------   --------------------
FINAL SINGLE POINT ENERGY      -232.073008507857
-------------------------   --------------------


                            ***************************************
                            *     ORCA property calculations      *
                            ***************************************

                                    ---------------------
                                    Active property flags
                                    ---------------------
   (+) Dipole Moment


------------------------------------------------------------------------------
                       ORCA ELECTRIC PROPERTIES CALCULATION
------------------------------------------------------------------------------

Dipole Moment Calculation                       ... on
Quadrupole Moment Calculation                   ... off
Polarizability Calculation                      ... off
GBWName                                         ... 2_butanone_skew.gbw
Electron density file                           ... 2_butanone_skew.scfp.tmp
The origin for moment calculation is the CENTER OF MASS  = (-0.129030, -0.107919 -0.014289)

-------------
DIPOLE MOMENT
-------------
                                X             Y             Z
Electronic contribution:     -4.25698      -3.38713      -0.24033
Nuclear contribution   :      5.16117       4.31670       0.57146
                        -----------------------------------------
Total Dipole Moment    :      0.90419       0.92957       0.33113
                        -----------------------------------------
Magnitude (a.u.)       :      1.33840
Magnitude (Debye)      :      3.40194



--------------------
Rotational spectrum 
--------------------
 
Rotational constants in cm-1:     0.257734     0.126644     0.095795 
Rotational constants in MHz :  7726.667357  3796.677293  2871.858554 

 Dipole components along the rotational axes: 
x,y,z [a.u.] :     0.967089    -0.874198     0.303034 
x,y,z [Debye]:     2.458144    -2.222035     0.770250 

 

Timings for individual modules:

Sum of individual times         ...      199.247 sec (=   3.321 min)
GTO integral calculation        ...        0.536 sec (=   0.009 min)   0.3 %
SCF iterations                  ...        7.858 sec (=   0.131 min)   3.9 %
MDCI module                     ...      190.852 sec (=   3.181 min)  95.8 %
                             ****ORCA TERMINATED NORMALLY****
TOTAL RUN TIME: 0 days 0 hours 3 minutes 19 seconds 495 msec
2_butanone_skew.gbw -> /home1/pantazis/klk/xyz_1/Oxygen_compounds/2_butanone_skew.gbw
2_butanone_skew.job -> /home1/pantazis/klk/xyz_1/Oxygen_compounds/2_butanone_skew.job
2_butanone_skew.loc -> /home1/pantazis/klk/xyz_1/Oxygen_compounds/2_butanone_skew.loc
2_butanone_skew.nodes -> /home1/pantazis/klk/xyz_1/Oxygen_compounds/2_butanone_skew.nodes
2_butanone_skew.prop -> /home1/pantazis/klk/xyz_1/Oxygen_compounds/2_butanone_skew.prop
2_butanone_skew_property.txt -> /home1/pantazis/klk/xyz_1/Oxygen_compounds/2_butanone_skew_property.txt
2_butanone_skew.xyz -> /home1/pantazis/klk/xyz_1/Oxygen_compounds/2_butanone_skew.xyz
cp: cannot stat 2_butanone_skew.asa.inp: No such file or directory
