! Job execution by suborca V 6.07 on ZEUS !
Job started from zeus1, running /scratch/pantazis/2_keto_cyclodecanone__HvWOZ3/orca/orca copied from /opt/orca on zeussn124 in /scratch/pantazis/2_keto_cyclodecanone__HvWOZ3
Job execution start: Thu Jun 27 13:11:22 CEST 2019
Shared library path: /scratch/pantazis/2_keto_cyclodecanone__HvWOZ3/orca:/opt/openmpi_1.10.2/lib:/opt/intel/mkl/lib/intel64:/opt/intel/lib/intel64:
PBS Job ID is: 158108.icqc
izeussn124
izeussn124
izeussn124
izeussn124
izeussn124
izeussn124
izeussn124
izeussn124

                                 *****************
                                 * O   R   C   A *
                                 *****************

           --- An Ab Initio, DFT and Semiempirical electronic structure package ---

                  #######################################################
                  #                        -***-                        #
                  #          Department of theory and spectroscopy      #
                  #               Directorship: Frank Neese             #
                  #        Max Planck Institute fuer Kohlenforschung    #
                  #                Kaiser Wilhelm Platz 1               #
                  #                 D-45470 Muelheim/Ruhr               #
                  #                      Germany                        #
                  #                                                     #
                  #                  All rights reserved                #
                  #                        -***-                        #
                  #######################################################


                         Program Version 4.1.x  -  STABLE  -
                                (SVN: $Rev: 14094$)
                ($Date: 2019-06-14 15:01:15 +0200 (Fri, 14 Jun 2019) $)

                         (BUILD: $Sun Jun 23 06:18:31 CEST 2019$)


 With contributions from (in alphabetic order):
   Daniel Aravena         : Magnetic Properties
   Michael Atanasov       : Ab Initio Ligand Field Theory
   Alexander A. Auer      : GIAO ZORA
   Ute Becker             : Parallelization
   Giovanni Bistoni       : ED, Open-shell LED
   Martin Brehm           : Molecular dynamics
   Dmytro Bykov           : SCF Hessian
   Vijay G. Chilkuri      : MRCI spin determinant printing
   Dipayan Datta          : RHF DLPNO-CCSD density
   Achintya Kumar Dutta   : EOM-CC, STEOM-CC
   Dmitry Ganyushin       : Spin-Orbit,Spin-Spin,Magnetic field MRCI
   Miquel Garcia          : C-PCM Hessian
   Yang Guo               : DLPNO-NEVPT2, CIM, IAO-localization
   Andreas Hansen         : Spin unrestricted coupled pair/coupled cluster methods
   Benjamin Helmich-Paris : CASSCF linear response (MC-RPA)
   Lee Huntington         : MR-EOM, pCC
   Robert Izsak           : Overlap fitted RIJCOSX, COSX-SCS-MP3, EOM
   Christian Kollmar      : KDIIS, OOCD, Brueckner-CCSD(T), CCSD density
   Simone Kossmann        : Meta GGA functionals, TD-DFT gradient, OOMP2, MP2 Hessian
   Martin Krupicka        : AUTO-CI
   Lucas Lang             : DCDCAS
   Dagmar Lenk            : GEPOL surface, SMD
   Dimitrios Liakos       : Extrapolation schemes; parallel MDCI
   Dimitrios Manganas     : ROCIS; embedding schemes
   Dimitrios Pantazis     : SARC Basis sets
   Taras Petrenko         : DFT Hessian,TD-DFT gradient, ASA, ECA, R-Raman, ABS, FL, XAS/XES, NRVS
   Peter Pinski           : DLPNO-MP2, DLPNO-MP2 Gradient
   Christoph Reimann      : Effective Core Potentials
   Marius Retegan         : Local ZFS, SOC
   Christoph Riplinger    : Optimizer, TS searches, QM/MM, DLPNO-CCSD(T), (RO)-DLPNO pert. Triples
   Tobias Risthaus        : Range-separated hybrids, TD-DFT gradient, RPA, STAB
   Michael Roemelt        : Restricted open shell CIS
   Masaaki Saitow         : Open-shell DLPNO
   Barbara Sandhoefer     : DKH picture change effects
   Avijit Sen             : IP-ROCIS
   Kantharuban Sivalingam : CASSCF convergence, NEVPT2, FIC-MRCI
   Bernardo de Souza      : ESD, SOC TD-DFT
   Georgi Stoychev        : AutoAux, RI-MP2 NMR
   Willem Van den Heuvel  : Paramagnetic NMR
   Boris Wezisla          : Elementary symmetry handling
   Frank Wennmohs         : Technical directorship


 We gratefully acknowledge several colleagues who have allowed us to
 interface, adapt or use parts of their codes:
   Stefan Grimme, W. Hujo, H. Kruse,             : VdW corrections, initial TS optimization,
                  C. Bannwarth                     DFT functionals, gCP, sTDA/sTD-DF
   Ed Valeev                                     : LibInt (2-el integral package), F12 methods
   Garnet Chan, S. Sharma, J. Yang, R. Olivares  : DMRG
   Ulf Ekstrom                                   : XCFun DFT Library
   Mihaly Kallay                                 : mrcc  (arbitrary order and MRCC methods)
   Andreas Klamt, Michael Diedenhofen            : otool_cosmo (COSMO solvation model)
   Jiri Pittner, Ondrej Demel                    : Mk-CCSD
   Frank Weinhold                                : gennbo (NPA and NBO analysis)
   Christopher J. Cramer and Donald G. Truhlar   : smd solvation model
   Lars Goerigk                                  : TD-DFT with DH, B97 family of functionals
   V. Asgeirsson, H. Jonsson                     : NEB implementation
   FAccTs GmbH                                   : IRC, NEB, NEB-TS, Multilevel


 Your calculation uses the libint2 library for the computation of 2-el integrals
 For citations please refer to: http://libint.valeyev.net

 This ORCA versions uses:
   CBLAS   interface :  Fast vector & matrix operations
   LAPACKE interface :  Fast linear algebra routines
   SCALAPACK package :  Parallel linear algebra routines




***************************************
The coordinates will be read from file: 2_keto_cyclodecanone.xyz
***************************************


----- Orbital basis set information -----
Your calculation utilizes the basis: cc-pVTZ 
       H, B-Ne : Obtained from the ccRepo (grant-hill.group.shef.ac.uk/ccrepo) Feb. 2017
                 T. H. Dunning, Jr., J. Chem. Phys. 90, 1007 (1989)
            He : Obtained from the ccRepo (grant-hill.group.shef.ac.uk/ccrepo) Feb. 2017
                 D. E. Woon, T. H. Dunning, Jr., J. Chem. Phys. 100, 2975 (1994)
  Li-Be, Na-Mg : Obtained from the ccRepo (grant-hill.group.shef.ac.uk/ccrepo) Feb. 2017
                 B. P. Prascher, D. E. Woon, K. A. Peterson, T. H. Dunning, Jr., A. K. Wilson, Theor. Chem. Acc. 128, 69 (2011)
         Al-Ar : Obtained from the ccRepo (grant-hill.group.shef.ac.uk/ccrepo) Feb. 2017
                 D. E. Woon, T. H. Dunning, Jr., J. Chem. Phys. 98, 1358 (1993)
            Ca : Obtained from the Peterson Research Group Website (tyr0.chem.wsu.edu/~kipeters) Feb. 2017
                 J. Koput, K. A. Peterson, J. Phys. Chem. 106, 9595 (2002)
         Sc-Zn : Obtained from the ccRepo (grant-hill.group.shef.ac.uk/ccrepo) Feb. 2017
                 N. B. Balabanov, K. A. Peterson, J. Chem. Phys. 123, 064107 (2005)
                 N. B. Balabanov, K. A. Peterson, J. Chem. Phys. 125, 074110 (2006)
         Ga-Kr : Obtained from the ccRepo (grant-hill.group.shef.ac.uk/ccrepo) Feb. 2017
                 A. K. Wilson, D. E. Woon, K. A. Peterson, T. H. Dunning, Jr., J. Chem. Phys. 110, 7667 (1999)
             Y : Obtained from the ccRepo (grant-hill.group.shef.ac.uk/ccrepo) Feb. 2017
                 K. A. Peterson, D. Figgen, M. Dolg, H. Stoll, J. Chem. Phys. 126, 124101 (2007)
        Ag, Au : Obtained from the Peterson Research Group Website (tyr0.chem.wsu.edu/~kipeters) Feb. 2017
                 K. A. Peterson, C. Puzzarini, Theor. Chem. Acc. 114, 283 (2005)

----- AuxC basis set information -----
Your calculation utilizes the auxiliary basis: cc-pVTZ/C 
  Obtained from the EMSL Basis Set Exchange (bse.pnl.gov) Feb. 2017
  H-He, B-F, Al-Ar, Ga-Kr : F. Weigend, A. Kohn, C. Hattig, J. Chem. Phys. 116, 3175 (2002)
             Li-Be, Na-Mg : C. Haettig, Phys. Chem. Chem. Phys. 7, 59 (2005)
                       Ne : C. Haettig, Phys. Chem. Chem. Phys. 7, 59 (2005)
                            F. Weigend, A. Kohn, C. Hattig, J. Chem. Phys. 116, 3175 (2002)
                    Sc-Zn : J. G. Hill, J. A. Platts, J. Chem. Phys. 128, 044104 (2008)

----- AuxJK basis set information -----
Your calculation utilizes the auxiliary basis: cc-pVTZ/JK 
  H, B-F, Al-Cl, Ga-Br : Obtained from the TURBOMOLE 7.0 basis set library

================================================================================
                                        WARNINGS
                       Please study these warnings very carefully!
================================================================================


WARNING: MDCI localization with Augmented Hessian Foster-Boys
  ===> : Switching off randomization!

WARNING: Post HF methods need fully converged wavefunctions
  ===> : Setting SCFConvForced true
         You can overwrite this default with %scf ConvForced false 


INFO   : the flag for use of LIBINT has been found!

================================================================================
                                       INPUT FILE
================================================================================
NAME = 2_keto_cyclodecanone.inp
|  1> ! RHF DLPNO-CCSD(T) cc-pVTZ RIJK cc-pVTZ/JK cc-pVTZ/C
|  2> ! KDIIS SOSCF TightSCF TightPNO
|  3> 
|  4> %pal nprocs 8 end
|  5> 
|  6> %maxcore 8000
|  7> 
|  8> %scf maxiter 300
|  9>      shift shift 0.2 erroff 0.1 end
| 10> end
| 11> 
| 12> * xyzfile 0 1 2_keto_cyclodecanone.xyz 
| 13> 
| 14> 
| 15>                          ****END OF INPUT****
================================================================================

                       ****************************
                       * Single Point Calculation *
                       ****************************

---------------------------------
CARTESIAN COORDINATES (ANGSTROEM)
---------------------------------
  C      2.517710    0.769740    0.000420
  C      2.303800   -0.615280   -0.650190
  C      1.742380   -1.761790    0.218230
  C      0.290400   -1.639230    0.731110
  C     -0.781930   -1.457530   -0.367670
  C     -1.994560   -0.576020   -0.056230
  O     -3.094630   -0.896950   -0.481710
  C      1.273480    1.548140    0.481760
  C      0.190100    1.785520   -0.591980
  C     -1.247440    1.927330   -0.055450
  C     -1.839550    0.726180    0.731150
  H      3.201340    0.656160    0.853370
  H      3.054450    1.390700   -0.730770
  H      1.608780    2.518390    0.871300
  H      0.841830    1.031580    1.343540
  H      3.284840   -0.947530   -1.014600
  H      1.695660   -0.507140   -1.556680
  H      0.212860    0.983300   -1.335160
  H      0.433040    2.697550   -1.152540
  H      2.397410   -1.898590    1.089900
  H      1.827260   -2.687780   -0.367500
  H      0.239380   -0.823390    1.453540
  H      0.053250   -2.544990    1.302500
  H     -1.917080    2.149090   -0.895560
  H     -1.297960    2.797090    0.613030
  H     -1.179720   -2.422070   -0.697070
  H     -0.328680   -1.005130   -1.259180
  H     -2.848570    0.997830    1.054120
  H     -1.247360    0.548220    1.634560

----------------------------
CARTESIAN COORDINATES (A.U.)
----------------------------
  NO LB      ZA    FRAG     MASS         X           Y           Z
   0 C     6.0000    0    12.011    4.757782    1.454598    0.000794
   1 C     6.0000    0    12.011    4.353551   -1.162711   -1.228681
   2 C     6.0000    0    12.011    3.292621   -3.329301    0.412395
   3 C     6.0000    0    12.011    0.548776   -3.097696    1.381598
   4 C     6.0000    0    12.011   -1.477634   -2.754333   -0.694796
   5 C     6.0000    0    12.011   -3.769172   -1.088520   -0.106259
   6 O     8.0000    0    15.999   -5.848003   -1.694990   -0.910300
   7 C     6.0000    0    12.011    2.406528    2.925561    0.910394
   8 C     6.0000    0    12.011    0.359237    3.374144   -1.118680
   9 C     6.0000    0    12.011   -2.357320    3.642126   -0.104785
  10 C     6.0000    0    12.011   -3.476246    1.372281    1.381673
  11 H     1.0000    0     1.008    6.049656    1.239963    1.612636
  12 H     1.0000    0     1.008    5.772074    2.628042   -1.380955
  13 H     1.0000    0     1.008    3.040154    4.759067    1.646518
  14 H     1.0000    0     1.008    1.590828    1.949404    2.538923
  15 H     1.0000    0     1.008    6.207448   -1.790572   -1.917316
  16 H     1.0000    0     1.008    3.204333   -0.958356   -2.941699
  17 H     1.0000    0     1.008    0.402247    1.858168   -2.523087
  18 H     1.0000    0     1.008    0.818327    5.097631   -2.177985
  19 H     1.0000    0     1.008    4.530448   -3.587815    2.059613
  20 H     1.0000    0     1.008    3.453021   -5.079168   -0.694474
  21 H     1.0000    0     1.008    0.452363   -1.555982    2.746793
  22 H     1.0000    0     1.008    0.100628   -4.809334    2.461368
  23 H     1.0000    0     1.008   -3.622756    4.061192   -1.692363
  24 H     1.0000    0     1.008   -2.452789    5.285734    1.158459
  25 H     1.0000    0     1.008   -2.229348   -4.577049   -1.317271
  26 H     1.0000    0     1.008   -0.621115   -1.899420   -2.379505
  27 H     1.0000    0     1.008   -5.383017    1.885625    1.991998
  28 H     1.0000    0     1.008   -2.357169    1.035986    3.088871

--------------------------------
INTERNAL COORDINATES (ANGSTROEM)
--------------------------------
 C      0   0   0     0.000000000000     0.00000000     0.00000000
 C      1   0   0     1.545099110284     0.00000000     0.00000000
 C      2   1   0     1.543965962352   118.62932810     0.00000000
 C      3   2   1     1.544769487140   118.00887942    66.75785330
 C      4   3   2     1.546034930815   115.16961081    57.05635982
 C      5   4   3     1.531184597167   118.19047141   214.59185714
 O      6   5   4     1.222367907056   119.39132542   217.54375470
 C      1   2   3     1.544572124732   118.12812009   294.40698877
 C      8   1   2     1.543690084311   115.21895284   304.60288830
 C      9   8   1     1.540939897790   115.25739860   152.32275748
 C      6   5   4     1.529614397324   120.96781748    39.97392884
 H      1   2   3     1.098987759622   108.68031007    58.00596477
 H      1   2   3     1.099236082605   107.09047139   171.78007164
 H      8   1   2     1.097976577209   108.05294866   182.48995161
 H      8   1   2     1.093535881670   108.99610687    68.93597026
 H      2   1   3     1.098009194952   106.69614989   239.67310613
 H      2   1   3     1.096928730274   109.65519910   127.01133060
 H      9   8   1     1.093796808553   110.19505170    28.63668001
 H      9   8   1     1.097745907804   109.12505946   273.91145105
 H      3   2   1     1.098902693508   108.77479124   303.53919468
 H      3   2   1     1.098973033063   107.32705753   189.53407933
 H      4   3   2     1.090918443744   108.85393420   292.34242975
 H      4   3   2     1.096871839460   108.09882875   178.55223221
 H     10   9   8     1.096986799966   108.74926841   176.75921163
 H     10   9   8     1.098134890803   109.13296043    61.38658063
 H      5   4   3     1.094110897350   111.25607747    91.19888280
 H      5   4   3     1.097675454130   109.83185011   334.64366974
 H     11   6   5     1.093720578484   105.66186446   195.71324214
 H     11   6   5     1.094764077690   109.95075130   311.08681360

---------------------------
INTERNAL COORDINATES (A.U.)
---------------------------
 C      0   0   0     0.000000000000     0.00000000     0.00000000
 C      1   0   0     2.919814168202     0.00000000     0.00000000
 C      2   1   0     2.917672828941   118.62932810     0.00000000
 C      3   2   1     2.919191270733   118.00887942    66.75785330
 C      4   3   2     2.921582612716   115.16961081    57.05635982
 C      5   4   3     2.893519549123   118.19047141   214.59185714
 O      6   5   4     2.309940579230   119.39132542   217.54375470
 C      1   2   3     2.918818309833   118.12812009   294.40698877
 C      8   1   2     2.917151494998   115.21895284   304.60288830
 C      9   8   1     2.911954395655   115.25739860   152.32275748
 C      6   5   4     2.890552301445   120.96781748    39.97392884
 H      1   2   3     2.076785890218   108.68031007    58.00596477
 H      1   2   3     2.077255152647   107.09047139   171.78007164
 H      8   1   2     2.074875032386   108.05294866   182.48995161
 H      8   1   2     2.066483333973   108.99610687    68.93597026
 H      2   1   3     2.074936670987   106.69614989   239.67310613
 H      2   1   3     2.072894888647   109.65519910   127.01133060
 H      9   8   1     2.066976414322   110.19505170    28.63668001
 H      9   8   1     2.074439130382   109.12505946   273.91145105
 H      3   2   1     2.076625138559   108.77479124   303.53919468
 H      3   2   1     2.076758061054   107.32705753   189.53407933
 H      4   3   2     2.061537093119   108.85393420   292.34242975
 H      4   3   2     2.072787380590   108.09882875   178.55223221
 H     10   9   8     2.073004624463   108.74926841   176.75921163
 H     10   9   8     2.075174201722   109.13296043    61.38658063
 H      5   4   3     2.067569956130   111.25607747    91.19888280
 H      5   4   3     2.074305992234   109.83185011   334.64366974
 H     11   6   5     2.066832360369   105.66186446   195.71324214
 H     11   6   5     2.068804288089   109.95075130   311.08681360

---------------------
BASIS SET INFORMATION
---------------------
There are 3 groups of distinct atoms

 Group   1 Type C   : 18s5p2d1f contracted to 4s3p2d1f pattern {8811/311/11/1}
 Group   2 Type O   : 18s5p2d1f contracted to 4s3p2d1f pattern {8811/311/11/1}
 Group   3 Type H   : 5s2p1d contracted to 3s2p1d pattern {311/11/1}

Atom   0C    basis set group =>   1
Atom   1C    basis set group =>   1
Atom   2C    basis set group =>   1
Atom   3C    basis set group =>   1
Atom   4C    basis set group =>   1
Atom   5C    basis set group =>   1
Atom   6O    basis set group =>   2
Atom   7C    basis set group =>   1
Atom   8C    basis set group =>   1
Atom   9C    basis set group =>   1
Atom  10C    basis set group =>   1
Atom  11H    basis set group =>   3
Atom  12H    basis set group =>   3
Atom  13H    basis set group =>   3
Atom  14H    basis set group =>   3
Atom  15H    basis set group =>   3
Atom  16H    basis set group =>   3
Atom  17H    basis set group =>   3
Atom  18H    basis set group =>   3
Atom  19H    basis set group =>   3
Atom  20H    basis set group =>   3
Atom  21H    basis set group =>   3
Atom  22H    basis set group =>   3
Atom  23H    basis set group =>   3
Atom  24H    basis set group =>   3
Atom  25H    basis set group =>   3
Atom  26H    basis set group =>   3
Atom  27H    basis set group =>   3
Atom  28H    basis set group =>   3
-------------------------------
AUXILIARY BASIS SET INFORMATION
-------------------------------
There are 3 groups of distinct atoms

 Group   1 Type C   : 8s6p5d3f1g contracted to 8s6p5d3f1g pattern {11111111/111111/11111/111/1}
 Group   2 Type O   : 8s6p5d3f1g contracted to 8s6p5d3f1g pattern {11111111/111111/11111/111/1}
 Group   3 Type H   : 4s3p2d1f contracted to 4s3p2d1f pattern {1111/111/11/1}

Atom   0C    basis set group =>   1
Atom   1C    basis set group =>   1
Atom   2C    basis set group =>   1
Atom   3C    basis set group =>   1
Atom   4C    basis set group =>   1
Atom   5C    basis set group =>   1
Atom   6O    basis set group =>   2
Atom   7C    basis set group =>   1
Atom   8C    basis set group =>   1
Atom   9C    basis set group =>   1
Atom  10C    basis set group =>   1
Atom  11H    basis set group =>   3
Atom  12H    basis set group =>   3
Atom  13H    basis set group =>   3
Atom  14H    basis set group =>   3
Atom  15H    basis set group =>   3
Atom  16H    basis set group =>   3
Atom  17H    basis set group =>   3
Atom  18H    basis set group =>   3
Atom  19H    basis set group =>   3
Atom  20H    basis set group =>   3
Atom  21H    basis set group =>   3
Atom  22H    basis set group =>   3
Atom  23H    basis set group =>   3
Atom  24H    basis set group =>   3
Atom  25H    basis set group =>   3
Atom  26H    basis set group =>   3
Atom  27H    basis set group =>   3
Atom  28H    basis set group =>   3
-------------------------------
AUXILIARY BASIS SET INFORMATION
-------------------------------
There are 3 groups of distinct atoms

 Group   1 Type C   : 10s7p5d2f1g contracted to 10s7p5d2f1g pattern {1111111111/1111111/11111/11/1}
 Group   2 Type O   : 10s7p5d2f1g contracted to 10s7p5d2f1g pattern {1111111111/1111111/11111/11/1}
 Group   3 Type H   : 4s3p2d1f contracted to 4s3p2d1f pattern {1111/111/11/1}

Atom   0C    basis set group =>   1
Atom   1C    basis set group =>   1
Atom   2C    basis set group =>   1
Atom   3C    basis set group =>   1
Atom   4C    basis set group =>   1
Atom   5C    basis set group =>   1
Atom   6O    basis set group =>   2
Atom   7C    basis set group =>   1
Atom   8C    basis set group =>   1
Atom   9C    basis set group =>   1
Atom  10C    basis set group =>   1
Atom  11H    basis set group =>   3
Atom  12H    basis set group =>   3
Atom  13H    basis set group =>   3
Atom  14H    basis set group =>   3
Atom  15H    basis set group =>   3
Atom  16H    basis set group =>   3
Atom  17H    basis set group =>   3
Atom  18H    basis set group =>   3
Atom  19H    basis set group =>   3
Atom  20H    basis set group =>   3
Atom  21H    basis set group =>   3
Atom  22H    basis set group =>   3
Atom  23H    basis set group =>   3
Atom  24H    basis set group =>   3
Atom  25H    basis set group =>   3
Atom  26H    basis set group =>   3
Atom  27H    basis set group =>   3
Atom  28H    basis set group =>   3


           ************************************************************
           *        Program running with 8 parallel MPI-processes     *
           *              working on a common directory               *
           ************************************************************
------------------------------------------------------------------------------
                           ORCA GTO INTEGRAL CALCULATION
                           -- RI-GTO INTEGRALS CHOSEN --
------------------------------------------------------------------------------

                         BASIS SET STATISTICS AND STARTUP INFO

Gaussian basis set:
 # of primitive gaussian shells          ...  430
 # of primitive gaussian functions       ...  838
 # of contracted shells                  ...  218
 # of contracted basis functions         ...  582
 Highest angular momentum                ...    3
 Maximum contraction depth               ...    8
Auxiliary gaussian basis set:
 # of primitive gaussian shells          ...  455
 # of primitive gaussian functions       ... 1409
 # of contracted shells                  ...  455
 # of contracted aux-basis functions     ... 1409
 Highest angular momentum                ...    4
 Maximum contraction depth               ...    1
Ratio of auxiliary to basis functions    ...  2.42
Integral package used                  ... LIBINT
 One Electron integrals                  ... done
 Ordering auxiliary basis shells         ... done
 Integral threshhold             Thresh  ...  2.500e-11
 Primitive cut-off               TCut    ...  2.500e-12
 Pre-screening matrix                    ... done
 Shell pair data                         ... 
 Ordering of the shell pairs             ... done (   0.004 sec) 21558 of 23871 pairs
 Determination of significant pairs      ... done (   0.000 sec)
 Creation of shell pair data             ... done (   0.005 sec)
 Storage of shell pair data              ... done (   0.005 sec)
 Shell pair data done in (   0.014 sec)
 Computing two index integrals           ... done
 Cholesky decomposition of the V-matrix  ... done


Timings:
 Total evaluation time                   ...   1.079 sec (  0.018 min)
 One electron matrix time                ...   0.301 sec (  0.005 min) = 27.9%
 Schwartz matrix evaluation time         ...   0.411 sec (  0.007 min) = 38.1%
 Two index repulsion integral time       ...   0.139 sec (  0.002 min) = 12.9%
 Cholesky decomposition of V             ...   0.187 sec (  0.003 min) = 17.3%
 Three index repulsion integral time     ...   0.000 sec (  0.000 min) =  0.0%



           ************************************************************
           *        Program running with 8 parallel MPI-processes     *
           *              working on a common directory               *
           ************************************************************
-------------------------------------------------------------------------------
                                 ORCA SCF
-------------------------------------------------------------------------------

------------
SCF SETTINGS
------------
Hamiltonian:
 Ab initio Hamiltonian  Method          .... Hartree-Fock(GTOs)
 RI-approximation to the Coulomb term is turned on
   Number of auxiliary basis functions  .... 1409
   RI-JK (J+K treated both via RI)      .... on


General Settings:
 Integral files         IntName         .... 2_keto_cyclodecanone
 Hartree-Fock type      HFTyp           .... RHF
 Total Charge           Charge          ....    0
 Multiplicity           Mult            ....    1
 Number of Electrons    NEL             ....   86
 Basis Dimension        Dim             ....  582
 Nuclear Repulsion      ENuc            ....    659.0127087831 Eh

Convergence Acceleration:
 DIIS                   CNVDIIS         .... off
 Newton-Raphson         CNVNR           .... off
 SOSCF                  CNVSOSCF        .... on
   Start iteration      SOSCFMaxIt      ....   150
   Startup grad/error   SOSCFStart      ....  0.003300
 Level Shifting         CNVShift        .... on
   Level shift para.    LevelShift      ....    0.2000
   Turn off err/grad.   ShiftErr        ....    0.1000
 Zerner damping         CNVZerner       .... off
 Static damping         CNVDamp         .... off
 Fernandez-Rico         CNVRico         .... off

SCF Procedure:
 Maximum # iterations   MaxIter         ....   300
 SCF integral mode      SCFMode         .... Direct
   Integral package                     .... LIBINT
 Reset frequency        DirectResetFreq ....    20
 Integral Threshold     Thresh          ....  2.500e-11 Eh
 Primitive CutOff       TCut            ....  2.500e-12 Eh

Convergence Tolerance:
 Convergence Check Mode ConvCheckMode   .... Total+1el-Energy
 Convergence forced     ConvForced      .... 1
 Energy Change          TolE            ....  1.000e-08 Eh
 1-El. energy change                    ....  1.000e-05 Eh
 Orbital Gradient       TolG            ....  1.000e-05
 Orbital Rotation angle TolX            ....  1.000e-05


Diagonalization of the overlap matrix:
Smallest eigenvalue                        ... 2.131e-04
Time for diagonalization                   ...    0.075 sec
Threshold for overlap eigenvalues          ... 1.000e-08
Number of eigenvalues below threshold      ... 0
Time for construction of square roots      ...    0.090 sec
Total time needed                          ...    0.167 sec

-------------------
DFT GRID GENERATION
-------------------

General Integration Accuracy     IntAcc      ...  4.340
Radial Grid Type                 RadialGrid  ... Gauss-Chebyshev
Angular Grid (max. acc.)         AngularGrid ... Lebedev-110
Angular grid pruning method      GridPruning ... 3 (G Style)
Weight generation scheme         WeightScheme... Becke
Basis function cutoff            BFCut       ...    1.0000e-11
Integration weight cutoff        WCut        ...    1.0000e-14
Grids for H and He will be reduced by one unit

# of grid points (after initial pruning)     ...  32568 (   0.0 sec)
# of grid points (after weights+screening)   ...  29042 (   0.0 sec)
nearest neighbour list constructed           ...    0.0 sec
Grid point re-assignment to atoms done       ...    0.0 sec
Grid point division into batches done        ...    0.0 sec
Reduced shell lists constructed in    0.3 sec

Total number of grid points                  ...    29042
Total number of batches                      ...      464
Average number of points per batch           ...       62
Average number of grid points per atom       ...     1001
Average number of shells per batch           ...   163.97 (75.21%)
Average number of basis functions per batch  ...   417.63 (71.76%)
Average number of large shells per batch     ...   120.25 (73.34%)
Average number of large basis fcns per batch ...   300.42 (71.94%)
Average number of aux-shells per batch       ...   163.97 (36.04%)
Average number of aux functions per batch    ...   417.63 (29.64%)
Maximum spatial batch extension              ...   3.12,  2.59,  2.77 au
Average spatial batch extension              ...   0.20,  0.20,  0.20 au

Time for grid setup =    0.351 sec

------------------------------
INITIAL GUESS: MODEL POTENTIAL
------------------------------
Loading Hartree-Fock densities                     ... done
Calculating cut-offs                               ... done
Setting up the integral package                    ... done
Initializing the effective Hamiltonian             ... done
Starting the Coulomb interaction                   ... done (   0.2 sec)
Reading the grid                                   ... done
Mapping shells                                     ... done
Starting the XC term evaluation                    ... done (   0.1 sec)
Transforming the Hamiltonian                       ... done (   0.0 sec)
Diagonalizing the Hamiltonian                      ... done (   0.1 sec)
Back transforming the eigenvectors                 ... done (   0.0 sec)
Now organizing SCF variables                       ... done
                      ------------------
                      INITIAL GUESS DONE (   1.0 sec)
                      ------------------
--------------
SCF ITERATIONS
--------------
ITER       Energy         Delta-E        Max-DP      RMS-DP      [F,P]   Gradient Norm
                             ****Turning on KDIIS(Cayley)****
  0   -463.5936482510   0.000000000000 0.01177184  0.00020251  0.0961428   0.149848417
  1   -463.7533978904  -0.159749639386 0.01793968  0.00024205  0.0865221   0.130020178
  2   -463.8911651765  -0.137767286170 0.02917652  0.00040767  0.0700467   0.105674480
  3   -464.0598293335  -0.168664156968 0.04438239  0.00065433  0.0420030   0.065027208
  4   -464.1696808228  -0.109851489252 0.00254770  0.00004635  0.0037904   0.003752271
                      *** Initiating the SOSCF procedure ***
                           *** Shutting down KDIIS ***
                      *** Re-Reading the Fockian *** 
                      *** Removing any level shift *** 
ITER      Energy       Delta-E        Grad      Rot      Max-DP    RMS-DP
  5   -464.17029106  -0.0006102418  0.001248  0.001248  0.002123  0.000042
  6   -464.17037514  -0.0000840749  0.000306  0.000441  0.000600  0.000010
  7   -464.17038271  -0.0000075734  0.000202  0.000131  0.000187  0.000003
  8   -464.17038681  -0.0000040964  0.000109  0.000186  0.000126  0.000002
  9   -464.17038703  -0.0000002247  0.000025  0.000130  0.000203  0.000002
 10   -464.17038710  -0.0000000648  0.000020  0.000018  0.000020  0.000000
 11   -464.17038711  -0.0000000128  0.000004  0.000007  0.000007  0.000000
                 **** Energy Check signals convergence ****
              ***Rediagonalizing the Fockian in SOSCF/NRSCF***

               *****************************************************
               *                     SUCCESS                       *
               *           SCF CONVERGED AFTER  12 CYCLES          *
               *****************************************************


----------------
TOTAL SCF ENERGY
----------------

Total Energy       :         -464.17038711 Eh          -12630.71837 eV

Components:
Nuclear Repulsion  :          659.01270878 Eh           17932.64748 eV
Electronic Energy  :        -1123.18309590 Eh          -30563.36585 eV
One Electron Energy:        -1936.91906034 Eh          -52706.24717 eV
Two Electron Energy:          813.73596444 Eh           22142.88131 eV

Virial components:
Potential Energy   :         -927.51992217 Eh          -25239.10021 eV
Kinetic Energy     :          463.34953506 Eh           12608.38185 eV
Virial Ratio       :            2.00177156


---------------
SCF CONVERGENCE
---------------

  Last Energy change         ...   -1.0439e-09  Tolerance :   1.0000e-08
  Last MAX-Density change    ...    8.2148e-06  Tolerance :   1.0000e-07
  Last RMS-Density change    ...    5.8124e-08  Tolerance :   5.0000e-09
  Last Orbital Gradient      ...    1.4106e-06  Tolerance :   1.0000e-05
  Last Orbital Rotation      ...    2.9442e-06  Tolerance :   1.0000e-05

             **** THE GBW FILE WAS UPDATED (2_keto_cyclodecanone.gbw) ****
             **** DENSITY FILE WAS UPDATED (2_keto_cyclodecanone.scfp.tmp) ****
             **** ENERGY FILE WAS UPDATED (2_keto_cyclodecanone.en.tmp) ****
----------------
ORBITAL ENERGIES
----------------

  NO   OCC          E(Eh)            E(eV) 
   0   2.0000     -20.534910      -558.7833 
   1   2.0000     -11.324220      -308.1477 
   2   2.0000     -11.236435      -305.7590 
   3   2.0000     -11.233411      -305.6766 
   4   2.0000     -11.233188      -305.6706 
   5   2.0000     -11.232448      -305.6505 
   6   2.0000     -11.229751      -305.5771 
   7   2.0000     -11.227685      -305.5208 
   8   2.0000     -11.227424      -305.5137 
   9   2.0000     -11.226727      -305.4948 
  10   2.0000     -11.225855      -305.4710 
  11   2.0000      -1.371441       -37.3188 
  12   2.0000      -1.107143       -30.1269 
  13   2.0000      -1.071854       -29.1666 
  14   2.0000      -1.054507       -28.6946 
  15   2.0000      -0.984447       -26.7882 
  16   2.0000      -0.960153       -26.1271 
  17   2.0000      -0.896918       -24.4064 
  18   2.0000      -0.847148       -23.0521 
  19   2.0000      -0.798040       -21.7158 
  20   2.0000      -0.765316       -20.8253 
  21   2.0000      -0.717293       -19.5185 
  22   2.0000      -0.666585       -18.1387 
  23   2.0000      -0.663853       -18.0644 
  24   2.0000      -0.625473       -17.0200 
  25   2.0000      -0.615436       -16.7469 
  26   2.0000      -0.612828       -16.6759 
  27   2.0000      -0.597677       -16.2636 
  28   2.0000      -0.583321       -15.8730 
  29   2.0000      -0.571296       -15.5458 
  30   2.0000      -0.545669       -14.8484 
  31   2.0000      -0.540005       -14.6943 
  32   2.0000      -0.534298       -14.5390 
  33   2.0000      -0.516164       -14.0455 
  34   2.0000      -0.502810       -13.6821 
  35   2.0000      -0.497811       -13.5461 
  36   2.0000      -0.473558       -12.8862 
  37   2.0000      -0.472682       -12.8623 
  38   2.0000      -0.461525       -12.5587 
  39   2.0000      -0.453014       -12.3271 
  40   2.0000      -0.446586       -12.1522 
  41   2.0000      -0.440709       -11.9923 
  42   2.0000      -0.395950       -10.7743 
  43   0.0000       0.129539         3.5249 
  44   0.0000       0.135662         3.6916 
  45   0.0000       0.143813         3.9134 
  46   0.0000       0.154294         4.1986 
  47   0.0000       0.161974         4.4075 
  48   0.0000       0.172683         4.6989 
  49   0.0000       0.186275         5.0688 
  50   0.0000       0.187640         5.1059 
  51   0.0000       0.195135         5.3099 
  52   0.0000       0.202800         5.5185 
  53   0.0000       0.213837         5.8188 
  54   0.0000       0.223783         6.0894 
  55   0.0000       0.235378         6.4050 
  56   0.0000       0.240431         6.5424 
  57   0.0000       0.246971         6.7204 
  58   0.0000       0.254171         6.9163 
  59   0.0000       0.273319         7.4374 
  60   0.0000       0.282338         7.6828 
  61   0.0000       0.297996         8.1089 
  62   0.0000       0.309357         8.4180 
  63   0.0000       0.320498         8.7212 
  64   0.0000       0.336754         9.1635 
  65   0.0000       0.351752         9.5717 
  66   0.0000       0.360394         9.8068 
  67   0.0000       0.364817         9.9272 
  68   0.0000       0.366102         9.9622 
  69   0.0000       0.378973        10.3124 
  70   0.0000       0.387866        10.5544 
  71   0.0000       0.398605        10.8466 
  72   0.0000       0.404281        11.0010 
  73   0.0000       0.415137        11.2965 
  74   0.0000       0.423079        11.5126 
  75   0.0000       0.433738        11.8026 
  76   0.0000       0.440695        11.9919 
  77   0.0000       0.445748        12.1294 
  78   0.0000       0.453266        12.3340 
  79   0.0000       0.460540        12.5319 
  80   0.0000       0.481797        13.1104 
  81   0.0000       0.490576        13.3493 
  82   0.0000       0.503970        13.7137 
  83   0.0000       0.520845        14.1729 
  84   0.0000       0.535622        14.5750 
  85   0.0000       0.545810        14.8522 
  86   0.0000       0.557443        15.1688 
  87   0.0000       0.567033        15.4297 
  88   0.0000       0.570861        15.5339 
  89   0.0000       0.581582        15.8257 
  90   0.0000       0.589263        16.0347 
  91   0.0000       0.598874        16.2962 
  92   0.0000       0.604024        16.4363 
  93   0.0000       0.607211        16.5230 
  94   0.0000       0.617596        16.8057 
  95   0.0000       0.623264        16.9599 
  96   0.0000       0.625906        17.0318 
  97   0.0000       0.630343        17.1525 
  98   0.0000       0.635957        17.3053 
  99   0.0000       0.639904        17.4127 
 100   0.0000       0.649927        17.6854 
 101   0.0000       0.650226        17.6936 
 102   0.0000       0.657471        17.8907 
 103   0.0000       0.662923        18.0390 
 104   0.0000       0.670746        18.2519 
 105   0.0000       0.675359        18.3775 
 106   0.0000       0.677438        18.4340 
 107   0.0000       0.679933        18.5019 
 108   0.0000       0.691486        18.8163 
 109   0.0000       0.693844        18.8804 
 110   0.0000       0.701718        19.0947 
 111   0.0000       0.708249        19.2724 
 112   0.0000       0.716397        19.4942 
 113   0.0000       0.722386        19.6571 
 114   0.0000       0.724096        19.7037 
 115   0.0000       0.739302        20.1174 
 116   0.0000       0.746294        20.3077 
 117   0.0000       0.760067        20.6825 
 118   0.0000       0.772915        21.0321 
 119   0.0000       0.789580        21.4856 
 120   0.0000       0.800036        21.7701 
 121   0.0000       0.805143        21.9090 
 122   0.0000       0.820840        22.3362 
 123   0.0000       0.829957        22.5843 
 124   0.0000       0.865800        23.5596 
 125   0.0000       0.875341        23.8192 
 126   0.0000       0.879223        23.9249 
 127   0.0000       0.899336        24.4722 
 128   0.0000       0.918677        24.9985 
 129   0.0000       0.923844        25.1391 
 130   0.0000       0.926666        25.2159 
 131   0.0000       0.939037        25.5525 
 132   0.0000       0.968135        26.3443 
 133   0.0000       0.974793        26.5255 
 134   0.0000       0.989748        26.9324 
 135   0.0000       1.007329        27.4108 
 136   0.0000       1.031068        28.0568 
 137   0.0000       1.040226        28.3060 
 138   0.0000       1.048348        28.5270 
 139   0.0000       1.053316        28.6622 
 140   0.0000       1.077107        29.3096 
 141   0.0000       1.083753        29.4904 
 142   0.0000       1.100835        29.9552 
 143   0.0000       1.110989        30.2315 
 144   0.0000       1.115673        30.3590 
 145   0.0000       1.131631        30.7932 
 146   0.0000       1.134448        30.8699 
 147   0.0000       1.146848        31.2073 
 148   0.0000       1.157506        31.4973 
 149   0.0000       1.172203        31.8973 
 150   0.0000       1.177253        32.0347 
 151   0.0000       1.190820        32.4038 
 152   0.0000       1.196658        32.5627 
 153   0.0000       1.209944        32.9243 
 154   0.0000       1.214313        33.0431 
 155   0.0000       1.237902        33.6850 
 156   0.0000       1.240724        33.7618 
 157   0.0000       1.243916        33.8487 
 158   0.0000       1.251057        34.0430 
 159   0.0000       1.259761        34.2798 
 160   0.0000       1.272273        34.6203 
 161   0.0000       1.282356        34.8947 
 162   0.0000       1.295018        35.2392 
 163   0.0000       1.307608        35.5818 
 164   0.0000       1.318765        35.8854 
 165   0.0000       1.331533        36.2329 
 166   0.0000       1.335151        36.3313 
 167   0.0000       1.338183        36.4138 
 168   0.0000       1.347601        36.6701 
 169   0.0000       1.350053        36.7368 
 170   0.0000       1.367995        37.2250 
 171   0.0000       1.381403        37.5899 
 172   0.0000       1.382693        37.6250 
 173   0.0000       1.390476        37.8368 
 174   0.0000       1.392220        37.8842 
 175   0.0000       1.403016        38.1780 
 176   0.0000       1.408087        38.3160 
 177   0.0000       1.418785        38.6071 
 178   0.0000       1.427438        38.8426 
 179   0.0000       1.431667        38.9576 
 180   0.0000       1.441903        39.2362 
 181   0.0000       1.454237        39.5718 
 182   0.0000       1.454932        39.5907 
 183   0.0000       1.459112        39.7045 
 184   0.0000       1.469977        40.0001 
 185   0.0000       1.481019        40.3006 
 186   0.0000       1.491804        40.5941 
 187   0.0000       1.497123        40.7388 
 188   0.0000       1.515054        41.2267 
 189   0.0000       1.521661        41.4065 
 190   0.0000       1.527218        41.5577 
 191   0.0000       1.537326        41.8328 
 192   0.0000       1.541352        41.9423 
 193   0.0000       1.551391        42.2155 
 194   0.0000       1.560688        42.4685 
 195   0.0000       1.567007        42.6404 
 196   0.0000       1.573444        42.8156 
 197   0.0000       1.586365        43.1672 
 198   0.0000       1.591459        43.3058 
 199   0.0000       1.598192        43.4890 
 200   0.0000       1.608547        43.7708 
 201   0.0000       1.620316        44.0910 
 202   0.0000       1.631096        44.3844 
 203   0.0000       1.635699        44.5096 
 204   0.0000       1.645177        44.7675 
 205   0.0000       1.648414        44.8556 
 206   0.0000       1.656753        45.0825 
 207   0.0000       1.676869        45.6299 
 208   0.0000       1.685745        45.8715 
 209   0.0000       1.691746        46.0348 
 210   0.0000       1.707524        46.4641 
 211   0.0000       1.710804        46.5534 
 212   0.0000       1.721963        46.8570 
 213   0.0000       1.729997        47.0756 
 214   0.0000       1.737013        47.2665 
 215   0.0000       1.747446        47.5504 
 216   0.0000       1.764513        48.0148 
 217   0.0000       1.775336        48.3093 
 218   0.0000       1.778882        48.4058 
 219   0.0000       1.800316        48.9891 
 220   0.0000       1.813997        49.3614 
 221   0.0000       1.816060        49.4175 
 222   0.0000       1.832733        49.8712 
 223   0.0000       1.843072        50.1525 
 224   0.0000       1.860672        50.6315 
 225   0.0000       1.867409        50.8148 
 226   0.0000       1.888221        51.3811 
 227   0.0000       1.892965        51.5102 
 228   0.0000       1.907696        51.9110 
 229   0.0000       1.942268        52.8518 
 230   0.0000       1.971555        53.6487 
 231   0.0000       2.004252        54.5385 
 232   0.0000       2.032224        55.2996 
 233   0.0000       2.046927        55.6997 
 234   0.0000       2.060074        56.0575 
 235   0.0000       2.061639        56.1001 
 236   0.0000       2.094972        57.0071 
 237   0.0000       2.159517        58.7634 
 238   0.0000       2.178622        59.2833 
 239   0.0000       2.215794        60.2948 
 240   0.0000       2.288116        62.2628 
 241   0.0000       2.370410        64.5021 
 242   0.0000       2.451550        66.7101 
 243   0.0000       2.506750        68.2121 
 244   0.0000       2.526639        68.7533 
 245   0.0000       2.548191        69.3398 
 246   0.0000       2.593926        70.5843 
 247   0.0000       2.624858        71.4260 
 248   0.0000       2.626861        71.4805 
 249   0.0000       2.650489        72.1235 
 250   0.0000       2.681664        72.9718 
 251   0.0000       2.685041        73.0637 
 252   0.0000       2.706999        73.6612 
 253   0.0000       2.722557        74.0846 
 254   0.0000       2.730479        74.3001 
 255   0.0000       2.736121        74.4536 
 256   0.0000       2.752037        74.8867 
 257   0.0000       2.772226        75.4361 
 258   0.0000       2.784769        75.7774 
 259   0.0000       2.791241        75.9535 
 260   0.0000       2.798030        76.1383 
 261   0.0000       2.809259        76.4438 
 262   0.0000       2.815375        76.6103 
 263   0.0000       2.829571        76.9965 
 264   0.0000       2.839813        77.2752 
 265   0.0000       2.853538        77.6487 
 266   0.0000       2.864965        77.9597 
 267   0.0000       2.870756        78.1172 
 268   0.0000       2.881225        78.4021 
 269   0.0000       2.886523        78.5463 
 270   0.0000       2.887891        78.5835 
 271   0.0000       2.901275        78.9477 
 272   0.0000       2.910153        79.1893 
 273   0.0000       2.930587        79.7453 
 274   0.0000       2.953075        80.3573 
 275   0.0000       2.955961        80.4358 
 276   0.0000       2.961462        80.5855 
 277   0.0000       2.971549        80.8600 
 278   0.0000       2.981721        81.1368 
 279   0.0000       2.985835        81.2487 
 280   0.0000       3.004215        81.7488 
 281   0.0000       3.016604        82.0860 
 282   0.0000       3.018623        82.1409 
 283   0.0000       3.032399        82.5158 
 284   0.0000       3.039618        82.7122 
 285   0.0000       3.055399        83.1416 
 286   0.0000       3.057467        83.1979 
 287   0.0000       3.077994        83.7565 
 288   0.0000       3.088174        84.0335 
 289   0.0000       3.102545        84.4245 
 290   0.0000       3.109437        84.6121 
 291   0.0000       3.119414        84.8836 
 292   0.0000       3.120871        84.9232 
 293   0.0000       3.132838        85.2489 
 294   0.0000       3.135307        85.3160 
 295   0.0000       3.156195        85.8844 
 296   0.0000       3.177036        86.4516 
 297   0.0000       3.189642        86.7946 
 298   0.0000       3.205698        87.2315 
 299   0.0000       3.211604        87.3922 
 300   0.0000       3.235137        88.0326 
 301   0.0000       3.238811        88.1325 
 302   0.0000       3.245424        88.3125 
 303   0.0000       3.253591        88.5347 
 304   0.0000       3.264391        88.8286 
 305   0.0000       3.270390        88.9918 
 306   0.0000       3.275651        89.1350 
 307   0.0000       3.287153        89.4480 
 308   0.0000       3.297544        89.7307 
 309   0.0000       3.303913        89.9040 
 310   0.0000       3.320609        90.3584 
 311   0.0000       3.326817        90.5273 
 312   0.0000       3.331113        90.6442 
 313   0.0000       3.336846        90.8002 
 314   0.0000       3.340714        90.9054 
 315   0.0000       3.352970        91.2389 
 316   0.0000       3.359393        91.4137 
 317   0.0000       3.363175        91.5167 
 318   0.0000       3.379329        91.9562 
 319   0.0000       3.381329        92.0106 
 320   0.0000       3.392030        92.3018 
 321   0.0000       3.412569        92.8607 
 322   0.0000       3.415735        92.9469 
 323   0.0000       3.431246        93.3689 
 324   0.0000       3.438558        93.5679 
 325   0.0000       3.442180        93.6665 
 326   0.0000       3.448290        93.8327 
 327   0.0000       3.455115        94.0185 
 328   0.0000       3.463920        94.2580 
 329   0.0000       3.467125        94.3453 
 330   0.0000       3.476818        94.6090 
 331   0.0000       3.484258        94.8115 
 332   0.0000       3.493764        95.0701 
 333   0.0000       3.502170        95.2989 
 334   0.0000       3.506301        95.4113 
 335   0.0000       3.520355        95.7937 
 336   0.0000       3.528385        96.0122 
 337   0.0000       3.540732        96.3482 
 338   0.0000       3.546776        96.5127 
 339   0.0000       3.551517        96.6417 
 340   0.0000       3.563354        96.9638 
 341   0.0000       3.570488        97.1579 
 342   0.0000       3.578633        97.3796 
 343   0.0000       3.583622        97.5153 
 344   0.0000       3.597940        97.9049 
 345   0.0000       3.606779        98.1455 
 346   0.0000       3.622640        98.5770 
 347   0.0000       3.627425        98.7073 
 348   0.0000       3.642531        99.1183 
 349   0.0000       3.662113        99.6512 
 350   0.0000       3.663520        99.6895 
 351   0.0000       3.671437        99.9049 
 352   0.0000       3.685325       100.2828 
 353   0.0000       3.700589       100.6981 
 354   0.0000       3.702966       100.7628 
 355   0.0000       3.709402       100.9380 
 356   0.0000       3.717379       101.1550 
 357   0.0000       3.740364       101.7805 
 358   0.0000       3.749272       102.0229 
 359   0.0000       3.752099       102.0998 
 360   0.0000       3.764938       102.4492 
 361   0.0000       3.769052       102.5611 
 362   0.0000       3.776144       102.7541 
 363   0.0000       3.795921       103.2923 
 364   0.0000       3.807419       103.6051 
 365   0.0000       3.828851       104.1883 
 366   0.0000       3.845060       104.6294 
 367   0.0000       3.846954       104.6809 
 368   0.0000       3.858784       105.0028 
 369   0.0000       3.866082       105.2014 
 370   0.0000       3.871317       105.3439 
 371   0.0000       3.885285       105.7240 
 372   0.0000       3.894344       105.9705 
 373   0.0000       3.905495       106.2739 
 374   0.0000       3.915346       106.5420 
 375   0.0000       3.928937       106.9118 
 376   0.0000       3.938953       107.1844 
 377   0.0000       3.952765       107.5602 
 378   0.0000       3.961588       107.8003 
 379   0.0000       3.968687       107.9935 
 380   0.0000       3.978218       108.2528 
 381   0.0000       3.986867       108.4882 
 382   0.0000       3.998821       108.8134 
 383   0.0000       4.004957       108.9804 
 384   0.0000       4.010353       109.1273 
 385   0.0000       4.028279       109.6150 
 386   0.0000       4.035619       109.8148 
 387   0.0000       4.046564       110.1126 
 388   0.0000       4.053221       110.2938 
 389   0.0000       4.057975       110.4231 
 390   0.0000       4.073441       110.8440 
 391   0.0000       4.080258       111.0295 
 392   0.0000       4.085671       111.1768 
 393   0.0000       4.092769       111.3699 
 394   0.0000       4.096797       111.4795 
 395   0.0000       4.109203       111.8171 
 396   0.0000       4.111638       111.8833 
 397   0.0000       4.129179       112.3607 
 398   0.0000       4.137882       112.5975 
 399   0.0000       4.148625       112.8898 
 400   0.0000       4.162506       113.2675 
 401   0.0000       4.172529       113.5403 
 402   0.0000       4.177683       113.6805 
 403   0.0000       4.189746       114.0088 
 404   0.0000       4.199293       114.2686 
 405   0.0000       4.217809       114.7724 
 406   0.0000       4.218674       114.7959 
 407   0.0000       4.229919       115.1019 
 408   0.0000       4.241640       115.4209 
 409   0.0000       4.248747       115.6143 
 410   0.0000       4.262972       116.0014 
 411   0.0000       4.276742       116.3761 
 412   0.0000       4.285599       116.6171 
 413   0.0000       4.293483       116.8316 
 414   0.0000       4.304814       117.1400 
 415   0.0000       4.312737       117.3555 
 416   0.0000       4.335641       117.9788 
 417   0.0000       4.340590       118.1134 
 418   0.0000       4.343296       118.1871 
 419   0.0000       4.349648       118.3599 
 420   0.0000       4.358510       118.6011 
 421   0.0000       4.373153       118.9995 
 422   0.0000       4.384403       119.3057 
 423   0.0000       4.395491       119.6074 
 424   0.0000       4.406737       119.9134 
 425   0.0000       4.414220       120.1170 
 426   0.0000       4.422072       120.3307 
 427   0.0000       4.433672       120.6463 
 428   0.0000       4.437295       120.7449 
 429   0.0000       4.442397       120.8838 
 430   0.0000       4.453929       121.1976 
 431   0.0000       4.460914       121.3876 
 432   0.0000       4.473024       121.7172 
 433   0.0000       4.485309       122.0515 
 434   0.0000       4.489581       122.1677 
 435   0.0000       4.497298       122.3777 
 436   0.0000       4.502533       122.5202 
 437   0.0000       4.507671       122.6600 
 438   0.0000       4.518415       122.9523 
 439   0.0000       4.525924       123.1567 
 440   0.0000       4.533366       123.3591 
 441   0.0000       4.551255       123.8459 
 442   0.0000       4.565165       124.2245 
 443   0.0000       4.575793       124.5136 
 444   0.0000       4.586545       124.8062 
 445   0.0000       4.591588       124.9435 
 446   0.0000       4.592783       124.9760 
 447   0.0000       4.609515       125.4313 
 448   0.0000       4.628106       125.9372 
 449   0.0000       4.640319       126.2695 
 450   0.0000       4.649680       126.5242 
 451   0.0000       4.664629       126.9310 
 452   0.0000       4.675162       127.2176 
 453   0.0000       4.689319       127.6029 
 454   0.0000       4.692356       127.6855 
 455   0.0000       4.702891       127.9722 
 456   0.0000       4.705432       128.0413 
 457   0.0000       4.727659       128.6462 
 458   0.0000       4.736901       128.8976 
 459   0.0000       4.746350       129.1548 
 460   0.0000       4.758704       129.4909 
 461   0.0000       4.762847       129.6037 
 462   0.0000       4.775245       129.9410 
 463   0.0000       4.778766       130.0368 
 464   0.0000       4.785785       130.2278 
 465   0.0000       4.798536       130.5748 
 466   0.0000       4.802180       130.6740 
 467   0.0000       4.826284       131.3299 
 468   0.0000       4.843824       131.8072 
 469   0.0000       4.855365       132.1212 
 470   0.0000       4.864308       132.3645 
 471   0.0000       4.887692       133.0009 
 472   0.0000       4.890502       133.0773 
 473   0.0000       4.908231       133.5598 
 474   0.0000       4.934091       134.2634 
 475   0.0000       4.961908       135.0204 
 476   0.0000       4.968485       135.1993 
 477   0.0000       5.000314       136.0655 
 478   0.0000       5.007881       136.2714 
 479   0.0000       5.025814       136.7593 
 480   0.0000       5.048440       137.3750 
 481   0.0000       5.058234       137.6415 
 482   0.0000       5.067085       137.8824 
 483   0.0000       5.083383       138.3259 
 484   0.0000       5.111466       139.0901 
 485   0.0000       5.119547       139.3099 
 486   0.0000       5.148044       140.0854 
 487   0.0000       5.157836       140.3518 
 488   0.0000       5.170253       140.6897 
 489   0.0000       5.176122       140.8495 
 490   0.0000       5.192976       141.3081 
 491   0.0000       5.210893       141.7956 
 492   0.0000       5.222132       142.1014 
 493   0.0000       5.234068       142.4262 
 494   0.0000       5.242593       142.6582 
 495   0.0000       5.263808       143.2355 
 496   0.0000       5.285580       143.8280 
 497   0.0000       5.288555       143.9089 
 498   0.0000       5.290881       143.9722 
 499   0.0000       5.300478       144.2333 
 500   0.0000       5.306208       144.3892 
 501   0.0000       5.343440       145.4024 
 502   0.0000       5.353402       145.6735 
 503   0.0000       5.363089       145.9371 
 504   0.0000       5.382146       146.4556 
 505   0.0000       5.389915       146.6670 
 506   0.0000       5.396109       146.8356 
 507   0.0000       5.411932       147.2662 
 508   0.0000       5.422716       147.5596 
 509   0.0000       5.436317       147.9297 
 510   0.0000       5.451491       148.3426 
 511   0.0000       5.454821       148.4332 
 512   0.0000       5.492001       149.4449 
 513   0.0000       5.514554       150.0587 
 514   0.0000       5.523951       150.3144 
 515   0.0000       5.542057       150.8070 
 516   0.0000       5.564945       151.4299 
 517   0.0000       5.577941       151.7835 
 518   0.0000       5.584618       151.9652 
 519   0.0000       5.602226       152.4443 
 520   0.0000       5.613051       152.7389 
 521   0.0000       5.625082       153.0663 
 522   0.0000       5.635050       153.3375 
 523   0.0000       5.646284       153.6432 
 524   0.0000       5.662653       154.0886 
 525   0.0000       5.680832       154.5833 
 526   0.0000       5.700882       155.1289 
 527   0.0000       5.707146       155.2993 
 528   0.0000       5.734936       156.0555 
 529   0.0000       5.749099       156.4409 
 530   0.0000       5.771047       157.0382 
 531   0.0000       5.775209       157.1514 
 532   0.0000       5.798988       157.7985 
 533   0.0000       5.803663       157.9257 
 534   0.0000       5.813015       158.1802 
 535   0.0000       5.817251       158.2955 
 536   0.0000       5.828694       158.6068 
 537   0.0000       5.835787       158.7998 
 538   0.0000       5.847871       159.1287 
 539   0.0000       5.862714       159.5326 
 540   0.0000       5.906094       160.7130 
 541   0.0000       5.916107       160.9854 
 542   0.0000       5.921651       161.1363 
 543   0.0000       5.945533       161.7862 
 544   0.0000       5.957859       162.1216 
 545   0.0000       5.996982       163.1862 
 546   0.0000       6.007187       163.4639 
 547   0.0000       6.037950       164.3010 
 548   0.0000       6.087661       165.6537 
 549   0.0000       6.091442       165.7566 
 550   0.0000       6.105417       166.1368 
 551   0.0000       6.133361       166.8972 
 552   0.0000       6.161827       167.6718 
 553   0.0000       6.228740       169.4926 
 554   0.0000       6.371391       173.3744 
 555   0.0000       6.382379       173.6734 
 556   0.0000       6.416093       174.5908 
 557   0.0000       6.448718       175.4785 
 558   0.0000       6.464215       175.9002 
 559   0.0000       6.474247       176.1732 
 560   0.0000       6.497890       176.8166 
 561   0.0000       6.502980       176.9551 
 562   0.0000       6.614966       180.0024 
 563   0.0000       6.703311       182.4064 
 564   0.0000       6.748836       183.6452 
 565   0.0000       6.953710       189.2201 
 566   0.0000       7.023066       191.1073 
 567   0.0000       7.068920       192.3551 
 568   0.0000       7.386141       200.9871 
 569   0.0000       7.571100       206.0201 
 570   0.0000       7.591100       206.5643 
 571   0.0000       9.908769       269.6313 
 572   0.0000      12.659275       344.4764 
 573   0.0000      12.870213       350.2163 
 574   0.0000      13.096388       356.3708 
 575   0.0000      13.260200       360.8284 
 576   0.0000      13.356458       363.4477 
 577   0.0000      13.468267       366.4902 
 578   0.0000      13.532918       368.2494 
 579   0.0000      13.603519       370.1706 
 580   0.0000      13.681395       372.2897 
 581   0.0000      14.067688       382.8013 

                    ********************************
                    * MULLIKEN POPULATION ANALYSIS *
                    ********************************

-----------------------
MULLIKEN ATOMIC CHARGES
-----------------------
   0 C :   -0.187278
   1 C :   -0.235864
   2 C :   -0.189709
   3 C :   -0.243670
   4 C :   -0.210976
   5 C :    0.294005
   6 O :   -0.376303
   7 C :   -0.220625
   8 C :   -0.223541
   9 C :   -0.201495
  10 C :   -0.241014
  11 H :    0.103068
  12 H :    0.103459
  13 H :    0.121027
  14 H :    0.095209
  15 H :    0.124282
  16 H :    0.098818
  17 H :    0.099154
  18 H :    0.121740
  19 H :    0.105203
  20 H :    0.107179
  21 H :    0.105131
  22 H :    0.130584
  23 H :    0.120580
  24 H :    0.106332
  25 H :    0.140383
  26 H :    0.103681
  27 H :    0.142262
  28 H :    0.108377
Sum of atomic charges:    0.0000000

--------------------------------
MULLIKEN REDUCED ORBITAL CHARGES
--------------------------------
  0 C s       :     3.212928  s :     3.212928
      pz      :     1.003419  p :     2.853116
      px      :     0.943727
      py      :     0.905969
      dz2     :     0.014494  d :     0.114831
      dxz     :     0.033157
      dyz     :     0.022558
      dx2y2   :     0.020610
      dxy     :     0.024012
      f0      :     0.000545  f :     0.006404
      f+1     :     0.000924
      f-1     :     0.000622
      f+2     :     0.001135
      f-2     :     0.001209
      f+3     :     0.000880
      f-3     :     0.001089
  1 C s       :     3.223834  s :     3.223834
      pz      :     0.975102  p :     2.890696
      px      :     1.030443
      py      :     0.885151
      dz2     :     0.018999  d :     0.114876
      dxz     :     0.025954
      dyz     :     0.022790
      dx2y2   :     0.026459
      dxy     :     0.020675
      f0      :     0.000520  f :     0.006458
      f+1     :     0.000623
      f-1     :     0.000941
      f+2     :     0.001580
      f-2     :     0.001059
      f+3     :     0.000822
      f-3     :     0.000914
  2 C s       :     3.213184  s :     3.213184
      pz      :     0.991276  p :     2.854858
      px      :     0.904971
      py      :     0.958612
      dz2     :     0.016295  d :     0.115251
      dxz     :     0.029276
      dyz     :     0.025064
      dx2y2   :     0.029124
      dxy     :     0.015491
      f0      :     0.000615  f :     0.006416
      f+1     :     0.000882
      f-1     :     0.000549
      f+2     :     0.001881
      f-2     :     0.000772
      f+3     :     0.000936
      f-3     :     0.000781
  3 C s       :     3.223485  s :     3.223485
      pz      :     0.970205  p :     2.897871
      px      :     0.883843
      py      :     1.043823
      dz2     :     0.012010  d :     0.115804
      dxz     :     0.025406
      dyz     :     0.035444
      dx2y2   :     0.026754
      dxy     :     0.016191
      f0      :     0.000677  f :     0.006509
      f+1     :     0.001143
      f-1     :     0.000266
      f+2     :     0.002186
      f-2     :     0.000727
      f+3     :     0.000839
      f-3     :     0.000671
  4 C s       :     3.210603  s :     3.210603
      pz      :     0.970887  p :     2.899929
      px      :     0.914059
      py      :     1.014983
      dz2     :     0.017623  d :     0.094280
      dxz     :     0.019142
      dyz     :     0.019507
      dx2y2   :     0.013612
      dxy     :     0.024396
      f0      :     0.000558  f :     0.006164
      f+1     :     0.001301
      f-1     :     0.000463
      f+2     :     0.000853
      f-2     :     0.001149
      f+3     :     0.000793
      f-3     :     0.001048
  5 C s       :     3.169149  s :     3.169149
      pz      :     0.684310  p :     2.306393
      px      :     0.809268
      py      :     0.812814
      dz2     :     0.027275  d :     0.213048
      dxz     :     0.046434
      dyz     :     0.022013
      dx2y2   :     0.052940
      dxy     :     0.064386
      f0      :     0.001030  f :     0.017406
      f+1     :     0.003013
      f-1     :     0.001008
      f+2     :     0.002567
      f-2     :     0.002263
      f+3     :     0.003871
      f-3     :     0.003654
  6 O s       :     3.758655  s :     3.758655
      pz      :     1.429988  p :     4.579725
      px      :     1.448236
      py      :     1.701501
      dz2     :     0.005143  d :     0.035559
      dxz     :     0.011311
      dyz     :     0.001355
      dx2y2   :     0.008823
      dxy     :     0.008927
      f0      :     0.000175  f :     0.002364
      f+1     :     0.000435
      f-1     :     0.000019
      f+2     :     0.000454
      f-2     :     0.000233
      f+3     :     0.000482
      f-3     :     0.000566
  7 C s       :     3.217108  s :     3.217108
      pz      :     0.968531  p :     2.881943
      px      :     0.901605
      py      :     1.011807
      dz2     :     0.017574  d :     0.115075
      dxz     :     0.027876
      dyz     :     0.024437
      dx2y2   :     0.022966
      dxy     :     0.022223
      f0      :     0.000561  f :     0.006499
      f+1     :     0.001290
      f-1     :     0.000450
      f+2     :     0.001117
      f-2     :     0.001407
      f+3     :     0.000786
      f-3     :     0.000888
  8 C s       :     3.218062  s :     3.218062
      pz      :     0.974978  p :     2.884246
      px      :     0.875315
      py      :     1.033953
      dz2     :     0.012477  d :     0.114706
      dxz     :     0.024288
      dyz     :     0.034799
      dx2y2   :     0.027120
      dxy     :     0.016023
      f0      :     0.000644  f :     0.006527
      f+1     :     0.001106
      f-1     :     0.000308
      f+2     :     0.002180
      f-2     :     0.000783
      f+3     :     0.000828
      f-3     :     0.000678
  9 C s       :     3.222390  s :     3.222390
      pz      :     0.997288  p :     2.856883
      px      :     0.918525
      py      :     0.941069
      dz2     :     0.014486  d :     0.115822
      dxz     :     0.029061
      dyz     :     0.027574
      dx2y2   :     0.027129
      dxy     :     0.017572
      f0      :     0.000563  f :     0.006400
      f+1     :     0.000807
      f-1     :     0.000618
      f+2     :     0.001829
      f-2     :     0.000830
      f+3     :     0.000957
      f-3     :     0.000796
 10 C s       :     3.219681  s :     3.219681
      pz      :     0.970968  p :     2.919435
      px      :     1.060322
      py      :     0.888145
      dz2     :     0.014560  d :     0.095776
      dxz     :     0.020085
      dyz     :     0.020837
      dx2y2   :     0.027944
      dxy     :     0.012350
      f0      :     0.000473  f :     0.006123
      f+1     :     0.000615
      f-1     :     0.000694
      f+2     :     0.001662
      f-2     :     0.001030
      f+3     :     0.000742
      f-3     :     0.000907
 11 H s       :     0.866639  s :     0.866639
      pz      :     0.008735  p :     0.027847
      px      :     0.010930
      py      :     0.008182
      dz2     :     0.000631  d :     0.002446
      dxz     :     0.000571
      dyz     :     0.000544
      dx2y2   :     0.000305
      dxy     :     0.000394
 12 H s       :     0.866190  s :     0.866190
      pz      :     0.007945  p :     0.027908
      px      :     0.010194
      py      :     0.009769
      dz2     :     0.000552  d :     0.002442
      dxz     :     0.000529
      dyz     :     0.000407
      dx2y2   :     0.000554
      dxy     :     0.000399
 13 H s       :     0.848755  s :     0.848755
      pz      :     0.009421  p :     0.027789
      px      :     0.008921
      py      :     0.009447
      dz2     :     0.000239  d :     0.002429
      dxz     :     0.000299
      dyz     :     0.000643
      dx2y2   :     0.000569
      dxy     :     0.000679
 14 H s       :     0.872804  s :     0.872804
      pz      :     0.010718  p :     0.029477
      px      :     0.010023
      py      :     0.008736
      dz2     :     0.000717  d :     0.002509
      dxz     :     0.000691
      dyz     :     0.000500
      dx2y2   :     0.000351
      dxy     :     0.000250
 15 H s       :     0.845468  s :     0.845468
      pz      :     0.009566  p :     0.027769
      px      :     0.008677
      py      :     0.009527
      dz2     :     0.000205  d :     0.002480
      dxz     :     0.000707
      dyz     :     0.000252
      dx2y2   :     0.000606
      dxy     :     0.000710
 16 H s       :     0.869302  s :     0.869302
      pz      :     0.011317  p :     0.029394
      px      :     0.008471
      py      :     0.009606
      dz2     :     0.000706  d :     0.002485
      dxz     :     0.000496
      dyz     :     0.000784
      dx2y2   :     0.000242
      dxy     :     0.000257
 17 H s       :     0.868344  s :     0.868344
      pz      :     0.010585  p :     0.029997
      px      :     0.010453
      py      :     0.008960
      dz2     :     0.000594  d :     0.002505
      dxz     :     0.000595
      dyz     :     0.000498
      dx2y2   :     0.000337
      dxy     :     0.000482
 18 H s       :     0.848121  s :     0.848121
      pz      :     0.010255  p :     0.027711
      px      :     0.009437
      py      :     0.008019
      dz2     :     0.000352  d :     0.002428
      dxz     :     0.000378
      dyz     :     0.000655
      dx2y2   :     0.000460
      dxy     :     0.000583
 19 H s       :     0.864516  s :     0.864516
      pz      :     0.009259  p :     0.027837
      px      :     0.010265
      py      :     0.008313
      dz2     :     0.000688  d :     0.002443
      dxz     :     0.000535
      dyz     :     0.000589
      dx2y2   :     0.000402
      dxy     :     0.000230
 20 H s       :     0.862432  s :     0.862432
      pz      :     0.007855  p :     0.027953
      px      :     0.008565
      py      :     0.011533
      dz2     :     0.000462  d :     0.002436
      dxz     :     0.000297
      dyz     :     0.000542
      dx2y2   :     0.000542
      dxy     :     0.000593
 21 H s       :     0.861774  s :     0.861774
      pz      :     0.010184  p :     0.030557
      px      :     0.010834
      py      :     0.009540
      dz2     :     0.000594  d :     0.002538
      dxz     :     0.000568
      dyz     :     0.000503
      dx2y2   :     0.000360
      dxy     :     0.000512
 22 H s       :     0.839323  s :     0.839323
      pz      :     0.010184  p :     0.027677
      px      :     0.009165
      py      :     0.008329
      dz2     :     0.000361  d :     0.002416
      dxz     :     0.000387
      dyz     :     0.000636
      dx2y2   :     0.000461
      dxy     :     0.000570
 23 H s       :     0.849512  s :     0.849512
      pz      :     0.009085  p :     0.027500
      px      :     0.010682
      py      :     0.007734
      dz2     :     0.000657  d :     0.002408
      dxz     :     0.000524
      dyz     :     0.000537
      dx2y2   :     0.000439
      dxy     :     0.000251
 24 H s       :     0.863489  s :     0.863489
      pz      :     0.007713  p :     0.027731
      px      :     0.008839
      py      :     0.011178
      dz2     :     0.000502  d :     0.002449
      dxz     :     0.000374
      dyz     :     0.000530
      dx2y2   :     0.000503
      dxy     :     0.000540
 25 H s       :     0.829276  s :     0.829276
      pz      :     0.009881  p :     0.027843
      px      :     0.008656
      py      :     0.009306
      dz2     :     0.000207  d :     0.002498
      dxz     :     0.000316
      dyz     :     0.000645
      dx2y2   :     0.000656
      dxy     :     0.000673
 26 H s       :     0.861609  s :     0.861609
      pz      :     0.011290  p :     0.032124
      px      :     0.012039
      py      :     0.008795
      dz2     :     0.000778  d :     0.002586
      dxz     :     0.000738
      dyz     :     0.000528
      dx2y2   :     0.000317
      dxy     :     0.000225
 27 H s       :     0.827169  s :     0.827169
      pz      :     0.009222  p :     0.028024
      px      :     0.010731
      py      :     0.008071
      dz2     :     0.000198  d :     0.002545
      dxz     :     0.000800
      dyz     :     0.000184
      dx2y2   :     0.000579
      dxy     :     0.000784
 28 H s       :     0.858001  s :     0.858001
      pz      :     0.011646  p :     0.031092
      px      :     0.009030
      py      :     0.010417
      dz2     :     0.000714  d :     0.002530
      dxz     :     0.000504
      dyz     :     0.000820
      dx2y2   :     0.000246
      dxy     :     0.000247


                     *******************************
                     * LOEWDIN POPULATION ANALYSIS *
                     *******************************

----------------------
LOEWDIN ATOMIC CHARGES
----------------------
   0 C :    0.059207
   1 C :    0.053309
   2 C :    0.059778
   3 C :    0.062837
   4 C :    0.058723
   5 C :   -0.212179
   6 O :    0.125673
   7 C :    0.058785
   8 C :    0.058070
   9 C :    0.066908
  10 C :    0.056019
  11 H :   -0.024866
  12 H :   -0.022910
  13 H :   -0.024060
  14 H :   -0.037196
  15 H :   -0.019651
  16 H :   -0.035749
  17 H :   -0.035106
  18 H :   -0.022410
  19 H :   -0.023648
  20 H :   -0.022269
  21 H :   -0.039072
  22 H :   -0.021611
  23 H :   -0.019373
  24 H :   -0.020932
  25 H :   -0.013685
  26 H :   -0.021462
  27 H :   -0.012117
  28 H :   -0.031013

-------------------------------
LOEWDIN REDUCED ORBITAL CHARGES
-------------------------------
  0 C s       :     2.662604  s :     2.662604
      pz      :     0.963155  p :     2.821138
      px      :     0.934638
      py      :     0.923346
      dz2     :     0.047658  d :     0.418616
      dxz     :     0.109360
      dyz     :     0.086540
      dx2y2   :     0.083028
      dxy     :     0.092029
      f0      :     0.003716  f :     0.038435
      f+1     :     0.005349
      f-1     :     0.005419
      f+2     :     0.005077
      f-2     :     0.006066
      f+3     :     0.007300
      f-3     :     0.005508
  1 C s       :     2.661660  s :     2.661660
      pz      :     0.947590  p :     2.827687
      px      :     0.964657
      py      :     0.915439
      dz2     :     0.068840  d :     0.418758
      dxz     :     0.087017
      dyz     :     0.092364
      dx2y2   :     0.097415
      dxy     :     0.073123
      f0      :     0.004140  f :     0.038587
      f+1     :     0.004490
      f-1     :     0.007483
      f+2     :     0.005421
      f-2     :     0.004909
      f+3     :     0.005875
      f-3     :     0.006269
  2 C s       :     2.662466  s :     2.662466
      pz      :     0.957209  p :     2.820435
      px      :     0.920393
      py      :     0.942833
      dz2     :     0.052286  d :     0.418831
      dxz     :     0.108339
      dyz     :     0.089913
      dx2y2   :     0.104920
      dxy     :     0.063373
      f0      :     0.004497  f :     0.038490
      f+1     :     0.006528
      f-1     :     0.003850
      f+2     :     0.006799
      f-2     :     0.004873
      f+3     :     0.005049
      f-3     :     0.006893
  3 C s       :     2.659423  s :     2.659423
      pz      :     0.939167  p :     2.824895
      px      :     0.909197
      py      :     0.976531
      dz2     :     0.047922  d :     0.413629
      dxz     :     0.099545
      dyz     :     0.111234
      dx2y2   :     0.099312
      dxy     :     0.055616
      f0      :     0.006094  f :     0.039217
      f+1     :     0.006895
      f-1     :     0.003011
      f+2     :     0.006789
      f-2     :     0.005115
      f+3     :     0.005338
      f-3     :     0.005974
  4 C s       :     2.666724  s :     2.666724
      pz      :     0.947907  p :     2.851666
      px      :     0.938789
      py      :     0.964970
      dz2     :     0.067186  d :     0.384789
      dxz     :     0.086245
      dyz     :     0.069836
      dx2y2   :     0.068058
      dxy     :     0.093465
      f0      :     0.004648  f :     0.038097
      f+1     :     0.006145
      f-1     :     0.004749
      f+2     :     0.004234
      f-2     :     0.006044
      f+3     :     0.006256
      f-3     :     0.006021
  5 C s       :     2.762756  s :     2.762756
      pz      :     0.708568  p :     2.566213
      px      :     0.973609
      py      :     0.884036
      dz2     :     0.090021  d :     0.770213
      dxz     :     0.159518
      dyz     :     0.084998
      dx2y2   :     0.212238
      dxy     :     0.223438
      f0      :     0.006885  f :     0.112997
      f+1     :     0.017555
      f-1     :     0.004340
      f+2     :     0.012747
      f-2     :     0.019393
      f+3     :     0.031186
      f-3     :     0.020892
  6 O s       :     3.377942  s :     3.377942
      pz      :     1.353088  p :     4.423218
      px      :     1.504543
      py      :     1.565588
      dz2     :     0.007378  d :     0.068073
      dxz     :     0.016516
      dyz     :     0.004280
      dx2y2   :     0.021572
      dxy     :     0.018327
      f0      :     0.000378  f :     0.005094
      f+1     :     0.000711
      f-1     :     0.000044
      f+2     :     0.000761
      f-2     :     0.000716
      f+3     :     0.001365
      f-3     :     0.001119
  7 C s       :     2.660055  s :     2.660055
      pz      :     0.943913  p :     2.825173
      px      :     0.920235
      py      :     0.961025
      dz2     :     0.063392  d :     0.416718
      dxz     :     0.107721
      dyz     :     0.084526
      dx2y2   :     0.080402
      dxy     :     0.080677
      f0      :     0.004957  f :     0.039270
      f+1     :     0.006683
      f-1     :     0.004594
      f+2     :     0.005148
      f-2     :     0.006449
      f+3     :     0.006290
      f-3     :     0.005149
  8 C s       :     2.659299  s :     2.659299
      pz      :     0.944057  p :     2.826144
      px      :     0.908991
      py      :     0.973096
      dz2     :     0.048906  d :     0.417050
      dxz     :     0.098148
      dyz     :     0.114155
      dx2y2   :     0.099080
      dxy     :     0.056761
      f0      :     0.005857  f :     0.039438
      f+1     :     0.007036
      f-1     :     0.003208
      f+2     :     0.006780
      f-2     :     0.005218
      f+3     :     0.005360
      f-3     :     0.005978
  9 C s       :     2.662170  s :     2.662170
      pz      :     0.960239  p :     2.814551
      px      :     0.928132
      py      :     0.926180
      dz2     :     0.046377  d :     0.418023
      dxz     :     0.104312
      dyz     :     0.098475
      dx2y2   :     0.099770
      dxy     :     0.069089
      f0      :     0.004168  f :     0.038348
      f+1     :     0.006210
      f-1     :     0.004272
      f+2     :     0.006500
      f-2     :     0.004938
      f+3     :     0.005185
      f-3     :     0.007074
 10 C s       :     2.667588  s :     2.667588
      pz      :     0.952232  p :     2.852656
      px      :     0.976796
      py      :     0.923627
      dz2     :     0.057668  d :     0.386289
      dxz     :     0.077220
      dyz     :     0.093112
      dx2y2   :     0.097970
      dxy     :     0.060318
      f0      :     0.004059  f :     0.037449
      f+1     :     0.004456
      f-1     :     0.005848
      f+2     :     0.005954
      f-2     :     0.004937
      f+3     :     0.005832
      f-3     :     0.006362
 11 H s       :     0.843927  s :     0.843927
      pz      :     0.060016  p :     0.152758
      px      :     0.053988
      py      :     0.038754
      dz2     :     0.007822  d :     0.028181
      dxz     :     0.007355
      dyz     :     0.006044
      dx2y2   :     0.003434
      dxy     :     0.003526
 12 H s       :     0.841884  s :     0.841884
      pz      :     0.054336  p :     0.152827
      px      :     0.048171
      py      :     0.050320
      dz2     :     0.006996  d :     0.028199
      dxz     :     0.005787
      dyz     :     0.005750
      dx2y2   :     0.005051
      dxy     :     0.004614
 13 H s       :     0.841914  s :     0.841914
      pz      :     0.044978  p :     0.153916
      px      :     0.042772
      py      :     0.066166
      dz2     :     0.003377  d :     0.028229
      dxz     :     0.002502
      dyz     :     0.008071
      dx2y2   :     0.006715
      dxy     :     0.007562
 14 H s       :     0.844208  s :     0.844208
      pz      :     0.063599  p :     0.163869
      px      :     0.046949
      py      :     0.053322
      dz2     :     0.008828  d :     0.029119
      dxz     :     0.006888
      dyz     :     0.006255
      dx2y2   :     0.003819
      dxy     :     0.003329
 15 H s       :     0.836668  s :     0.836668
[...]
   MOs        -> AO shells       204.8
   PAOs       -> AO shells       217.6

Calculating integrals (2.4 sec, 203.347 MB)
Sorting integrals (0.3 sec, 203.331 MB)
Total time for the integral transformation: 2.8 sec
--------------------------------
INITIAL GUESS AND PNO GENERATION
--------------------------------

PNO truncation parameters                   .... 
    ScaleTCutPNO       =        1.000e-02
    PAOOverlapThresh   =        1.000e-08

    TCutPairs          =        1.000e-05
    TCutPNO            =        1.000e-07
    TCutPNOSingles     =        3.000e-09
    TCutMP2Pairs       =        1.000e-06
    TCutMKN            =        1.000e-03
    TCutDO             =        5.000e-03

Pair selection                          .... not used
Type of local MP2 treatment                 .... full local PMP2
Strategy for PNO selection                  .... occupation number selection
Pair density normalization                  .... MP2 norm
Spin component scaling                      .... not used

PASS-1: Formation of initial guess LMP2 amplitudes
Initial amplitudes guess done. Entering LMP2 iteration loop:
   Max. no of iterations          ...  50
   Energy convergence tolerance   ...    1.0e-07
   Residual convergence tolerance ...    5.0e-07
   Fock matrix cutoff             ...    1.0e-05 Eh
   DIIS convergence acceleration parameters:
        Max # vectors in DIIS     ... 7
        Start iteration of DIIS   ... 0
        Levelshift                ... 2.000e-01
        Damping factor 1          ... 5.000e-01
        Damping factor 2          ... 1.000e+00
   L-MP2 PNO cut-off              ...   1.0e-09
   L-MP2 PNO cut-off (core)       ...   1.0e-11
                           *** Turning on DIIS ***
LMP2-Iter=   0:  ELMP2= -1.926893951222  DE=   3.7e-02 RMAX=   2.1e-02
LMP2-Iter=   1:  ELMP2= -1.945966031375  DE=   1.9e-02 RMAX=   9.8e-03
LMP2-Iter=   2:  ELMP2= -1.949176273698  DE=   3.2e-03 RMAX=   4.0e-03
LMP2-Iter=   3:  ELMP2= -1.949567094896  DE=   3.9e-04 RMAX=   1.5e-03
LMP2-Iter=   4:  ELMP2= -1.949568513599  DE=   1.4e-06 RMAX=   4.3e-04
LMP2-Iter=   5:  ELMP2= -1.949555577781  DE=   1.3e-05 RMAX=   1.1e-04
LMP2-Iter=   6:  ELMP2= -1.949553295938  DE=   2.3e-06 RMAX=   1.4e-05
LMP2-Iter=   7:  ELMP2= -1.949553287702  DE=   8.2e-09 RMAX=   2.2e-06
LMP2-Iter=   8:  ELMP2= -1.949553366914  DE=   7.9e-08 RMAX=   2.8e-07
LMP2-Iter=   9:  ELMP2= -1.949553373040  DE=   6.1e-09 RMAX=   8.0e-08 => CONVERGED
PASS-2: Formation of Pair natural orbitals
   .... Finished loop over pairs

 PNO Occupation Number Statistics: 
  | Av. % of trace(Dij) retained        ...  98.920441550920
  | sigma^2 in % of trace(Dij) retained ...   1.36e+00
  | Av. % of trace(Di) retained         ...  99.999695321961
  | sigma^2 in % of trace(Di) retained  ...   3.81e-09
 Distributions of % trace(Dij) recovered:
  |       >= 99.9  ...   101 ( 19.1 % of all pairs)
  |   [90.0, 99.0) ...   201 ( 38.1 % of all pairs)
  |   [99.0, 99.9) ...   226 ( 42.8 % of all pairs)
 Distributions of % trace(Di) recovered :
  |       >= 99.9  ...    32 (100.0 % of all I-pairs )

Making pair pair interaction lists          ... done

                       ===========================
                        494 OF  528 PAIRS ARE KEPT
                       ===========================

Total time spent in the initial guess                 ...    75.719 sec
L-MP2 correlation energy (all non-screened pairs)     ...      -1.949553373040 Eh
L-MP2 PNO error correction                            ...      -0.000064343339 Eh
                                                          --------------------
Initial total L-MP2 energy (non-screened pairs)       ...      -1.949617716379 Eh

Initial PNO correlation energy                        ...      -1.947225296884 Eh
sum of pair energies estimated for screened out pairs ...       0.000000000000 Eh
sum of MP2 pair energies for pairs that were not kept ...      -0.000242635086 Eh
sum of PNO error estimates for the kept pairs         ...      -0.002243743018 Eh
                                                          --------------------
sum of all corrections                                         -0.002486378104
Initial total correlation energy                               -1.949711674988
Thresholds for map construction and integral transformation for fine MP2 and CCSD(T) calculation:
   TCutMKN   ...     1.0e-03
   TCutDO    ...     5.0e-03
   TCutPairs ...     1.0e-05
   TCutCMO   ...     1.0e-03
   TCutCPAO  ...     1.0e-03

Time for aux screen maps:            0.015
Time for maps after fine MP2:            0.052
-----------------------------
LOCAL RI TRANSFORMATION (IJV)
-----------------------------

Orbital window:      11 to 42
Basis functions:    582 (218 shells)
Aux. functions:    1431 (433 shells)

Processing maps (0.0 sec)
Average map sizes:
   Aux shells -> MOs(i)           32.0
   Aux shells -> MOs(j)           32.0
   MOs        -> AO shells       204.8

Calculating integrals (2.1 sec, 11.196 MB)
Sorting integrals (0.0 sec, 11.180 MB)
Total time for the integral transformation: 2.2 sec
--------------------------------
LOCAL RI TRANSFORMATION (VABPAO)
--------------------------------

Number of PAOs:     582
Basis functions:    582 (218 shells)
Aux. functions:    1431 (433 shells)

Processing maps (0.0 sec)
Average map sizes:
   Aux shells -> PAOs            582.0
   PAOs       -> AO shells       217.6

Calculating integrals (10.7 sec, 6918.092 MB)
Finished


-------------------------------------
Pair Pair Term precalculation with     
RI-(ij|mn) and (im|jn) transformation  
ON THE FLY                             
-------------------------------------

   IBatch   1 (of   3)              ... done (   86.780 sec)
   IBatch   2 (of   3)              ... done (  151.977 sec)
   IBatch   3 (of   3)              ... done (  107.454 sec)
Total EXT                           ...         346.212 sec

---------------------
RI-PNO TRANSFORMATION
---------------------

Total Number of PNOs                   ... 16300
Average number of PNOs per pair        ...    32
Maximal number of PNOs per pair        ...    72
   #pairs with  1 -  5 PNOs   :    0
   #pairs with  6 - 10 PNOs   :   88
   #pairs with 11 - 15 PNOs   :   63
   #pairs with 16 - 20 PNOs   :   18
   #pairs with 21 - 25 PNOs   :   54
   #pairs with 26 - 30 PNOs   :   44
   #pairs with 31 - 35 PNOs   :   12
   #pairs with 36 - 40 PNOs   :   21
   #pairs with 41 - 45 PNOs   :   21
   #pairs with 46 - 50 PNOs   :   39
   #pairs with 51 - 55 PNOs   :   60
   #pairs with 56 - 60 PNOs   :    5
   #pairs with 61 - 65 PNOs   :   15
   #pairs with 66 - 70 PNOs   :   46
   #pairs with 71 - 75 PNOs   :    8

Generation of (ij|ab)[P] integrals            ... on
Generation of (ia|bc)[P],(ja|bc)[P] integrals ... on
Storage of 3 and 4 external integrals         ... on
Generation of ALL (ka|bc)[P] integrals        ... on
Keep RI integrals in memory                   ... off

Ibatch:  1 (of  1)
Starting 2-4 index PNO integral generation ... done

Timings:
Total PNO integral transformation time     ...        212.959 sec
Size of the 3-external file                ...       311 MB
Size of the 4-external file                ...      2281 MB
Size of the IKJL file                      ...         0 MB
Size of the all 3-external file            ...      4983 MB
Size of the 1-external file                ...        11 MB

Making pair/pair overlap matrices          ... done (   35.974 sec)
Size of the pair overlap file              ... 1416 MB
Redoing the guess amplitudes               ... done (    0.008 sec)

-------------------------
FINAL STARTUP INFORMATION
-------------------------

E(0)                                       ...   -464.170387113
E(L-MP2)                                   ...     -1.949617716
E(L-MP2) including corrections             ...     -1.949711675
Initial E(tot)                             ...   -466.120098788
<T|T>                                      ...      0.545850242
Number of pairs included                   ... 494
Total number of pairs                      ... 528

------------------------------------------------
                  RHF COUPLED CLUSTER ITERATIONS
------------------------------------------------

Number of PNO amplitudes to be optimized   ...       749188
Number of non-PNO amplitudes               ...    143517374
Untruncated number of regular amplitudes   ...    153395088

Iter       E(tot)           E(Corr)          Delta-E          Residual     Time
  0   -466.059799098     -1.886925607      0.062692109      0.016142580   32.41
                           *** Turning on DIIS ***
  1   -466.145707268     -1.972833778     -0.085908170      0.014260864   33.10
  2   -466.196094779     -2.023221288     -0.050387511      0.007342709   33.20
  3   -466.206050994     -2.033177503     -0.009956214      0.004650508   33.00
  4   -466.208443649     -2.035570158     -0.002392655      0.002423249   29.93
  5   -466.209084276     -2.036210785     -0.000640627      0.001210094   31.41
  6   -466.209279562     -2.036406072     -0.000195287      0.000504703   33.14
  7   -466.209309245     -2.036435754     -0.000029682      0.000198016   32.13
  8   -466.209302987     -2.036429496      0.000006258      0.000071145   30.77
  9   -466.209297312     -2.036423821      0.000005675      0.000024746   30.71
 10   -466.209296619     -2.036423128      0.000000693      0.000006847   30.72
               --- The Coupled-Cluster iterations have converged ---

----------------------
COUPLED CLUSTER ENERGY
----------------------

E(0)                                       ...   -464.170387113
E(CORR)(strong-pairs)                      ...     -2.036423128
E(CORR)(weak-pairs)                        ...     -0.002486378
E(CORR)(corrected)                         ...     -2.038909506
E(TOT)                                     ...   -466.209296619
Singles Norm <S|S>**1/2                    ...      0.085819318  
T1 diagnostic                              ...      0.010727415  

------------------
LARGEST AMPLITUDES
------------------
  18-> 43  18-> 43       0.056773
  19-> 43  19-> 43       0.054676
  19-> 43  18-> 43       0.047231
  25-> 49  25-> 49       0.033292
  33-> 49  33-> 49       0.033246
  26-> 49  26-> 49       0.032673
  34-> 49  34-> 49       0.032469
  30-> 50  30-> 50       0.032405
  38-> 50  38-> 50       0.031820
  37-> 49  37-> 49       0.031599
  18-> 43  -1-> -1       0.030762
  15-> 52  15-> 52       0.030668
  19-> 43  -1-> -1       0.030417
  30-> 43  30-> 43       0.028840
  31-> 43  31-> 43       0.028743
  28-> 43  28-> 43       0.028462


-------------------------------------------
DLPNO BASED TRIPLES CORRECTION
-------------------------------------------

Singles multiplier          ...  1.000000
TCutTNO                     ... 1.000e-09
TCutMP2Pairs                ... 1.000e-06
TCutDOStrong                ... 1.000e-02
TCutMKNStrong               ... 1.000e-02
TCutDOWeak                  ... 2.000e-02
TCutMKNWeak                 ... 1.000e-01

Fragment selection                          .... not used
Number of Triples that are to be computed   ...      5739

 . . . . . . . . .
10% done  
20% done  
30% done  
40% done  
50% done  
60% done               (   1284.547 sec)
 . . . . . . . . .
70% done  
80% done  
90% done               (    650.393 sec)
Triples timings:
Total time for T0               ...  2071.805 sec
Total time for Iterative (T)    ...     0.000 sec
Total time of overall (T)       ...  2343.394 sec

Triples List generation         ...     0.000 sec
TNO generation                  ...   136.844 sec
Pair density generation         ...     0.008 sec
Look up tables                  ...     0.000 sec
Generating 3-index integrals    ...  1639.269 sec
  Make 4-ind.int. from 3-ind.int...    55.558 sec
  Projecting amplitudes (D + S) ...   177.382 sec
  Downprojecting integrals      ...     0.012 sec
  Energy contr. (sum over a,b,c)...    17.498 sec
Fitting ET(->0)                 ...     0.000 sec

Everything after 3-index        ...   295.672 sec

Timing details:
 TNO integrals                  ...  1687.618 sec
   Reading 3-index integrals    ...    31.361 sec
   Sorting integrals            ...   173.721 sec
       Sorting integrals 1      ...     0.052 sec
       Sorting integrals 2      ...   100.942 sec
       Sorting integrals 3      ...    52.718 sec
       Sorting integrals 4      ...     0.328 sec
       Sorting integrals 5      ...     1.387 sec
       Sorting integrals 6      ...    18.294 sec
   Calculating local VM**-1/2   ...     2.922 sec
   Orthogonal. integrals        ...     3.752 sec
   Multipl. 3-index integrals   ...  1475.862 sec
   All concerning IRIab (w/TNO) ...    28.841 sec

 Calculate W0/W1                ...    45.077 sec
 W 3-ext contribution           ...    22.151 sec
 W 3-int contribution           ...     8.773 sec
 Sorting W                      ...    13.486 sec

 V exchange contribution        ...     5.535 sec

 Timings for Triples without generation
     of 3-index integrals       ...   295.556 sec
       0 weak pairs             ...   272.270 sec
       1 weak pair              ...    23.286 sec
       2 weak pairs             ...     0.000 sec
       3 weak pairs             ...     0.000 sec
  Extra time for extrapolation  ...     0.000 sec

Number of Triples   (0, 1, 2, 3 weak pairs; overall):   5009     730       0       0  (  5739)
Number of Atoms     (0, 1, 2, 3 weak pairs; overall):   24.8    20.7     0.0     0.0  (    29)
Number of PAOs      (0, 1, 2, 3 weak pairs; overall):  510.7   443.5     0.0     0.0  (   582)
Number of AuxFcns   (0, 1, 2, 3 weak pairs; overall):  461.3   356.4     0.0     0.0  (  1431)
Number of TNOs      (0, 1, 2, 3 weak pairs         ):   86.7    58.6     0.0     0.0
Aver. Number of NTNO, Atoms, PAOs, AuxFcns / Triples:   5739    83.1    24.3   502.1   448.0

Triples Correction (T)                     ...     -0.084683107
Final correlation energy                   ...     -2.123592613
E(CCSD)                                    ...   -466.209296619
E(CCSD(T))                                 ...   -466.293979725


Maximum memory used throughout the entire calculation: 8046.6 MB


------------------------------------------------------------------------------- 
                                     TIMINGS                                   
------------------------------------------------------------------------------- 


Total execution time                   ...     3430.952 sec

Localization of occupied MO's          ...        1.117 sec (  0.0%)
Fock Matrix Formation                  ...        9.517 sec (  0.3%)
Global overlap, Fock, MKN matrices     ...        0.342 sec (  0.0%)
Differential overlap integrals         ...        0.362 sec (  0.0%)
Organizing maps                        ...        0.155 sec (  0.0%)
RI 3-index integral generations        ...       18.500 sec (  0.5%)
RI-PNO integral transformation         ...      603.308 sec ( 17.6%)
Initial Guess                          ...       90.084 sec (  2.6%)
DIIS Solver                            ...        3.782 sec (  0.1%)
State Vector Update                    ...        0.072 sec (  0.0%)
Sigma-vector construction              ...      349.881 sec ( 10.2%)
  <0|H|D>                              ...        0.001 sec (  0.0% of sigma)
  <D|H|D>(0-ext)                       ...       11.886 sec (  3.4% of sigma)
  <D|H|D>(2-ext Fock)                  ...        0.028 sec (  0.0% of sigma)
  <D|H|D>(2-ext)                       ...       97.964 sec ( 28.0% of sigma)
  <D|H|D>(4-ext)                       ...       25.111 sec (  7.2% of sigma)
  <D|H|D>(4-ext-corr)                  ...      136.946 sec ( 39.1% of sigma)
  CCSD doubles correction              ...        0.605 sec (  0.2% of sigma)
  <S|H|S>                              ...        1.696 sec (  0.5% of sigma)
  <S|H|D>(1-ext)                       ...        1.106 sec (  0.3% of sigma)
  <D|H|S>(1-ext)                       ...        0.033 sec (  0.0% of sigma)
  <S|H|D>(3-ext)                       ...        0.944 sec (  0.3% of sigma)
  CCSD singles correction              ...        0.001 sec (  0.0% of sigma)
  Fock-dressing                        ...       50.871 sec ( 14.5% of sigma)
  Singles amplitudes                   ...        1.803 sec (  0.5% of sigma)
  (ik|jl)-dressing                     ...        8.658 sec (  2.5% of sigma)
  (ij|ab),(ia|jb)-dressing             ...        4.826 sec (  1.4% of sigma)
  Pair energies                        ...        0.017 sec (  0.0% of sigma)
Total Time for computing (T)           ...     2346.674 sec ( 68.4% of ALL)


-------------------------   --------------------
FINAL SINGLE POINT ENERGY      -466.293979725281
-------------------------   --------------------


                            ***************************************
                            *     ORCA property calculations      *
                            ***************************************

                                    ---------------------
                                    Active property flags
                                    ---------------------
   (+) Dipole Moment


------------------------------------------------------------------------------
                       ORCA ELECTRIC PROPERTIES CALCULATION
------------------------------------------------------------------------------

Dipole Moment Calculation                       ... on
Quadrupole Moment Calculation                   ... off
Polarizability Calculation                      ... off
GBWName                                         ... 2_keto_cyclodecanone.gbw
Electron density file                           ... 2_keto_cyclodecanone.scfp.tmp
The origin for moment calculation is the CENTER OF MASS  = (-0.121532, -0.035540 -0.014600)

-------------
DIPOLE MOMENT
-------------
                                X             Y             Z
Electronic contribution:     -9.11430      -2.62911      -0.85569
Nuclear contribution   :     10.45183       3.05655       1.25565
                        -----------------------------------------
Total Dipole Moment    :      1.33752       0.42744       0.39997
                        -----------------------------------------
Magnitude (a.u.)       :      1.46002
Magnitude (Debye)      :      3.71107



--------------------
Rotational spectrum 
--------------------
 
Rotational constants in cm-1:     0.047751     0.029003     0.020382 
Rotational constants in MHz :  1431.524333   869.486120   611.026460 

 Dipole components along the rotational axes: 
x,y,z [a.u.] :     1.356673    -0.375148     0.387755 
x,y,z [Debye]:     3.448388    -0.953549     0.985595 

 

Timings for individual modules:

Sum of individual times         ...     3538.068 sec (=  58.968 min)
GTO integral calculation        ...        1.192 sec (=   0.020 min)   0.0 %
SCF iterations                  ...       91.967 sec (=   1.533 min)   2.6 %
MDCI module                     ...     3444.908 sec (=  57.415 min)  97.4 %
                             ****ORCA TERMINATED NORMALLY****
TOTAL RUN TIME: 0 days 0 hours 59 minutes 0 seconds 260 msec
2_keto_cyclodecanone.gbw -> /home1/pantazis/klk/xyz_1/Oxygen_compounds/2_keto_cyclodecanone.gbw
2_keto_cyclodecanone.job -> /home1/pantazis/klk/xyz_1/Oxygen_compounds/2_keto_cyclodecanone.job
2_keto_cyclodecanone.loc -> /home1/pantazis/klk/xyz_1/Oxygen_compounds/2_keto_cyclodecanone.loc
2_keto_cyclodecanone.nodes -> /home1/pantazis/klk/xyz_1/Oxygen_compounds/2_keto_cyclodecanone.nodes
2_keto_cyclodecanone.prop -> /home1/pantazis/klk/xyz_1/Oxygen_compounds/2_keto_cyclodecanone.prop
2_keto_cyclodecanone_property.txt -> /home1/pantazis/klk/xyz_1/Oxygen_compounds/2_keto_cyclodecanone_property.txt
2_keto_cyclodecanone.xyz -> /home1/pantazis/klk/xyz_1/Oxygen_compounds/2_keto_cyclodecanone.xyz
cp: cannot stat 2_keto_cyclodecanone.asa.inp: No such file or directory
