! Job execution by suborca V 6.07 on ZEUS !
Job started from zeus1, running /scratch/pantazis/2_methylthiane_eq__OMwarl/orca/orca copied from /opt/orca on zeussn143 in /scratch/pantazis/2_methylthiane_eq__OMwarl
Job execution start: Thu Jun 27 11:08:19 CEST 2019
Shared library path: /scratch/pantazis/2_methylthiane_eq__OMwarl/orca:/opt/openmpi_1.10.2/lib:/opt/intel/mkl/lib/intel64:/opt/intel/lib/intel64:
PBS Job ID is: 157986.icqc
izeussn143
izeussn143
izeussn143
izeussn143
izeussn143
izeussn143
izeussn143
izeussn143

                                 *****************
                                 * O   R   C   A *
                                 *****************

           --- An Ab Initio, DFT and Semiempirical electronic structure package ---

                  #######################################################
                  #                        -***-                        #
                  #          Department of theory and spectroscopy      #
                  #               Directorship: Frank Neese             #
                  #        Max Planck Institute fuer Kohlenforschung    #
                  #                Kaiser Wilhelm Platz 1               #
                  #                 D-45470 Muelheim/Ruhr               #
                  #                      Germany                        #
                  #                                                     #
                  #                  All rights reserved                #
                  #                        -***-                        #
                  #######################################################


                         Program Version 4.1.x  -  STABLE  -
                                (SVN: $Rev: 14094$)
                ($Date: 2019-06-14 15:01:15 +0200 (Fri, 14 Jun 2019) $)

                         (BUILD: $Sun Jun 23 06:18:31 CEST 2019$)


 With contributions from (in alphabetic order):
   Daniel Aravena         : Magnetic Properties
   Michael Atanasov       : Ab Initio Ligand Field Theory
   Alexander A. Auer      : GIAO ZORA
   Ute Becker             : Parallelization
   Giovanni Bistoni       : ED, Open-shell LED
   Martin Brehm           : Molecular dynamics
   Dmytro Bykov           : SCF Hessian
   Vijay G. Chilkuri      : MRCI spin determinant printing
   Dipayan Datta          : RHF DLPNO-CCSD density
   Achintya Kumar Dutta   : EOM-CC, STEOM-CC
   Dmitry Ganyushin       : Spin-Orbit,Spin-Spin,Magnetic field MRCI
   Miquel Garcia          : C-PCM Hessian
   Yang Guo               : DLPNO-NEVPT2, CIM, IAO-localization
   Andreas Hansen         : Spin unrestricted coupled pair/coupled cluster methods
   Benjamin Helmich-Paris : CASSCF linear response (MC-RPA)
   Lee Huntington         : MR-EOM, pCC
   Robert Izsak           : Overlap fitted RIJCOSX, COSX-SCS-MP3, EOM
   Christian Kollmar      : KDIIS, OOCD, Brueckner-CCSD(T), CCSD density
   Simone Kossmann        : Meta GGA functionals, TD-DFT gradient, OOMP2, MP2 Hessian
   Martin Krupicka        : AUTO-CI
   Lucas Lang             : DCDCAS
   Dagmar Lenk            : GEPOL surface, SMD
   Dimitrios Liakos       : Extrapolation schemes; parallel MDCI
   Dimitrios Manganas     : ROCIS; embedding schemes
   Dimitrios Pantazis     : SARC Basis sets
   Taras Petrenko         : DFT Hessian,TD-DFT gradient, ASA, ECA, R-Raman, ABS, FL, XAS/XES, NRVS
   Peter Pinski           : DLPNO-MP2, DLPNO-MP2 Gradient
   Christoph Reimann      : Effective Core Potentials
   Marius Retegan         : Local ZFS, SOC
   Christoph Riplinger    : Optimizer, TS searches, QM/MM, DLPNO-CCSD(T), (RO)-DLPNO pert. Triples
   Tobias Risthaus        : Range-separated hybrids, TD-DFT gradient, RPA, STAB
   Michael Roemelt        : Restricted open shell CIS
   Masaaki Saitow         : Open-shell DLPNO
   Barbara Sandhoefer     : DKH picture change effects
   Avijit Sen             : IP-ROCIS
   Kantharuban Sivalingam : CASSCF convergence, NEVPT2, FIC-MRCI
   Bernardo de Souza      : ESD, SOC TD-DFT
   Georgi Stoychev        : AutoAux, RI-MP2 NMR
   Willem Van den Heuvel  : Paramagnetic NMR
   Boris Wezisla          : Elementary symmetry handling
   Frank Wennmohs         : Technical directorship


 We gratefully acknowledge several colleagues who have allowed us to
 interface, adapt or use parts of their codes:
   Stefan Grimme, W. Hujo, H. Kruse,             : VdW corrections, initial TS optimization,
                  C. Bannwarth                     DFT functionals, gCP, sTDA/sTD-DF
   Ed Valeev                                     : LibInt (2-el integral package), F12 methods
   Garnet Chan, S. Sharma, J. Yang, R. Olivares  : DMRG
   Ulf Ekstrom                                   : XCFun DFT Library
   Mihaly Kallay                                 : mrcc  (arbitrary order and MRCC methods)
   Andreas Klamt, Michael Diedenhofen            : otool_cosmo (COSMO solvation model)
   Jiri Pittner, Ondrej Demel                    : Mk-CCSD
   Frank Weinhold                                : gennbo (NPA and NBO analysis)
   Christopher J. Cramer and Donald G. Truhlar   : smd solvation model
   Lars Goerigk                                  : TD-DFT with DH, B97 family of functionals
   V. Asgeirsson, H. Jonsson                     : NEB implementation
   FAccTs GmbH                                   : IRC, NEB, NEB-TS, Multilevel


 Your calculation uses the libint2 library for the computation of 2-el integrals
 For citations please refer to: http://libint.valeyev.net

 This ORCA versions uses:
   CBLAS   interface :  Fast vector & matrix operations
   LAPACKE interface :  Fast linear algebra routines
   SCALAPACK package :  Parallel linear algebra routines




***************************************
The coordinates will be read from file: 2_methylthiane_eq.xyz
***************************************


----- Orbital basis set information -----
Your calculation utilizes the basis: cc-pVTZ 
       H, B-Ne : Obtained from the ccRepo (grant-hill.group.shef.ac.uk/ccrepo) Feb. 2017
                 T. H. Dunning, Jr., J. Chem. Phys. 90, 1007 (1989)
            He : Obtained from the ccRepo (grant-hill.group.shef.ac.uk/ccrepo) Feb. 2017
                 D. E. Woon, T. H. Dunning, Jr., J. Chem. Phys. 100, 2975 (1994)
  Li-Be, Na-Mg : Obtained from the ccRepo (grant-hill.group.shef.ac.uk/ccrepo) Feb. 2017
                 B. P. Prascher, D. E. Woon, K. A. Peterson, T. H. Dunning, Jr., A. K. Wilson, Theor. Chem. Acc. 128, 69 (2011)
         Al-Ar : Obtained from the ccRepo (grant-hill.group.shef.ac.uk/ccrepo) Feb. 2017
                 D. E. Woon, T. H. Dunning, Jr., J. Chem. Phys. 98, 1358 (1993)
            Ca : Obtained from the Peterson Research Group Website (tyr0.chem.wsu.edu/~kipeters) Feb. 2017
                 J. Koput, K. A. Peterson, J. Phys. Chem. 106, 9595 (2002)
         Sc-Zn : Obtained from the ccRepo (grant-hill.group.shef.ac.uk/ccrepo) Feb. 2017
                 N. B. Balabanov, K. A. Peterson, J. Chem. Phys. 123, 064107 (2005)
                 N. B. Balabanov, K. A. Peterson, J. Chem. Phys. 125, 074110 (2006)
         Ga-Kr : Obtained from the ccRepo (grant-hill.group.shef.ac.uk/ccrepo) Feb. 2017
                 A. K. Wilson, D. E. Woon, K. A. Peterson, T. H. Dunning, Jr., J. Chem. Phys. 110, 7667 (1999)
             Y : Obtained from the ccRepo (grant-hill.group.shef.ac.uk/ccrepo) Feb. 2017
                 K. A. Peterson, D. Figgen, M. Dolg, H. Stoll, J. Chem. Phys. 126, 124101 (2007)
        Ag, Au : Obtained from the Peterson Research Group Website (tyr0.chem.wsu.edu/~kipeters) Feb. 2017
                 K. A. Peterson, C. Puzzarini, Theor. Chem. Acc. 114, 283 (2005)

----- AuxC basis set information -----
Your calculation utilizes the auxiliary basis: cc-pVTZ/C 
  Obtained from the EMSL Basis Set Exchange (bse.pnl.gov) Feb. 2017
  H-He, B-F, Al-Ar, Ga-Kr : F. Weigend, A. Kohn, C. Hattig, J. Chem. Phys. 116, 3175 (2002)
             Li-Be, Na-Mg : C. Haettig, Phys. Chem. Chem. Phys. 7, 59 (2005)
                       Ne : C. Haettig, Phys. Chem. Chem. Phys. 7, 59 (2005)
                            F. Weigend, A. Kohn, C. Hattig, J. Chem. Phys. 116, 3175 (2002)
                    Sc-Zn : J. G. Hill, J. A. Platts, J. Chem. Phys. 128, 044104 (2008)

----- AuxJK basis set information -----
Your calculation utilizes the auxiliary basis: cc-pVTZ/JK 
  H, B-F, Al-Cl, Ga-Br : Obtained from the TURBOMOLE 7.0 basis set library

================================================================================
                                        WARNINGS
                       Please study these warnings very carefully!
================================================================================


WARNING: MDCI localization with Augmented Hessian Foster-Boys
  ===> : Switching off randomization!

WARNING: Post HF methods need fully converged wavefunctions
  ===> : Setting SCFConvForced true
         You can overwrite this default with %scf ConvForced false 


INFO   : the flag for use of LIBINT has been found!

================================================================================
                                       INPUT FILE
================================================================================
NAME = 2_methylthiane_eq.inp
|  1> ! RHF DLPNO-CCSD(T) cc-pVTZ RIJK cc-pVTZ/JK cc-pVTZ/C
|  2> ! KDIIS SOSCF TightSCF TightPNO
|  3> 
|  4> %pal nprocs 8 end
|  5> 
|  6> %maxcore 8000
|  7> 
|  8> %scf maxiter 300
|  9>      shift shift 0.2 erroff 0.1 end
| 10> end
| 11> 
| 12> * xyzfile 0 1 2_methylthiane_eq.xyz 
| 13> 
| 14> 
| 15>                          ****END OF INPUT****
================================================================================

                       ****************************
                       * Single Point Calculation *
                       ****************************

---------------------------------
CARTESIAN COORDINATES (ANGSTROEM)
---------------------------------
  C     -0.266490    1.438260   -0.227680
  C      1.220170    1.465340    0.163840
  C      1.992150    0.211730   -0.275930
  C      1.411370   -1.076690    0.312110
  S     -0.336020   -1.361130   -0.178460
  C     -1.046690    0.257920    0.366480
  C     -2.527580    0.282480   -0.017370
  H      1.989640    0.140490   -1.371040
  H      3.041260    0.300230    0.038260
  H      1.474790   -1.064670    1.407330
  H      1.959920   -1.955640   -0.039450
  H      1.691570    2.354830   -0.271430
  H      1.303090    1.575040    1.255340
  H     -0.961590    0.288890    1.461480
  H     -0.744810    2.368960    0.110090
  H     -0.362350    1.409360   -1.321540
  H     -2.990490    1.211910    0.334160
  H     -3.070640   -0.557050    0.428130
  H     -2.651730    0.231550   -1.104670

----------------------------
CARTESIAN COORDINATES (A.U.)
----------------------------
  NO LB      ZA    FRAG     MASS         X           Y           Z
   0 C     6.0000    0    12.011   -0.503593    2.717918   -0.430253
   1 C     6.0000    0    12.011    2.305787    2.769091    0.309613
   2 C     6.0000    0    12.011    3.764618    0.400112   -0.521432
   3 C     6.0000    0    12.011    2.667103   -2.034649    0.589802
   4 S    16.0000    0    32.060   -0.634986   -2.572163   -0.337241
   5 C     6.0000    0    12.011   -1.977957    0.487398    0.692547
   6 C     6.0000    0    12.011   -4.776434    0.533810   -0.032825
   7 H     1.0000    0     1.008    3.759875    0.265488   -2.590890
   8 H     1.0000    0     1.008    5.747149    0.567352    0.072301
   9 H     1.0000    0     1.008    2.786949   -2.011935    2.659468
  10 H     1.0000    0     1.008    3.703712   -3.695624   -0.074550
  11 H     1.0000    0     1.008    3.196604    4.449984   -0.512928
  12 H     1.0000    0     1.008    2.462483    2.976394    2.372249
  13 H     1.0000    0     1.008   -1.817142    0.545923    2.761797
  14 H     1.0000    0     1.008   -1.407487    4.476686    0.208040
  15 H     1.0000    0     1.008   -0.684742    2.663304   -2.497349
  16 H     1.0000    0     1.008   -5.651207    2.290178    0.631471
  17 H     1.0000    0     1.008   -5.802669   -1.052672    0.809048
  18 H     1.0000    0     1.008   -5.011043    0.437566   -2.087524

--------------------------------
INTERNAL COORDINATES (ANGSTROEM)
--------------------------------
 C      0   0   0     0.000000000000     0.00000000     0.00000000
 C      1   0   0     1.537588759194     0.00000000     0.00000000
 C      2   1   0     1.536518403860   113.48644155     0.00000000
 C      3   2   1     1.530726150035   112.71522584   301.15941176
 S      4   3   2     1.837100119917   112.86899853    59.98135328
 C      1   2   3     1.534581591575   113.98704458    59.65756565
 C      6   1   2     1.530025884814   112.49502165   178.64756599
 H      3   2   1     1.097427605722   109.71985272    63.00280057
 H      3   2   1     1.098717160237   109.40079089   180.12985167
 H      4   3   2     1.097120515349   110.63038465   297.72832480
 H      4   3   2     1.094099921671   111.25510789   178.31741307
 H      2   1   3     1.096754481641   109.19623365   122.32825628
 H      2   1   3     1.100128204529   109.10304258   238.10695738
 H      6   1   2     1.098738436071   108.95376544    57.74248893
 H      1   2   3     1.099582232168   109.11517487   180.61468072
 H      1   2   3     1.098432541943   109.78034076   297.42534356
 H      7   6   1     1.096220385643   109.99124032   300.76221420
 H      7   6   1     1.094620954714   111.45487027   180.91413885
 H      7   6   1     1.095549349596   110.97285878    60.26915546

---------------------------
INTERNAL COORDINATES (A.U.)
---------------------------
 C      0   0   0     0.000000000000     0.00000000     0.00000000
 C      1   0   0     2.905621661473     0.00000000     0.00000000
 C      2   1   0     2.903598983025   113.48644155     0.00000000
 C      3   2   1     2.892653209597   112.71522584   301.15941176
 S      4   3   2     3.471616107238   112.86899853    59.98135328
 C      1   2   3     2.899938938233   113.98704458    59.65756565
 C      6   1   2     2.891329900108   112.49502165   178.64756599
 H      3   2   1     2.073837626619   109.71985272    63.00280057
 H      3   2   1     2.076274531488   109.40079089   180.12985167
 H      4   3   2     2.073257309916   110.63038465   297.72832480
 H      4   3   2     2.067549215102   111.25510789   178.31741307
 H      2   1   3     2.072565606453   109.19623365   122.32825628
 H      2   1   3     2.078941018762   109.10304258   238.10695738
 H      6   1   2     2.076314736987   108.95376544    57.74248893
 H      1   2   3     2.077909280524   109.11517487   180.61468072
 H      1   2   3     2.075736680860   109.78034076   297.42534356
 H      7   6   1     2.071556311287   109.99124032   300.76221420
 H      7   6   1     2.068533824862   111.45487027   180.91413885
 H      7   6   1     2.070288236932   110.97285878    60.26915546

---------------------
BASIS SET INFORMATION
---------------------
There are 3 groups of distinct atoms

 Group   1 Type C   : 18s5p2d1f contracted to 4s3p2d1f pattern {8811/311/11/1}
 Group   2 Type S   : 41s16p2d1f contracted to 5s4p2d1f pattern {13131311/7711/11/1}
 Group   3 Type H   : 5s2p1d contracted to 3s2p1d pattern {311/11/1}

Atom   0C    basis set group =>   1
Atom   1C    basis set group =>   1
Atom   2C    basis set group =>   1
Atom   3C    basis set group =>   1
Atom   4S    basis set group =>   2
Atom   5C    basis set group =>   1
Atom   6C    basis set group =>   1
Atom   7H    basis set group =>   3
Atom   8H    basis set group =>   3
Atom   9H    basis set group =>   3
Atom  10H    basis set group =>   3
Atom  11H    basis set group =>   3
Atom  12H    basis set group =>   3
Atom  13H    basis set group =>   3
Atom  14H    basis set group =>   3
Atom  15H    basis set group =>   3
Atom  16H    basis set group =>   3
Atom  17H    basis set group =>   3
Atom  18H    basis set group =>   3
-------------------------------
AUXILIARY BASIS SET INFORMATION
-------------------------------
There are 3 groups of distinct atoms

 Group   1 Type C   : 8s6p5d3f1g contracted to 8s6p5d3f1g pattern {11111111/111111/11111/111/1}
 Group   2 Type S   : 10s8p7d5f2g contracted to 10s8p7d5f2g pattern {1111111111/11111111/1111111/11111/11}
 Group   3 Type H   : 4s3p2d1f contracted to 4s3p2d1f pattern {1111/111/11/1}

Atom   0C    basis set group =>   1
Atom   1C    basis set group =>   1
Atom   2C    basis set group =>   1
Atom   3C    basis set group =>   1
Atom   4S    basis set group =>   2
Atom   5C    basis set group =>   1
Atom   6C    basis set group =>   1
Atom   7H    basis set group =>   3
Atom   8H    basis set group =>   3
Atom   9H    basis set group =>   3
Atom  10H    basis set group =>   3
Atom  11H    basis set group =>   3
Atom  12H    basis set group =>   3
Atom  13H    basis set group =>   3
Atom  14H    basis set group =>   3
Atom  15H    basis set group =>   3
Atom  16H    basis set group =>   3
Atom  17H    basis set group =>   3
Atom  18H    basis set group =>   3
-------------------------------
AUXILIARY BASIS SET INFORMATION
-------------------------------
There are 3 groups of distinct atoms

 Group   1 Type C   : 10s7p5d2f1g contracted to 10s7p5d2f1g pattern {1111111111/1111111/11111/11/1}
 Group   2 Type S   : 13s11p9d3f1g contracted to 13s11p9d3f1g pattern {1111111111111/11111111111/111111111/111/1}
 Group   3 Type H   : 4s3p2d1f contracted to 4s3p2d1f pattern {1111/111/11/1}

Atom   0C    basis set group =>   1
Atom   1C    basis set group =>   1
Atom   2C    basis set group =>   1
Atom   3C    basis set group =>   1
Atom   4S    basis set group =>   2
Atom   5C    basis set group =>   1
Atom   6C    basis set group =>   1
Atom   7H    basis set group =>   3
Atom   8H    basis set group =>   3
Atom   9H    basis set group =>   3
Atom  10H    basis set group =>   3
Atom  11H    basis set group =>   3
Atom  12H    basis set group =>   3
Atom  13H    basis set group =>   3
Atom  14H    basis set group =>   3
Atom  15H    basis set group =>   3
Atom  16H    basis set group =>   3
Atom  17H    basis set group =>   3
Atom  18H    basis set group =>   3


           ************************************************************
           *        Program running with 8 parallel MPI-processes     *
           *              working on a common directory               *
           ************************************************************
------------------------------------------------------------------------------
                           ORCA GTO INTEGRAL CALCULATION
                           -- RI-GTO INTEGRALS CHOSEN --
------------------------------------------------------------------------------

                         BASIS SET STATISTICS AND STARTUP INFO

Gaussian basis set:
 # of primitive gaussian shells          ...  312
 # of primitive gaussian functions       ...  598
 # of contracted shells                  ...  144
 # of contracted basis functions         ...  382
 Highest angular momentum                ...    3
 Maximum contraction depth               ...   13
Auxiliary gaussian basis set:
 # of primitive gaussian shells          ...  307
 # of primitive gaussian functions       ...  955
 # of contracted shells                  ...  307
 # of contracted aux-basis functions     ...  955
 Highest angular momentum                ...    4
 Maximum contraction depth               ...    1
Ratio of auxiliary to basis functions    ...  2.50
Integral package used                  ... LIBINT
 One Electron integrals                  ... done
 Ordering auxiliary basis shells         ... done
 Integral threshhold             Thresh  ...  2.500e-11
 Primitive cut-off               TCut    ...  2.500e-12
 Pre-screening matrix                    ... done
 Shell pair data                         ... 
 Ordering of the shell pairs             ... done (   0.002 sec) 9880 of 10440 pairs
 Determination of significant pairs      ... done (   0.000 sec)
 Creation of shell pair data             ... done (   0.003 sec)
 Storage of shell pair data              ... done (   0.004 sec)
 Shell pair data done in (   0.009 sec)
 Computing two index integrals           ... done
 Cholesky decomposition of the V-matrix  ... done


Timings:
 Total evaluation time                   ...   1.059 sec (  0.018 min)
 One electron matrix time                ...   0.141 sec (  0.002 min) = 13.3%
 Schwartz matrix evaluation time         ...   0.642 sec (  0.011 min) = 60.7%
 Two index repulsion integral time       ...   0.123 sec (  0.002 min) = 11.6%
 Cholesky decomposition of V             ...   0.114 sec (  0.002 min) = 10.8%
 Three index repulsion integral time     ...   0.000 sec (  0.000 min) =  0.0%



           ************************************************************
           *        Program running with 8 parallel MPI-processes     *
           *              working on a common directory               *
           ************************************************************
-------------------------------------------------------------------------------
                                 ORCA SCF
-------------------------------------------------------------------------------

------------
SCF SETTINGS
------------
Hamiltonian:
 Ab initio Hamiltonian  Method          .... Hartree-Fock(GTOs)
 RI-approximation to the Coulomb term is turned on
   Number of auxiliary basis functions  .... 955
   RI-JK (J+K treated both via RI)      .... on


General Settings:
 Integral files         IntName         .... 2_methylthiane_eq
 Hartree-Fock type      HFTyp           .... RHF
 Total Charge           Charge          ....    0
 Multiplicity           Mult            ....    1
 Number of Electrons    NEL             ....   64
 Basis Dimension        Dim             ....  382
 Nuclear Repulsion      ENuc            ....    392.5472345641 Eh

Convergence Acceleration:
 DIIS                   CNVDIIS         .... off
 Newton-Raphson         CNVNR           .... off
 SOSCF                  CNVSOSCF        .... on
   Start iteration      SOSCFMaxIt      ....   150
   Startup grad/error   SOSCFStart      ....  0.003300
 Level Shifting         CNVShift        .... on
   Level shift para.    LevelShift      ....    0.2000
   Turn off err/grad.   ShiftErr        ....    0.1000
 Zerner damping         CNVZerner       .... off
 Static damping         CNVDamp         .... off
 Fernandez-Rico         CNVRico         .... off

SCF Procedure:
 Maximum # iterations   MaxIter         ....   300
 SCF integral mode      SCFMode         .... Direct
   Integral package                     .... LIBINT
 Reset frequency        DirectResetFreq ....    20
 Integral Threshold     Thresh          ....  2.500e-11 Eh
 Primitive CutOff       TCut            ....  2.500e-12 Eh

Convergence Tolerance:
 Convergence Check Mode ConvCheckMode   .... Total+1el-Energy
 Convergence forced     ConvForced      .... 1
 Energy Change          TolE            ....  1.000e-08 Eh
 1-El. energy change                    ....  1.000e-05 Eh
 Orbital Gradient       TolG            ....  1.000e-05
 Orbital Rotation angle TolX            ....  1.000e-05


Diagonalization of the overlap matrix:
Smallest eigenvalue                        ... 3.762e-04
Time for diagonalization                   ...    0.034 sec
Threshold for overlap eigenvalues          ... 1.000e-08
Number of eigenvalues below threshold      ... 0
Time for construction of square roots      ...    0.053 sec
Total time needed                          ...    0.087 sec

-------------------
DFT GRID GENERATION
-------------------

General Integration Accuracy     IntAcc      ...  4.340
Radial Grid Type                 RadialGrid  ... Gauss-Chebyshev
Angular Grid (max. acc.)         AngularGrid ... Lebedev-110
Angular grid pruning method      GridPruning ... 3 (G Style)
Weight generation scheme         WeightScheme... Becke
Basis function cutoff            BFCut       ...    1.0000e-11
Integration weight cutoff        WCut        ...    1.0000e-14
Grids for H and He will be reduced by one unit

# of grid points (after initial pruning)     ...  21270 (   0.0 sec)
# of grid points (after weights+screening)   ...  19433 (   0.0 sec)
nearest neighbour list constructed           ...    0.0 sec
Grid point re-assignment to atoms done       ...    0.0 sec
Grid point division into batches done        ...    0.0 sec
Reduced shell lists constructed in    0.2 sec

Total number of grid points                  ...    19433
Total number of batches                      ...      312
Average number of points per batch           ...       62
Average number of grid points per atom       ...     1023
Average number of shells per batch           ...   123.05 (85.45%)
Average number of basis functions per batch  ...   321.20 (84.08%)
Average number of large shells per batch     ...    98.20 (79.80%)
Average number of large basis fcns per batch ...   256.60 (79.89%)
Average number of aux-shells per batch       ...   123.05 (40.08%)
Average number of aux functions per batch    ...   321.20 (33.63%)
Maximum spatial batch extension              ...   3.21,  2.25,  2.92 au
Average spatial batch extension              ...   0.19,  0.19,  0.19 au

Time for grid setup =    0.258 sec

------------------------------
INITIAL GUESS: MODEL POTENTIAL
------------------------------
Loading Hartree-Fock densities                     ... done
Calculating cut-offs                               ... done
Setting up the integral package                    ... done
Initializing the effective Hamiltonian             ... done
Starting the Coulomb interaction                   ... done (   0.1 sec)
Reading the grid                                   ... done
Mapping shells                                     ... done
Starting the XC term evaluation                    ... done (   0.1 sec)
Transforming the Hamiltonian                       ... done (   0.0 sec)
Diagonalizing the Hamiltonian                      ... done (   0.0 sec)
Back transforming the eigenvectors                 ... done (   0.0 sec)
Now organizing SCF variables                       ... done
                      ------------------
                      INITIAL GUESS DONE (   0.6 sec)
                      ------------------
--------------
SCF ITERATIONS
--------------
ITER       Energy         Delta-E        Max-DP      RMS-DP      [F,P]   Gradient Norm
                             ****Turning on KDIIS(Cayley)****
  0   -631.4563312804   0.000000000000 0.01810250  0.00024418  0.0965868   0.137864776
  1   -631.5608772108  -0.104545930368 0.03258577  0.00030837  0.0879609   0.119833264
  2   -631.6494542509  -0.088577040115 0.05386504  0.00053643  0.0706794   0.097214849
  3   -631.7584256427  -0.108971391859 0.08186354  0.00087034  0.0426397   0.059852920
                      *** Initiating the SOSCF procedure ***
                           *** Shutting down KDIIS ***
                      *** Re-Reading the Fockian *** 
                      *** Removing any level shift *** 
ITER      Energy       Delta-E        Grad      Rot      Max-DP    RMS-DP
  4   -631.82934440  -0.0709187549  0.002028  0.002028  0.002341  0.000057
  5   -631.82967818  -0.0003337844  0.000604  0.000806  0.000976  0.000031
  6   -631.82970684  -0.0000286593  0.000345  0.000367  0.000515  0.000014
  7   -631.82971551  -0.0000086660  0.000054  0.000095  0.000175  0.000004
  8   -631.82971572  -0.0000002101  0.000021  0.000026  0.000072  0.000002
  9   -631.82971576  -0.0000000438  0.000007  0.000008  0.000025  0.000000
 10   -631.82971576  -0.0000000027  0.000003  0.000006  0.000012  0.000000
                 **** Energy Check signals convergence ****
              ***Rediagonalizing the Fockian in SOSCF/NRSCF***

               *****************************************************
               *                     SUCCESS                       *
               *           SCF CONVERGED AFTER  11 CYCLES          *
               *****************************************************


----------------
TOTAL SCF ENERGY
----------------

Total Energy       :         -631.82971576 Eh          -17192.96064 eV

Components:
Nuclear Repulsion  :          392.54723456 Eh           10681.75330 eV
Electronic Energy  :        -1024.37695033 Eh          -27874.71394 eV
One Electron Energy:        -1645.16568270 Eh          -44767.23415 eV
Two Electron Energy:          620.78873237 Eh           16892.52021 eV

Virial components:
Potential Energy   :        -1263.18060301 Eh          -34372.89169 eV
Kinetic Energy     :          631.35088725 Eh           17179.93105 eV
Virial Ratio       :            2.00075842


---------------
SCF CONVERGENCE
---------------

  Last Energy change         ...   -2.7808e-10  Tolerance :   1.0000e-08
  Last MAX-Density change    ...    3.2412e-06  Tolerance :   1.0000e-07
  Last RMS-Density change    ...    5.2465e-08  Tolerance :   5.0000e-09
  Last Orbital Gradient      ...    7.0475e-07  Tolerance :   1.0000e-05
  Last Orbital Rotation      ...    1.9686e-06  Tolerance :   1.0000e-05

             **** THE GBW FILE WAS UPDATED (2_methylthiane_eq.gbw) ****
             **** DENSITY FILE WAS UPDATED (2_methylthiane_eq.scfp.tmp) ****
             **** ENERGY FILE WAS UPDATED (2_methylthiane_eq.en.tmp) ****
----------------
ORBITAL ENERGIES
----------------

  NO   OCC          E(Eh)            E(eV) 
   0   2.0000     -91.931894     -2501.5940 
   1   2.0000     -11.259369      -306.3830 
   2   2.0000     -11.252504      -306.1962 
   3   2.0000     -11.227580      -305.5180 
   4   2.0000     -11.226372      -305.4851 
   5   2.0000     -11.225721      -305.4674 
   6   2.0000     -11.220722      -305.3314 
   7   2.0000      -8.933032      -243.0802 
   8   2.0000      -6.614177      -179.9809 
   9   2.0000      -6.613282      -179.9566 
  10   2.0000      -6.612407      -179.9328 
  11   2.0000      -1.118008       -30.4225 
  12   2.0000      -1.042636       -28.3716 
  13   2.0000      -1.003460       -27.3055 
  14   2.0000      -0.924168       -25.1479 
  15   2.0000      -0.837866       -22.7995 
  16   2.0000      -0.808757       -22.0074 
  17   2.0000      -0.749097       -20.3840 
  18   2.0000      -0.633698       -17.2438 
  19   2.0000      -0.618508       -16.8304 
  20   2.0000      -0.606976       -16.5167 
  21   2.0000      -0.590389       -16.0653 
  22   2.0000      -0.574059       -15.6209 
  23   2.0000      -0.534034       -14.5318 
  24   2.0000      -0.531376       -14.4595 
  25   2.0000      -0.500628       -13.6228 
  26   2.0000      -0.486333       -13.2338 
  27   2.0000      -0.479041       -13.0354 
  28   2.0000      -0.471058       -12.8181 
  29   2.0000      -0.430701       -11.7200 
  30   2.0000      -0.406467       -11.0605 
  31   2.0000      -0.329790        -8.9741 
  32   0.0000       0.138167         3.7597 
  33   0.0000       0.146861         3.9963 
  34   0.0000       0.158067         4.3012 
  35   0.0000       0.171942         4.6788 
  36   0.0000       0.179318         4.8795 
  37   0.0000       0.197547         5.3755 
  38   0.0000       0.208337         5.6691 
  39   0.0000       0.214576         5.8389 
  40   0.0000       0.220547         6.0014 
  41   0.0000       0.230831         6.2812 
  42   0.0000       0.234608         6.3840 
  43   0.0000       0.246122         6.6973 
  44   0.0000       0.256784         6.9874 
  45   0.0000       0.265732         7.2309 
  46   0.0000       0.290544         7.9061 
  47   0.0000       0.311066         8.4645 
  48   0.0000       0.348669         9.4878 
  49   0.0000       0.353361         9.6154 
  50   0.0000       0.379345        10.3225 
  51   0.0000       0.394788        10.7427 
  52   0.0000       0.401556        10.9269 
  53   0.0000       0.416308        11.3283 
  54   0.0000       0.420944        11.4545 
  55   0.0000       0.425079        11.5670 
  56   0.0000       0.446811        12.1583 
  57   0.0000       0.451784        12.2937 
  58   0.0000       0.463079        12.6010 
  59   0.0000       0.470472        12.8022 
  60   0.0000       0.487448        13.2641 
  61   0.0000       0.512298        13.9403 
  62   0.0000       0.529753        14.4153 
  63   0.0000       0.547303        14.8929 
  64   0.0000       0.574413        15.6306 
  65   0.0000       0.585340        15.9279 
  66   0.0000       0.590743        16.0749 
  67   0.0000       0.594192        16.1688 
  68   0.0000       0.598213        16.2782 
  69   0.0000       0.605384        16.4733 
  70   0.0000       0.617760        16.8101 
  71   0.0000       0.624113        16.9830 
  72   0.0000       0.631689        17.1891 
  73   0.0000       0.635450        17.2915 
  74   0.0000       0.648170        17.6376 
  75   0.0000       0.652420        17.7532 
  76   0.0000       0.659868        17.9559 
  77   0.0000       0.671982        18.2856 
  78   0.0000       0.673286        18.3210 
  79   0.0000       0.679999        18.5037 
  80   0.0000       0.689357        18.7584 
  81   0.0000       0.697269        18.9737 
  82   0.0000       0.712876        19.3984 
  83   0.0000       0.725785        19.7496 
  84   0.0000       0.739394        20.1199 
  85   0.0000       0.744628        20.2623 
  86   0.0000       0.809022        22.0146 
  87   0.0000       0.831836        22.6354 
  88   0.0000       0.851076        23.1590 
  89   0.0000       0.859715        23.3940 
  90   0.0000       0.903417        24.5832 
  91   0.0000       0.909874        24.7589 
  92   0.0000       0.936453        25.4822 
  93   0.0000       0.949791        25.8451 
  94   0.0000       0.958908        26.0932 
  95   0.0000       0.976321        26.5671 
  96   0.0000       0.991430        26.9782 
  97   0.0000       1.002502        27.2795 
  98   0.0000       1.021773        27.8039 
  99   0.0000       1.042161        28.3586 
 100   0.0000       1.064595        28.9691 
 101   0.0000       1.087853        29.6020 
 102   0.0000       1.101696        29.9787 
 103   0.0000       1.112305        30.2673 
 104   0.0000       1.129779        30.7429 
 105   0.0000       1.148905        31.2633 
 106   0.0000       1.170483        31.8505 
 107   0.0000       1.181110        32.1396 
 108   0.0000       1.206530        32.8313 
 109   0.0000       1.216093        33.0916 
 110   0.0000       1.228681        33.4341 
 111   0.0000       1.242136        33.8002 
 112   0.0000       1.251071        34.0434 
 113   0.0000       1.269210        34.5370 
 114   0.0000       1.271379        34.5960 
 115   0.0000       1.277540        34.7636 
 116   0.0000       1.293976        35.2109 
 117   0.0000       1.305113        35.5139 
 118   0.0000       1.322370        35.9835 
 119   0.0000       1.325395        36.0658 
 120   0.0000       1.336087        36.3568 
 121   0.0000       1.354129        36.8477 
 122   0.0000       1.362933        37.0873 
 123   0.0000       1.370286        37.2874 
 124   0.0000       1.374235        37.3948 
 125   0.0000       1.386406        37.7260 
 126   0.0000       1.400334        38.1050 
 127   0.0000       1.418131        38.5893 
 128   0.0000       1.428206        38.8635 
 129   0.0000       1.457504        39.6607 
 130   0.0000       1.459682        39.7200 
 131   0.0000       1.482394        40.3380 
 132   0.0000       1.486119        40.4394 
 133   0.0000       1.498776        40.7838 
 134   0.0000       1.502928        40.8967 
 135   0.0000       1.509261        41.0691 
 136   0.0000       1.539412        41.8895 
 137   0.0000       1.554538        42.3011 
 138   0.0000       1.560908        42.4745 
 139   0.0000       1.578815        42.9617 
 140   0.0000       1.585833        43.1527 
 141   0.0000       1.600055        43.5397 
 142   0.0000       1.621362        44.1195 
 143   0.0000       1.633596        44.4524 
 144   0.0000       1.636349        44.5273 
 145   0.0000       1.657804        45.1111 
 146   0.0000       1.668752        45.4090 
 147   0.0000       1.691291        46.0224 
 148   0.0000       1.701112        46.2896 
 149   0.0000       1.716128        46.6982 
 150   0.0000       1.756471        47.7960 
 151   0.0000       1.759880        47.8888 
 152   0.0000       1.781905        48.4881 
 153   0.0000       1.800670        48.9987 
 154   0.0000       1.821491        49.5653 
 155   0.0000       1.845255        50.2119 
 156   0.0000       1.846989        50.2591 
 157   0.0000       1.864333        50.7311 
 158   0.0000       1.899414        51.6857 
 159   0.0000       1.917418        52.1756 
 160   0.0000       1.963628        53.4330 
 161   0.0000       1.973510        53.7019 
 162   0.0000       2.008172        54.6451 
 163   0.0000       2.038840        55.4796 
 164   0.0000       2.068520        56.2873 
 165   0.0000       2.099468        57.1294 
 166   0.0000       2.156369        58.6778 
 167   0.0000       2.211048        60.1657 
 168   0.0000       2.228930        60.6523 
 169   0.0000       2.242923        61.0331 
 170   0.0000       2.246154        61.1209 
 171   0.0000       2.354775        64.0767 
 172   0.0000       2.408621        65.5419 
 173   0.0000       2.446321        66.5678 
 174   0.0000       2.466784        67.1246 
 175   0.0000       2.572869        70.0113 
 176   0.0000       2.600719        70.7692 
 177   0.0000       2.616709        71.2043 
 178   0.0000       2.622475        71.3612 
 179   0.0000       2.661167        72.4140 
 180   0.0000       2.690859        73.2220 
 181   0.0000       2.693313        73.2888 
 182   0.0000       2.712384        73.8077 
 183   0.0000       2.746392        74.7331 
 184   0.0000       2.775271        75.5190 
 185   0.0000       2.778640        75.6107 
 186   0.0000       2.802009        76.2465 
 187   0.0000       2.818059        76.6833 
 188   0.0000       2.830717        77.0277 
 189   0.0000       2.842906        77.3594 
 190   0.0000       2.881779        78.4172 
 191   0.0000       2.891123        78.6715 
 192   0.0000       2.903618        79.0115 
 193   0.0000       2.931735        79.7766 
 194   0.0000       2.943286        80.0909 
 195   0.0000       2.950520        80.2877 
 196   0.0000       2.962577        80.6158 
 197   0.0000       2.975585        80.9698 
 198   0.0000       2.998951        81.6056 
 199   0.0000       3.004814        81.7651 
 200   0.0000       3.027344        82.3782 
 201   0.0000       3.042527        82.7914 
 202   0.0000       3.055469        83.1435 
 203   0.0000       3.080230        83.8173 
 204   0.0000       3.085658        83.9650 
 205   0.0000       3.108652        84.5907 
 206   0.0000       3.125357        85.0453 
 207   0.0000       3.129621        85.1613 
 208   0.0000       3.140790        85.4652 
 209   0.0000       3.199512        87.0631 
 210   0.0000       3.201896        87.1280 
 211   0.0000       3.223966        87.7286 
 212   0.0000       3.234350        88.0111 
 213   0.0000       3.251131        88.4678 
 214   0.0000       3.275262        89.1244 
 215   0.0000       3.291232        89.5590 
 216   0.0000       3.296207        89.6944 
 217   0.0000       3.312438        90.1360 
 218   0.0000       3.333469        90.7083 
 219   0.0000       3.351518        91.1994 
 220   0.0000       3.356655        91.3392 
 221   0.0000       3.375960        91.8645 
 222   0.0000       3.398770        92.4852 
 223   0.0000       3.405472        92.6676 
 224   0.0000       3.418656        93.0263 
 225   0.0000       3.423732        93.1645 
 226   0.0000       3.435679        93.4896 
 227   0.0000       3.459390        94.1348 
 228   0.0000       3.471250        94.4575 
 229   0.0000       3.480533        94.7101 
 230   0.0000       3.484139        94.8082 
 231   0.0000       3.495085        95.1061 
 232   0.0000       3.501833        95.2897 
 233   0.0000       3.517960        95.7286 
 234   0.0000       3.524143        95.8968 
 235   0.0000       3.529497        96.0425 
 236   0.0000       3.539993        96.3281 
 237   0.0000       3.551891        96.6519 
 238   0.0000       3.573150        97.2303 
 239   0.0000       3.575638        97.2981 
 240   0.0000       3.600925        97.9862 
 241   0.0000       3.626283        98.6762 
 242   0.0000       3.640609        99.0660 
 243   0.0000       3.655970        99.4840 
 244   0.0000       3.675188       100.0070 
 245   0.0000       3.682721       100.2119 
 246   0.0000       3.702708       100.7558 
 247   0.0000       3.714874       101.0869 
 248   0.0000       3.735828       101.6570 
 249   0.0000       3.745684       101.9253 
 250   0.0000       3.761386       102.3525 
 251   0.0000       3.771896       102.6385 
 252   0.0000       3.788732       103.0966 
 253   0.0000       3.796809       103.3164 
 254   0.0000       3.825492       104.0969 
 255   0.0000       3.844309       104.6090 
 256   0.0000       3.855753       104.9204 
 257   0.0000       3.867732       105.2463 
 258   0.0000       3.892649       105.9244 
 259   0.0000       3.909916       106.3942 
 260   0.0000       3.920610       106.6852 
 261   0.0000       3.925721       106.8243 
 262   0.0000       3.940406       107.2239 
 263   0.0000       3.956117       107.6514 
 264   0.0000       3.971695       108.0753 
 265   0.0000       3.985911       108.4621 
 266   0.0000       4.010420       109.1291 
 267   0.0000       4.022200       109.4496 
 268   0.0000       4.041404       109.9722 
 269   0.0000       4.050504       110.2198 
 270   0.0000       4.070402       110.7613 
 271   0.0000       4.082859       111.1002 
 272   0.0000       4.093108       111.3791 
 273   0.0000       4.110096       111.8414 
 274   0.0000       4.125518       112.2611 
 275   0.0000       4.145884       112.8153 
 276   0.0000       4.160344       113.2087 
 277   0.0000       4.166591       113.3787 
 278   0.0000       4.195697       114.1707 
 279   0.0000       4.213947       114.6673 
 280   0.0000       4.218986       114.8044 
 281   0.0000       4.239008       115.3493 
 282   0.0000       4.241630       115.4206 
 283   0.0000       4.263416       116.0134 
 284   0.0000       4.286547       116.6429 
 285   0.0000       4.295036       116.8739 
 286   0.0000       4.304299       117.1259 
 287   0.0000       4.318722       117.5184 
 288   0.0000       4.321797       117.6021 
 289   0.0000       4.335054       117.9628 
 290   0.0000       4.339465       118.0829 
 291   0.0000       4.361842       118.6918 
 292   0.0000       4.374103       119.0254 
 293   0.0000       4.389555       119.4459 
 294   0.0000       4.405116       119.8693 
 295   0.0000       4.421965       120.3278 
 296   0.0000       4.425213       120.4162 
 297   0.0000       4.459841       121.3584 
 298   0.0000       4.468803       121.6023 
 299   0.0000       4.487780       122.1187 
 300   0.0000       4.491193       122.2116 
 301   0.0000       4.498098       122.3995 
 302   0.0000       4.509335       122.7052 
 303   0.0000       4.520292       123.0034 
 304   0.0000       4.538955       123.5112 
 305   0.0000       4.547264       123.7373 
 306   0.0000       4.563424       124.1771 
 307   0.0000       4.569568       124.3443 
 308   0.0000       4.572502       124.4241 
 309   0.0000       4.612139       125.5027 
 310   0.0000       4.629643       125.9790 
 311   0.0000       4.656636       126.7135 
 312   0.0000       4.701865       127.9443 
 313   0.0000       4.716265       128.3361 
 314   0.0000       4.721587       128.4809 
 315   0.0000       4.735354       128.8555 
 316   0.0000       4.763872       129.6316 
 317   0.0000       4.782827       130.1474 
 318   0.0000       4.802484       130.6822 
 319   0.0000       4.819830       131.1542 
 320   0.0000       4.848322       131.9295 
 321   0.0000       4.905057       133.4734 
 322   0.0000       4.960428       134.9801 
 323   0.0000       4.975882       135.4006 
 324   0.0000       4.996505       135.9618 
 325   0.0000       5.014432       136.4496 
 326   0.0000       5.036691       137.0553 
 327   0.0000       5.061247       137.7235 
 328   0.0000       5.080411       138.2450 
 329   0.0000       5.109948       139.0487 
 330   0.0000       5.147869       140.0806 
 331   0.0000       5.181080       140.9844 
 332   0.0000       5.192735       141.3015 
 333   0.0000       5.200751       141.5196 
 334   0.0000       5.232049       142.3713 
 335   0.0000       5.237214       142.5118 
 336   0.0000       5.246969       142.7773 
 337   0.0000       5.290262       143.9554 
 338   0.0000       5.298880       144.1898 
 339   0.0000       5.327488       144.9683 
 340   0.0000       5.341434       145.3478 
 341   0.0000       5.362565       145.9228 
 342   0.0000       5.365859       146.0124 
 343   0.0000       5.384737       146.5262 
 344   0.0000       5.416381       147.3872 
 345   0.0000       5.433366       147.8494 
 346   0.0000       5.480878       149.1423 
 347   0.0000       5.508973       149.9068 
 348   0.0000       5.550660       151.0411 
 349   0.0000       5.572873       151.6456 
 350   0.0000       5.580876       151.8633 
 351   0.0000       5.594014       152.2209 
 352   0.0000       5.607176       152.5790 
 353   0.0000       5.650987       153.7712 
 354   0.0000       5.690482       154.8459 
 355   0.0000       5.708277       155.3301 
 356   0.0000       5.724553       155.7730 
 357   0.0000       5.746334       156.3657 
 358   0.0000       5.760987       156.7644 
 359   0.0000       5.777697       157.2191 
 360   0.0000       5.805400       157.9730 
 361   0.0000       5.813125       158.1832 
 362   0.0000       5.841550       158.9567 
 363   0.0000       5.854917       159.3204 
 364   0.0000       5.873794       159.8341 
 365   0.0000       5.896723       160.4580 
 366   0.0000       5.950108       161.9107 
 367   0.0000       6.050769       164.6498 
 368   0.0000       6.103704       166.0902 
 369   0.0000       6.166406       167.7964 
 370   0.0000       6.288023       171.1058 
 371   0.0000       6.304245       171.5472 
 372   0.0000       6.343326       172.6107 
 373   0.0000       6.374557       173.4605 
 374   0.0000       6.437667       175.1778 
 375   0.0000       6.450628       175.5305 
 376   0.0000      11.609946       315.9227 
 377   0.0000      12.404845       337.5530 
 378   0.0000      13.009640       354.0103 
 379   0.0000      13.463530       366.3613 
 380   0.0000      13.577528       369.4633 
 381   0.0000      14.162094       385.3702 

                    ********************************
                    * MULLIKEN POPULATION ANALYSIS *
                    ********************************

-----------------------
MULLIKEN ATOMIC CHARGES
-----------------------
   0 C :   -0.167501
   1 C :   -0.210857
   2 C :   -0.172190
   3 C :   -0.181876
   4 S :   -0.167999
   5 C :   -0.063955
   6 C :   -0.301036
   7 H :    0.098121
   8 H :    0.108626
   9 H :    0.106197
  10 H :    0.121952
  11 H :    0.112008
  12 H :    0.090496
  13 H :    0.114569
  14 H :    0.105155
  15 H :    0.097333
  16 H :    0.096710
  17 H :    0.112579
  18 H :    0.101667
Sum of atomic charges:    0.0000000

--------------------------------
MULLIKEN REDUCED ORBITAL CHARGES
--------------------------------
  0 C s       :     3.202516  s :     3.202516
      pz      :     0.997445  p :     2.836863
      px      :     0.897765
      py      :     0.941654
      dz2     :     0.036813  d :     0.121251
      dxz     :     0.016486
      dyz     :     0.012173
      dx2y2   :     0.025971
      dxy     :     0.029807
      f0      :     0.001426  f :     0.006871
      f+1     :     0.000750
      f-1     :     0.000483
      f+2     :     0.000764
      f-2     :     0.000626
      f+3     :     0.001557
      f-3     :     0.001266
  1 C s       :     3.222855  s :     3.222855
      pz      :     0.999575  p :     2.865542
      px      :     0.899562
      py      :     0.966405
      dz2     :     0.033540  d :     0.115799
      dxz     :     0.015969
      dyz     :     0.014121
      dx2y2   :     0.024675
      dxy     :     0.027494
      f0      :     0.001452  f :     0.006660
      f+1     :     0.000698
      f-1     :     0.000479
      f+2     :     0.000694
      f-2     :     0.000549
      f+3     :     0.001569
      f-3     :     0.001220
  2 C s       :     3.205856  s :     3.205856
      pz      :     0.994217  p :     2.841766
      px      :     0.973107
      py      :     0.874442
      dz2     :     0.036936  d :     0.117852
      dxz     :     0.009303
      dyz     :     0.018630
      dx2y2   :     0.031685
      dxy     :     0.021299
      f0      :     0.001440  f :     0.006716
      f+1     :     0.000318
      f-1     :     0.000867
      f+2     :     0.000529
      f-2     :     0.000854
      f+3     :     0.001528
      f-3     :     0.001180
  3 C s       :     3.208830  s :     3.208830
      pz      :     0.997783  p :     2.846359
      px      :     0.869933
      py      :     0.978643
      dz2     :     0.037252  d :     0.120845
      dxz     :     0.018196
      dyz     :     0.014190
      dx2y2   :     0.026987
      dxy     :     0.024219
      f0      :     0.001349  f :     0.005842
      f+1     :     0.000532
      f-1     :     0.000554
      f+2     :     0.000852
      f-2     :     0.000420
      f+3     :     0.001168
      f-3     :     0.000967
  4 S s       :     5.825444  s :     5.825444
      pz      :     3.821485  p :    10.194732
      px      :     3.033702
      py      :     3.339545
      dz2     :     0.019071  d :     0.134352
      dxz     :     0.019256
      dyz     :     0.014714
      dx2y2   :     0.048365
      dxy     :     0.032946
      f0      :     0.001407  f :     0.013471
      f+1     :     0.001669
      f-1     :     0.001260
      f+2     :     0.002114
      f-2     :     0.001145
      f+3     :     0.003074
      f-3     :     0.002802
  5 C s       :     3.182838  s :     3.182838
      pz      :     1.003612  p :     2.722579
      px      :     0.884223
      py      :     0.834744
      dz2     :     0.046615  d :     0.150890
      dxz     :     0.019688
      dyz     :     0.021766
      dx2y2   :     0.032786
      dxy     :     0.030034
      f0      :     0.001348  f :     0.007648
      f+1     :     0.000858
      f-1     :     0.000775
      f+2     :     0.000892
      f-2     :     0.000825
      f+3     :     0.001448
      f-3     :     0.001501
  6 C s       :     3.272438  s :     3.272438
      pz      :     1.016595  p :     2.937347
      px      :     0.900107
      py      :     1.020645
      dz2     :     0.023817  d :     0.086282
      dxz     :     0.014634
      dyz     :     0.007659
      dx2y2   :     0.015078
      dxy     :     0.025094
      f0      :     0.001416  f :     0.004969
      f+1     :     0.000607
      f-1     :     0.000082
      f+2     :     0.000585
      f-2     :     0.000155
      f+3     :     0.001405
      f-3     :     0.000720
  7 H s       :     0.871860  s :     0.871860
      pz      :     0.011802  p :     0.027582
      px      :     0.007284
      py      :     0.008496
      dz2     :     0.000712  d :     0.002437
      dxz     :     0.000684
      dyz     :     0.000986
      dx2y2   :     0.000026
      dxy     :     0.000027
  8 H s       :     0.860589  s :     0.860589
      pz      :     0.006853  p :     0.028349
      px      :     0.012546
      py      :     0.008949
      dz2     :     0.000363  d :     0.002436
      dxz     :     0.000524
      dyz     :     0.000043
      dx2y2   :     0.000522
      dxy     :     0.000985
  9 H s       :     0.860988  s :     0.860988
      pz      :     0.013735  p :     0.030386
      px      :     0.008202
      py      :     0.008449
      dz2     :     0.000757  d :     0.002428
      dxz     :     0.000754
      dyz     :     0.000874
      dx2y2   :     0.000030
      dxy     :     0.000014
 10 H s       :     0.843158  s :     0.843158
      pz      :     0.007729  p :     0.032400
      px      :     0.011850
      py      :     0.012820
      dz2     :     0.000433  d :     0.002490
      dxz     :     0.000179
      dyz     :     0.000406
      dx2y2   :     0.000849
      dxy     :     0.000623
 11 H s       :     0.857189  s :     0.857189
      pz      :     0.006737  p :     0.028353
      px      :     0.009854
      py      :     0.011762
      dz2     :     0.000441  d :     0.002450
      dxz     :     0.000175
      dyz     :     0.000390
      dx2y2   :     0.000815
      dxy     :     0.000629
 12 H s       :     0.879439  s :     0.879439
      pz      :     0.010953  p :     0.027654
      px      :     0.008585
      py      :     0.008116
      dz2     :     0.000642  d :     0.002411
      dxz     :     0.000899
      dyz     :     0.000783
      dx2y2   :     0.000057
      dxy     :     0.000030
 13 H s       :     0.849234  s :     0.849234
      pz      :     0.014630  p :     0.033424
      px      :     0.009781
      py      :     0.009014
      dz2     :     0.000744  d :     0.002773
      dxz     :     0.001029
      dyz     :     0.000916
      dx2y2   :     0.000065
      dxy     :     0.000020
 14 H s       :     0.863998  s :     0.863998
      pz      :     0.006692  p :     0.028395
      px      :     0.009754
      py      :     0.011949
      dz2     :     0.000383  d :     0.002453
      dxz     :     0.000142
      dyz     :     0.000422
      dx2y2   :     0.000860
      dxy     :     0.000646
 15 H s       :     0.872474  s :     0.872474
      pz      :     0.011632  p :     0.027742
      px      :     0.008852
      py      :     0.007258
      dz2     :     0.000711  d :     0.002451
      dxz     :     0.000938
      dyz     :     0.000741
      dx2y2   :     0.000047
      dxy     :     0.000013
 16 H s       :     0.874770  s :     0.874770
      pz      :     0.007509  p :     0.026337
      px      :     0.010149
      py      :     0.008679
      dz2     :     0.000350  d :     0.002183
      dxz     :     0.000141
      dyz     :     0.000433
      dx2y2   :     0.000592
      dxy     :     0.000666
 17 H s       :     0.857888  s :     0.857888
      pz      :     0.007616  p :     0.027353
      px      :     0.010850
      py      :     0.008886
      dz2     :     0.000399  d :     0.002180
      dxz     :     0.000207
      dyz     :     0.000393
      dx2y2   :     0.000611
      dxy     :     0.000570
 18 H s       :     0.869932  s :     0.869932
      pz      :     0.010792  p :     0.026239
      px      :     0.008211
      py      :     0.007236
      dz2     :     0.000717  d :     0.002163
      dxz     :     0.000820
      dyz     :     0.000568
      dx2y2   :     0.000049
      dxy     :     0.000008


                     *******************************
                     * LOEWDIN POPULATION ANALYSIS *
                     *******************************

----------------------
LOEWDIN ATOMIC CHARGES
----------------------
   0 C :    0.039261
   1 C :    0.055001
   2 C :    0.034965
   3 C :   -0.096516
   4 S :    0.383510
   5 C :   -0.163875
   6 C :    0.091242
   7 H :   -0.024646
   8 H :   -0.024234
   9 H :   -0.042643
  10 H :   -0.036196
  11 H :   -0.023615
  12 H :   -0.026710
  13 H :   -0.040248
  14 H :   -0.022952
  15 H :   -0.023531
  16 H :   -0.026774
  17 H :   -0.025788
  18 H :   -0.026251

-------------------------------
LOEWDIN REDUCED ORBITAL CHARGES
-------------------------------
  0 C s       :     2.662624  s :     2.662624
      pz      :     0.964532  p :     2.827335
      px      :     0.919274
      py      :     0.943529
      dz2     :     0.118657  d :     0.430751
      dxz     :     0.060812
      dyz     :     0.044493
      dx2y2   :     0.098093
      dxy     :     0.108695
      f0      :     0.005721  f :     0.040029
      f+1     :     0.005115
      f-1     :     0.003451
      f+2     :     0.006051
      f-2     :     0.005625
      f+3     :     0.006597
      f-3     :     0.007470
  1 C s       :     2.660550  s :     2.660550
      pz      :     0.964372  p :     2.823132
      px      :     0.918356
      py      :     0.940404
      dz2     :     0.110844  d :     0.421902
      dxz     :     0.058340
      dyz     :     0.050901
      dx2y2   :     0.096561
      dxy     :     0.105256
      f0      :     0.005908  f :     0.039414
      f+1     :     0.004804
      f-1     :     0.003036
      f+2     :     0.005847
      f-2     :     0.005470
      f+3     :     0.006448
      f-3     :     0.007901
  2 C s       :     2.663559  s :     2.663559
      pz      :     0.965567  p :     2.831724
      px      :     0.950951
      py      :     0.915205
      dz2     :     0.120097  d :     0.429596
      dxz     :     0.033399
      dyz     :     0.070501
      dx2y2   :     0.119919
      dxy     :     0.085679
      f0      :     0.005636  f :     0.040157
      f+1     :     0.002523
      f-1     :     0.006151
      f+2     :     0.005303
      f-2     :     0.006551
      f+3     :     0.006547
      f-3     :     0.007448
  3 C s       :     2.707853  s :     2.707853
      pz      :     1.002264  p :     2.910024
      px      :     0.926937
      py      :     0.980822
      dz2     :     0.119391  d :     0.442240
      dxz     :     0.069798
      dyz     :     0.050201
      dx2y2   :     0.100533
      dxy     :     0.102317
      f0      :     0.005404  f :     0.036399
      f+1     :     0.004033
      f-1     :     0.003942
      f+2     :     0.006315
      f-2     :     0.004668
      f+3     :     0.005802
      f-3     :     0.006235
  4 S s       :     5.376766  s :     5.376766
      pz      :     3.688451  p :     9.954501
      px      :     2.988295
      py      :     3.277755
      dz2     :     0.039926  d :     0.248210
      dxz     :     0.036392
      dyz     :     0.027217
      dx2y2   :     0.078956
      dxy     :     0.065719
      f0      :     0.002769  f :     0.037013
      f+1     :     0.004118
      f-1     :     0.003529
      f+2     :     0.005670
      f-2     :     0.003309
      f+3     :     0.008315
      f-3     :     0.009304
  5 C s       :     2.708365  s :     2.708365
      pz      :     0.992577  p :     2.863471
      px      :     0.943391
      py      :     0.927502
      dz2     :     0.138151  d :     0.544618
      dxz     :     0.071250
      dyz     :     0.081472
      dx2y2   :     0.133061
      dxy     :     0.120683
      f0      :     0.005899  f :     0.047422
      f+1     :     0.005566
      f-1     :     0.005558
      f+2     :     0.006775
      f-2     :     0.006343
      f+3     :     0.006500
      f-3     :     0.010780
  6 C s       :     2.663769  s :     2.663769
      pz      :     0.982134  p :     2.894409
      px      :     0.926323
      py      :     0.985951
      dz2     :     0.087100  d :     0.321016
      dxz     :     0.054262
      dyz     :     0.028056
      dx2y2   :     0.061232
      dxy     :     0.090367
      f0      :     0.005371  f :     0.029565
      f+1     :     0.004222
      f-1     :     0.000670
      f+2     :     0.005053
      f-2     :     0.004318
      f+3     :     0.005854
      f-3     :     0.004077
  7 H s       :     0.844502  s :     0.844502
      pz      :     0.075855  p :     0.151895
      px      :     0.037570
      py      :     0.038470
      dz2     :     0.009627  d :     0.028249
      dxz     :     0.009158
      dyz     :     0.009178
      dx2y2   :     0.000145
      dxy     :     0.000141
  8 H s       :     0.843049  s :     0.843049
      pz      :     0.041524  p :     0.153234
      px      :     0.071762
      py      :     0.039948
      dz2     :     0.004151  d :     0.027951
      dxz     :     0.007910
      dyz     :     0.000520
      dx2y2   :     0.006669
      dxy     :     0.008700
  9 H s       :     0.855010  s :     0.855010
      pz      :     0.080531  p :     0.159196
      px      :     0.039811
      py      :     0.038854
      dz2     :     0.009967  d :     0.028436
      dxz     :     0.008618
      dyz     :     0.009591
      dx2y2   :     0.000197
      dxy     :     0.000064
 10 H s       :     0.848120  s :     0.848120
      pz      :     0.043462  p :     0.159454
      px      :     0.051088
      py      :     0.064904
      dz2     :     0.004620  d :     0.028622
      dxz     :     0.002699
      dyz     :     0.006094
      dx2y2   :     0.008152
      dxy     :     0.007058
 11 H s       :     0.842629  s :     0.842629
      pz      :     0.044289  p :     0.152862
      px      :     0.045976
      py      :     0.062597
      dz2     :     0.005237  d :     0.028123
      dxz     :     0.002406
      dyz     :     0.006079
      dx2y2   :     0.007600
      dxy     :     0.006801
 12 H s       :     0.846788  s :     0.846788
      pz      :     0.074294  p :     0.151865
      px      :     0.038771
      py      :     0.038800
      dz2     :     0.009268  d :     0.028057
      dxz     :     0.008990
      dyz     :     0.009365
      dx2y2   :     0.000302
      dxy     :     0.000132
 13 H s       :     0.849473  s :     0.849473
      pz      :     0.082662  p :     0.161686
      px      :     0.039645
      py      :     0.039379
      dz2     :     0.010461  d :     0.029088
      dxz     :     0.009339
      dyz     :     0.008883
      dx2y2   :     0.000351
      dxy     :     0.000054
 14 H s       :     0.842175  s :     0.842175
      pz      :     0.041901  p :     0.152695
      px      :     0.045644
      py      :     0.065150
      dz2     :     0.004316  d :     0.028081
      dxz     :     0.001944
      dyz     :     0.006456
      dx2y2   :     0.008204
      dxy     :     0.007162
 15 H s       :     0.843876  s :     0.843876
      pz      :     0.075980  p :     0.151324
      px      :     0.038052
      py      :     0.037293
      dz2     :     0.009629  d :     0.028332
      dxz     :     0.009100
      dyz     :     0.009234
      dx2y2   :     0.000318
      dxy     :     0.000050
 16 H s       :     0.847565  s :     0.847565
      pz      :     0.043215  p :     0.151531
      px      :     0.044674
      py      :     0.063642
      dz2     :     0.004259  d :     0.027677
      dxz     :     0.002021
      dyz     :     0.006524
      dx2y2   :     0.007631
      dxy     :     0.007242
 17 H s       :     0.846799  s :     0.846799
      pz      :     0.044982  p :     0.151280
      px      :     0.046769
      py      :     0.059530
      dz2     :     0.005104  d :     0.027709
      dxz     :     0.003047
      dyz     :     0.005554
      dx2y2   :     0.007608
      dxy     :     0.006395
 18 H s       :     0.847647  s :     0.847647
      pz      :     0.073526  p :     0.150836
      px      :     0.037426
      py      :     0.039884
      dz2     :     0.009074  d :     0.027768
      dxz     :     0.008946
      dyz     :     0.009346
      dx2y2   :     0.000334
      dxy     :     0.000068


                      *****************************
                      * MAYER POPULATION ANALYSIS *
                      *****************************

  NA   - Mulliken gross atomic population
  ZA   - Total nuclear charge
  QA   - Mulliken gross atomic charge
  VA   - Mayer's total valence
  BVA  - Mayer's bonded valence
  FA   - Mayer's free valence

  ATOM       NA         ZA         QA         VA         BVA        FA
  0 C      6.1675     6.0000    -0.1675     3.8250     3.8250     0.0000
  1 C      6.2109     6.0000    -0.2109     3.8913     3.8913     0.0000
  2 C      6.1722     6.0000    -0.1722     3.8316     3.8316     0.0000
  3 C      6.1819     6.0000    -0.1819     3.9032     3.9032    -0.0000
  4 S     16.1680    16.0000    -0.1680     2.0194     2.0194     0.0000
  5 C      6.0640     6.0000    -0.0640     3.8549     3.8549    -0.0000
  6 C      6.3010     6.0000    -0.3010     3.8860     3.8860     0.0000
  7 H      0.9019     1.0000     0.0981     0.9878     0.9878    -0.0000
  8 H      0.8914     1.0000     0.1086     0.9774     0.9774     0.0000
  9 H      0.8938     1.0000     0.1062     0.9791     0.9791    -0.0000
 10 H      0.8780     1.0000     0.1220     0.9834     0.9834     0.0000
 11 H      0.8880     1.0000     0.1120     0.9778     0.9778     0.0000
 12 H      0.9095     1.0000     0.0905     0.9846     0.9846    -0.0000
 13 H      0.8854     1.0000     0.1146     0.9828     0.9828    -0.0000
 14 H      0.8948     1.0000     0.1052     0.9812     0.9812    -0.0000
 15 H      0.9027     1.0000     0.0973     0.9894     0.9894     0.0000
 16 H      0.9033     1.0000     0.0967     0.9795     0.9795    -0.0000
 17 H      0.8874     1.0000     0.1126     0.9833     0.9833    -0.0000
 18 H      0.8983     1.0000     0.1017     0.9828     0.9828     0.0000

  Mayer bond orders larger than 0.1
B(  0-C ,  1-C ) :   0.9595 B(  0-C ,  5-C ) :   0.9344 B(  0-C , 14-H ) :   0.9853 
B(  0-C , 15-H ) :   0.9761 B(  1-C ,  2-C ) :   0.9496 B(  1-C , 11-H ) :   0.9926 
B(  1-C , 12-H ) :   0.9844 B(  2-C ,  3-C ) :   0.9403 B(  2-C ,  7-H ) :   0.9785 
B(  2-C ,  8-H ) :   0.9866 B(  3-C ,  4-S ) :   0.9915 B(  3-C ,  9-H ) :   0.9776 
B(  3-C , 10-H ) :   0.9845 B(  4-S ,  5-C ) :   0.9934 B(  5-C ,  6-C ) :   0.9572 
B(  5-C , 13-H ) :   0.9746 B(  6-C , 16-H ) :   0.9791 B(  6-C , 17-H ) :   0.9839 
B(  6-C , 18-H ) :   0.9779 

-------
TIMINGS
-------

Total SCF time: 0 days 0 hours 0 min 44 sec 

Total time                  ....      44.748 sec
Sum of individual times     ....      44.270 sec  ( 98.9%)

Fock matrix formation       ....      42.839 sec  ( 95.7%)
Diagonalization             ....       0.327 sec  (  0.7%)
Density matrix formation    ....       0.030 sec  (  0.1%)
Population analysis         ....       0.071 sec  (  0.2%)
Initial guess               ....       0.384 sec  (  0.9%)
Orbital Transformation      ....       0.000 sec  (  0.0%)
Orbital Orthonormalization  ....       0.000 sec  (  0.0%)
DIIS solution               ....       0.000 sec  (  0.0%)
SOSCF solution              ....       0.361 sec  (  0.8%)


           ************************************************************
           *        Program running with 8 parallel MPI-processes     *
           *              working on a common directory               *
           ************************************************************


------------------------------------------------------------------------------- 
                              ORCA-MATRIX DRIVEN CI                            
------------------------------------------------------------------------------- 


Wavefunction type
-----------------
Correlation treatment                      ...      CCSD     
Single excitations                         ... ON
Orbital optimization                       ... OFF
Calculation of Z vector                    ... OFF
Calculation of Brueckner orbitals          ... OFF
Perturbative triple excitations            ... ON
Calculation of F12 correction              ... OFF
Frozen core treatment                      ... chemical core (22 el)
Reference Wavefunction                     ... RHF
  Internal Orbitals:    11 ...   31 ( 21 MO's/ 42 electrons)
  Virtual  Orbitals:    32 ...  381 (350 MO's              )
Number of AO's                             ...    382
Number of electrons                        ...     64
Number of correlated electrons             ...     42

Algorithmic settings
--------------------
Integral transformation                    ... All integrals via the RI transformation
K(C) Formation                             ... RI-DLPNO
   PNO-Integral Storage                    ... ON DISK
   PNO occupation number cut-off           ... 1.000e-07
   Singles PNO occupation number cut-off   ... 3.000e-09
   PNO Mulliken prescreening cut-off       ... 1.000e-03
   Domain cut-off (Mulliken population)    ... 1.000e-03
   PNO Normalization                       ...    1
Maximum number of iterations               ...        50
Convergence tolerance (max. residuum)      ... 1.000e-05
Level shift for amplitude update           ... 2.000e-01
Maximum number of DIIS vectors             ...         7
DIIS turned on at iteration                ...         0
Damping before turning on DIIS             ...     0.500
Damping after turning on DIIS              ...     0.000
Pair specific amplitude update             ... OFF
Natural orbital iterations                 ... OFF
Perturbative natural orbital generation    ... OFF
Printlevel                                 ... 2

Singles Fock matrix elements calculated using PNOs.

Memory handling:
----------------
Maximum memory for working arrays          ...   8000 MB
Data storage in matrix containers          ... UNCOMPRESSED
Data type for integral storage             ... DOUBLE
In-Core Storage of quantities:
   Amplitudes+Sigma Vector      ... NO
   J+K operators                ... NO
   DIIS vectors                 ... NO
   3-external integrals         ... NO
   4-external integrals         ... NO

Localization treatment:
-----------------------
Localization option                        ...    6
Localization threshhold                    ... -1.0e+00
Using relative localization threshhold     ... 1.0e-08
Neglect threshold for strong pairs         ... 1.000e-05 Eh
Prescreening threshold for very weak pairs ... 1.000e-07 Eh

Initializing the integral package          ... done
Localizing the valence orbitals
------------------------------------------------------------------------------
                           ORCA ORBITAL LOCALIZATION
------------------------------------------------------------------------------

Input orbitals are from                  ... 2_methylthiane_eq.proc0.gbw
Output orbitals are to                   ... 2_methylthiane_eq.proc0.loc
Max. number of iterations                ... 128
Localizations seeded randomly            ... off
Convergence tolerance                    ... 1.000e-06
Using relative localization threshhold   ... 1.000e-08
Treshold for strong local MOs            ... 9.500e-01
Treshold for bond MOs                    ... 8.500e-01
Operator                                 ... 0
Orbital range for localization           ... 11 to 31
Localization criterion                   ... FOSTER-BOYS (AUGMENTED HESSIAN)
Doing the dipole integrals     ... o.k.
Initial value of the localization sum :   250.253956
ITERATION   0 : L=  315.9999495346 DL=  6.57e+01 (AVERGE_DL)=    0.5595320894 
ITERATION   1 : L=  322.2300437565 DL=  6.23e+00 (AVERGE_DL)=    0.1722414449 
ITERATION   2 : L=  322.3311299006 DL=  1.01e-01 (AVERGE_DL)=    0.0219399770 
ITERATION   3 : L=  322.3320659417 DL=  9.36e-04 (AVERGE_DL)=    0.0021112410 
ITERATION   4 : L=  322.3320804583 DL=  1.45e-05 (AVERGE_DL)=    0.0002629200 
ITERATION   5 : L=  322.3320806725 DL=  2.14e-07 (AVERGE_DL)=    0.0000319361 
LOCALIZATION SUM CONVERGED

------------------------------------------------------
AUGMENTED HESSIAN OPTIMIZATION OF FOSTER-BOYS ORBITALS
------------------------------------------------------

Spin operator:           0
Orbital window:          11 to 31
Number of iterations:    128
Gradient tolerance:      1.000e-06
Number of pairs:         210
Davidson threshold:      2000
Diagonalization method:  LAPACK
Iter:    0   L: 322.3320806725   Grad. norm: 1.036821e-03
   *** Likely close to a maximum now. ***
       Augmented Hessian eigenvalues:  1.23e-08 -8.05e+00 -1.54e+01 -1.70e+01 ... 
Iter:    1   L: 322.3320806787   Grad. norm: 2.407229e-09
LOCALIZATION HAS CONVERGED.

Eigenvalues of the Hessian:
  0 -8.055e+00
  1 -1.536e+01
  2 -1.700e+01
  3 -1.766e+01
  4 -1.786e+01
  5 -1.787e+01
  6 -1.796e+01
  7 -1.809e+01
  8 -1.821e+01
  9 -1.839e+01
    ...


------------------------------------------------------------------------------- 
                    LOCALIZED MOLECULAR ORBITAL COMPOSITIONS                   
------------------------------------------------------------------------------- 

The Mulliken populations for each LMO on each atom are computed
The LMO`s will be ordered according to atom index and type
  (A) Strongly localized MO`s have populations of >=0.950 on one atom
  (B) Two center bond orbitals have populations of >=0.850 on two atoms
  (C) Other MO`s are considered to be `delocalized`

FOUND  -   2 strongly local MO`s
       -  19 two center bond MO`s
       -   0 significantly delocalized MO`s

Rather strongly localized orbitals:
MO  12:   4S  -   1.002582
MO  11:   4S  -   1.002912
Bond-like localized orbitals:
MO  31:  18H  -   0.466827  and   6C  -   0.558636
MO  30:  17H  -   0.459670  and   6C  -   0.568959
MO  29:  16H  -   0.471663  and   6C  -   0.555053
MO  28:  15H  -   0.466624  and   0C  -   0.554725
MO  27:  14H  -   0.464781  and   0C  -   0.565545
MO  26:  13H  -   0.457644  and   5C  -   0.566276
MO  25:  12H  -   0.472867  and   1C  -   0.555192
MO  24:  11H  -   0.462157  and   1C  -   0.571000
MO  23:  10H  -   0.453032  and   3C  -   0.572165
MO  22:   9H  -   0.464149  and   3C  -   0.563388
MO  21:   8H  -   0.463873  and   2C  -   0.567613
MO  20:   7H  -   0.466501  and   2C  -   0.557584
MO  19:   6C  -   0.490548  and   5C  -   0.541965
MO  18:   5C  -   0.466482  and   4S  -   0.564610
MO  17:   5C  -   0.524185  and   0C  -   0.508055
MO  16:   4S  -   0.557738  and   3C  -   0.467973
MO  15:   3C  -   0.519923  and   2C  -   0.510673
MO  14:   2C  -   0.515368  and   1C  -   0.516135
MO  13:   1C  -   0.510414  and   0C  -   0.524360
Localized MO's were stored in: 2_methylthiane_eq.proc0.loc

Localizing the core orbitals
------------------------------------------------------------------------------
                           ORCA ORBITAL LOCALIZATION
------------------------------------------------------------------------------

Input orbitals are from                  ... 2_methylthiane_eq.proc0.loc
Output orbitals are to                   ... 2_methylthiane_eq.proc0.loc
Max. number of iterations                ... 128
Localizations seeded randomly            ... off
Convergence tolerance                    ... 1.000e-06
Using relative localization threshhold   ... 1.000e-08
Treshold for strong local MOs            ... 9.500e-01
Treshold for bond MOs                    ... 8.500e-01
Operator                                 ... 0
Orbital range for localization           ... 0 to 10
Localization criterion                   ... FOSTER-BOYS (AUGMENTED HESSIAN)
Doing the dipole integrals     ... o.k.
Initial value of the localization sum :   110.500307
ITERATION   0 : L=  110.6528992163 DL=  1.53e-01 (AVERGE_DL)=    0.0526725830 
ITERATION   1 : L=  110.7019381995 DL=  4.90e-02 (AVERGE_DL)=    0.0298599711 
ITERATION   2 : L=  110.7068216407 DL=  4.88e-03 (AVERGE_DL)=    0.0094228360 
ITERATION   3 : L=  110.7070033750 DL=  1.82e-04 (AVERGE_DL)=    0.0018177627 
ITERATION   4 : L=  110.7070220618 DL=  1.87e-05 (AVERGE_DL)=    0.0005828893 
ITERATION   5 : L=  110.7070233008 DL=  1.24e-06 (AVERGE_DL)=    0.0001500902 
ITERATION   6 : L=  110.7070233621 DL=  6.13e-08 (AVERGE_DL)=    0.0000333723 
LOCALIZATION SUM CONVERGED

------------------------------------------------------
AUGMENTED HESSIAN OPTIMIZATION OF FOSTER-BOYS ORBITALS
------------------------------------------------------

Spin operator:           0
Orbital window:          0 to 10
Number of iterations:    128
Gradient tolerance:      1.000e-06
Number of pairs:         55
Davidson threshold:      2000
Diagonalization method:  LAPACK
Iter:    0   L: 110.7070233621   Grad. norm: 2.404723e-04
Iter:    1   L: 110.7070241689   Grad. norm: 2.070908e-05
   *** Likely close to a maximum now. ***
       Augmented Hessian eigenvalues:  2.83e-09 -4.02e-05 -4.81e-05 -5.49e-05 ... 
Iter:    2   L: 110.7070241703   Grad. norm: 3.620116e-08
LOCALIZATION HAS CONVERGED.

Eigenvalues of the Hessian:
  0 -4.018e-05
  1 -4.799e-05
  2 -5.490e-05
  3 -1.373e-01
  4 -1.378e-01
  5 -1.383e-01
  6 -4.134e-01
  7 -5.496e-01
  8 -5.514e-01
  9 -5.527e-01
    ...


------------------------------------------------------------------------------- 
                    LOCALIZED MOLECULAR ORBITAL COMPOSITIONS                   
------------------------------------------------------------------------------- 

The Mulliken populations for each LMO on each atom are computed
The LMO`s will be ordered according to atom index and type
  (A) Strongly localized MO`s have populations of >=0.950 on one atom
  (B) Two center bond orbitals have populations of >=0.850 on two atoms
  (C) Other MO`s are considered to be `delocalized`

FOUND  -  11 strongly local MO`s
       -   0 two center bond MO`s
       -   0 significantly delocalized MO`s

Rather strongly localized orbitals:
MO  10:   6C  -   1.001177
MO   9:   5C  -   1.001174
MO   8:   4S  -   1.000211
MO   7:   4S  -   0.999998
MO   6:   4S  -   1.000150
MO   5:   4S  -   0.999071
MO   4:   4S  -   0.999359
MO   3:   3C  -   1.001225
MO   2:   2C  -   1.001463
MO   1:   1C  -   1.001576
MO   0:   0C  -   1.001502
Localized MO's were stored in: 2_methylthiane_eq.proc0.loc

Warning: internal orbitals are localized - no re-canonicalization of internal orbitals

--------------------------
CLOSED-SHELL FOCK OPERATOR
--------------------------

RI-JK section for the Fock operator:
  RHF full Fock operator         ... done
  RHF frozen core Fock operator  ... done
Time needed for Fock operator              ...            2.978 sec
Reference energy                           ...   -631.829715764

--------------
DLPNO SETTINGS (2015 fully linear scaling implementation)
--------------

TCutMKN:           1.000e-03
TCutPAO:           1.000e-03
TCutPNO:           1.000e-07
TCutPNOSingles:    3.000e-09
TCutEN:            9.700e-01
TCutPAOExt:        1.000e-01
TCutPairs:         1.000e-05
TCutPre:           1.000e-07
TCutOSV:           1.000e-06
TCutDOij:          1.000e-05
TCutDO:            5.000e-03
TCutC:             1.000e-04
TCutCPAO:          1.000e-03
TCutCMO:           1.000e-03
TScaleDOMP2PreScr: 2.000e+00
TScaleMKNMP2PreScr:1.000e+01
TScalePNOMP2PreScr:1.000e+00
PAO overlap thresh 1.000e-08
Using PNOs for Singles Fock computation
Use new domains
Use fully linear algorithm
TCutTNO:           1.000e-09
TCutMP2Pairs:      1.000e-06
TCutDOStrong:      2.000e-03
TCutMKNStrong:     1.000e-02
TCutMKNWeak:       1.000e-01
TCutDOWeak:        4.000e-03
NTCutTNO:          1

--------------------------
Calculating differential overlap integrals ... ok
--------------------------
ELECTRON PAIR PRESCREENING
--------------------------

Dipole-based pair screening          .... used

   TCutDOij = 1.000000e-05
   TCutPre  = 1.000000e-07
   .... Finished loop over pairs
Total time spent in the prescreening                  ...     0.000 sec
sum of pair energies estimated for screened out pairs ...       0.000000000000 Eh
Thresholds for map construction and integral transformation for crude MP2:
   TCutMKN                    ...     1.0e-02
   TCutDO                     ...     1.0e-02
   TCutPairs                  ...     1.0e-05
   TCutPNO_CrudeMP2           ...     1.0e-07
   TCutPNOSingles_CrudeMP2    ...     3.0e-09
--------------------------------
LOCAL RI TRANSFORMATION (IAVPAO)
--------------------------------

Orbital window:      11 to 31
Number of PAOs:     382
Basis functions:    382 (144 shells)
Aux. functions:     968 (290 shells)

Processing maps (0.0 sec)
Average map sizes:
   Aux shells -> MOs              21.0
   Aux shells -> PAOs            382.0
   MOs        -> AO shells       139.1
   PAOs       -> AO shells       144.0

Calculating integrals (1.0 sec, 59.256 MB)
Sorting integrals (0.1 sec, 59.245 MB)
Total time for the integral transformation: 1.1 sec
--------------------------------
[...]
   TCutMKN   ...     1.0e-01
   TCutDO    ...     2.0e-02
   TCutCMO   ...     1.0e-03
   TCutCPAO  ...     1.0e-03

--------------------------------
LOCAL RI TRANSFORMATION (IAVPAO)
--------------------------------

Orbital window:      11 to 31
Number of PAOs:     382
Basis functions:    382 (144 shells)
Aux. functions:     968 (290 shells)

Processing maps (0.0 sec)
Average map sizes:
   Aux shells -> MOs              21.0
   Aux shells -> PAOs            382.0
   MOs        -> AO shells       139.1
   PAOs       -> AO shells       144.0

Calculating integrals (1.0 sec, 59.256 MB)
Sorting integrals (0.1 sec, 59.245 MB)
Total time for the integral transformation: 1.1 sec
--------------------------------
INITIAL GUESS AND PNO GENERATION
--------------------------------

PNO truncation parameters                   .... 
    ScaleTCutPNO       =        1.000e-02
    PAOOverlapThresh   =        1.000e-08

    TCutPairs          =        1.000e-05
    TCutPNO            =        1.000e-07
    TCutPNOSingles     =        3.000e-09
    TCutMP2Pairs       =        1.000e-06
    TCutMKN            =        1.000e-03
    TCutDO             =        5.000e-03

Pair selection                          .... not used
Type of local MP2 treatment                 .... full local PMP2
Strategy for PNO selection                  .... occupation number selection
Pair density normalization                  .... MP2 norm
Spin component scaling                      .... not used

PASS-1: Formation of initial guess LMP2 amplitudes
Initial amplitudes guess done. Entering LMP2 iteration loop:
   Max. no of iterations          ...  50
   Energy convergence tolerance   ...    1.0e-07
   Residual convergence tolerance ...    5.0e-07
   Fock matrix cutoff             ...    1.0e-05 Eh
   DIIS convergence acceleration parameters:
        Max # vectors in DIIS     ... 7
        Start iteration of DIIS   ... 0
        Levelshift                ... 2.000e-01
        Damping factor 1          ... 5.000e-01
        Damping factor 2          ... 1.000e+00
   L-MP2 PNO cut-off              ...   1.0e-09
   L-MP2 PNO cut-off (core)       ...   1.0e-11
                           *** Turning on DIIS ***
LMP2-Iter=   0:  ELMP2= -1.203175644463  DE=   2.2e-02 RMAX=   5.4e-03
LMP2-Iter=   1:  ELMP2= -1.215005335635  DE=   1.2e-02 RMAX=   3.1e-03
LMP2-Iter=   2:  ELMP2= -1.216950810888  DE=   1.9e-03 RMAX=   5.1e-04
LMP2-Iter=   3:  ELMP2= -1.217138518951  DE=   1.9e-04 RMAX=   2.4e-04
LMP2-Iter=   4:  ELMP2= -1.217145423294  DE=   6.9e-06 RMAX=   2.6e-05
LMP2-Iter=   5:  ELMP2= -1.217143709216  DE=   1.7e-06 RMAX=   1.1e-05
LMP2-Iter=   6:  ELMP2= -1.217143475387  DE=   2.3e-07 RMAX=   8.5e-07
LMP2-Iter=   7:  ELMP2= -1.217143465993  DE=   9.4e-09 RMAX=   3.2e-07
LMP2-Iter=   8:  ELMP2= -1.217143469943  DE=   4.0e-09 RMAX=   3.8e-08 => CONVERGED
PASS-2: Formation of Pair natural orbitals
   .... Finished loop over pairs

 PNO Occupation Number Statistics: 
  | Av. % of trace(Dij) retained        ...  99.487569717774
  | sigma^2 in % of trace(Dij) retained ...   4.89e-01
  | Av. % of trace(Di) retained         ...  99.999723893401
  | sigma^2 in % of trace(Di) retained  ...   5.03e-09
 Distributions of % trace(Dij) recovered:
  |       >= 99.9  ...    65 ( 28.1 % of all pairs)
  |   [90.0, 99.0) ...    32 ( 13.9 % of all pairs)
  |   [99.0, 99.9) ...   134 ( 58.0 % of all pairs)
 Distributions of % trace(Di) recovered :
  |       >= 99.9  ...    21 (100.0 % of all I-pairs )

Making pair pair interaction lists          ... done

                       ===========================
                        231 OF  231 PAIRS ARE KEPT
                       ===========================

Total time spent in the initial guess                 ...    19.278 sec
L-MP2 correlation energy (all non-screened pairs)     ...      -1.217143469943 Eh
L-MP2 PNO error correction                            ...      -0.000029212700 Eh
                                                          --------------------
Initial total L-MP2 energy (non-screened pairs)       ...      -1.217172682644 Eh

Initial PNO correlation energy                        ...      -1.215933326526 Eh
sum of pair energies estimated for screened out pairs ...       0.000000000000 Eh
sum of MP2 pair energies for pairs that were not kept ...       0.000000000000 Eh
sum of PNO error estimates for the kept pairs         ...      -0.001239356118 Eh
                                                          --------------------
sum of all corrections                                         -0.001239356118
Initial total correlation energy                               -1.217172682644
Thresholds for map construction and integral transformation for fine MP2 and CCSD(T) calculation:
   TCutMKN   ...     1.0e-03
   TCutDO    ...     5.0e-03
   TCutPairs ...     1.0e-05
   TCutCMO   ...     1.0e-03
   TCutCPAO  ...     1.0e-03

Time for aux screen maps:            0.005
Time for maps after fine MP2:            0.019
-----------------------------
LOCAL RI TRANSFORMATION (IJV)
-----------------------------

Orbital window:      11 to 31
Basis functions:    382 (144 shells)
Aux. functions:     968 (290 shells)

Processing maps (0.0 sec)
Average map sizes:
   Aux shells -> MOs(i)           21.0
   Aux shells -> MOs(j)           21.0
   MOs        -> AO shells       139.1

Calculating integrals (1.0 sec, 3.268 MB)
Sorting integrals (0.0 sec, 3.257 MB)
Total time for the integral transformation: 1.0 sec
--------------------------------
LOCAL RI TRANSFORMATION (VABPAO)
--------------------------------

Number of PAOs:     382
Basis functions:    382 (144 shells)
Aux. functions:     968 (290 shells)

Processing maps (0.0 sec)
Average map sizes:
   Aux shells -> PAOs            382.0
   PAOs       -> AO shells       144.0

Calculating integrals (3.2 sec, 2027.362 MB)
Finished


-------------------------------------
Pair Pair Term precalculation with     
RI-(ij|mn) and (im|jn) transformation  
ON THE FLY                             
-------------------------------------

   IBatch   1 (of   2)              ... done (  103.765 sec)
   IBatch   2 (of   2)              ... done (   41.012 sec)
Total EXT                           ...         144.951 sec

---------------------
RI-PNO TRANSFORMATION
---------------------

Total Number of PNOs                   ...  9818
Average number of PNOs per pair        ...    42
Maximal number of PNOs per pair        ...    71
   #pairs with  1 -  5 PNOs   :    0
   #pairs with  6 - 10 PNOs   :    8
   #pairs with 11 - 15 PNOs   :   14
   #pairs with 16 - 20 PNOs   :   10
   #pairs with 21 - 25 PNOs   :    8
   #pairs with 26 - 30 PNOs   :   31
   #pairs with 31 - 35 PNOs   :   18
   #pairs with 36 - 40 PNOs   :   14
   #pairs with 41 - 45 PNOs   :    3
   #pairs with 46 - 50 PNOs   :   38
   #pairs with 51 - 55 PNOs   :   31
   #pairs with 56 - 60 PNOs   :    8
   #pairs with 61 - 65 PNOs   :   16
   #pairs with 66 - 70 PNOs   :   27
   #pairs with 71 - 75 PNOs   :    5

Generation of (ij|ab)[P] integrals            ... on
Generation of (ia|bc)[P],(ja|bc)[P] integrals ... on
Storage of 3 and 4 external integrals         ... on
Generation of ALL (ka|bc)[P] integrals        ... on
Keep RI integrals in memory                   ... off

Ibatch:  1 (of  1)
Starting 2-4 index PNO integral generation ... done

Timings:
Total PNO integral transformation time     ...         48.398 sec
Size of the 3-external file                ...       207 MB
Size of the 4-external file                ...      1518 MB
Size of the IKJL file                      ...         0 MB
Size of the all 3-external file            ...      2177 MB
Size of the 1-external file                ...         4 MB

Making pair/pair overlap matrices          ... done (    7.694 sec)
Size of the pair overlap file              ... 526 MB
Redoing the guess amplitudes               ... done (    2.903 sec)

-------------------------
FINAL STARTUP INFORMATION
-------------------------

E(0)                                       ...   -631.829715764
E(L-MP2)                                   ...     -1.217172683
E(L-MP2) including corrections             ...     -1.217172683
Initial E(tot)                             ...   -633.046888447
<T|T>                                      ...      0.369729262
Number of pairs included                   ... 231
Total number of pairs                      ... 231

------------------------------------------------
                  RHF COUPLED CLUSTER ITERATIONS
------------------------------------------------

Number of PNO amplitudes to be optimized   ...       489656
Number of non-PNO amplitudes               ...     28297500
Untruncated number of regular amplitudes   ...     28297500

Iter       E(tot)           E(Corr)          Delta-E          Residual     Time
  0   -633.010892668     -1.179937548      0.037235135      0.012820891   22.78
                           *** Turning on DIIS ***
  1   -633.075879249     -1.244924129     -0.064986581      0.006848438   21.43
  2   -633.109861777     -1.278906657     -0.033982527      0.002251006   18.96
  3   -633.115889862     -1.284934741     -0.006028085      0.001248616   12.28
  4   -633.117080133     -1.286125013     -0.001190271      0.000367746   12.29
  5   -633.117298644     -1.286343524     -0.000218511      0.000153319   12.22
  6   -633.117344455     -1.286389334     -0.000045810      0.000050266   12.15
  7   -633.117351139     -1.286396018     -0.000006684      0.000028339   12.09
  8   -633.117352197     -1.286397077     -0.000001058      0.000010596   12.00
  9   -633.117352005     -1.286396885      0.000000192      0.000003765   12.04
               --- The Coupled-Cluster iterations have converged ---

----------------------
COUPLED CLUSTER ENERGY
----------------------

E(0)                                       ...   -631.829715764
E(CORR)(strong-pairs)                      ...     -1.286396885
E(CORR)(weak-pairs)                        ...     -0.001239356
E(CORR)(corrected)                         ...     -1.287636241
E(TOT)                                     ...   -633.117352005
Singles Norm <S|S>**1/2                    ...      0.059237633  
T1 diagnostic                              ...      0.009140565  

------------------
LARGEST AMPLITUDES
------------------
  18-> 32  18-> 32       0.045312
  16-> 32  16-> 32       0.044202
  12-> 32  12-> 32       0.036110
  11-> 32  11-> 32       0.035140
  28-> 38  28-> 38       0.032912
  25-> 38  25-> 38       0.030672
  20-> 38  20-> 38       0.030362
  26-> 39  26-> 39       0.029876
  28-> 32  28-> 32       0.028467
  23-> 38  23-> 38       0.028374
  25-> 32  25-> 32       0.028365
  22-> 39  22-> 39       0.028319
  26-> 32  26-> 32       0.028241
  20-> 32  20-> 32       0.027852
  27-> 32  27-> 32       0.027828
  22-> 32  22-> 32       0.027633


-------------------------------------------
DLPNO BASED TRIPLES CORRECTION
-------------------------------------------

Singles multiplier          ...  1.000000
TCutTNO                     ... 1.000e-09
TCutMP2Pairs                ... 1.000e-06
TCutDOStrong                ... 1.000e-02
TCutMKNStrong               ... 1.000e-02
TCutDOWeak                  ... 2.000e-02
TCutMKNWeak                 ... 1.000e-01

Fragment selection                          .... not used
Number of Triples that are to be computed   ...      1750

 . . . . . . . . .
10% done  
20% done  
30% done  
40% done  
50% done  
60% done  
70% done  
80% done  
90% done               (    215.193 sec)
Triples timings:
Total time for T0               ...   230.939 sec
Total time for Iterative (T)    ...     0.000 sec
Total time of overall (T)       ...   235.176 sec

Triples List generation         ...     0.000 sec
TNO generation                  ...    15.733 sec
Pair density generation         ...     0.007 sec
Look up tables                  ...     0.000 sec
Generating 3-index integrals    ...   147.766 sec
  Make 4-ind.int. from 3-ind.int...    21.519 sec
  Projecting amplitudes (D + S) ...    18.404 sec
  Downprojecting integrals      ...     0.003 sec
  Energy contr. (sum over a,b,c)...     6.656 sec
Fitting ET(->0)                 ...     0.000 sec

Everything after 3-index        ...    67.427 sec

Timing details:
 TNO integrals                  ...   166.038 sec
   Reading 3-index integrals    ...     0.353 sec
   Sorting integrals            ...    18.648 sec
       Sorting integrals 1      ...     0.001 sec
       Sorting integrals 2      ...    10.182 sec
       Sorting integrals 3      ...     0.617 sec
       Sorting integrals 4      ...     0.035 sec
       Sorting integrals 5      ...     0.197 sec
       Sorting integrals 6      ...     7.616 sec
   Calculating local VM**-1/2   ...     0.552 sec
   Orthogonal. integrals        ...     0.936 sec
   Multipl. 3-index integrals   ...   145.549 sec
   All concerning IRIab (w/TNO) ...    11.850 sec

 Calculate W0/W1                ...    20.837 sec
 W 3-ext contribution           ...    11.680 sec
 W 3-int contribution           ...     3.010 sec
 Sorting W                      ...     5.860 sec

 V exchange contribution        ...     2.436 sec

 Timings for Triples without generation
     of 3-index integrals       ...    67.425 sec
       0 weak pairs             ...    67.425 sec
       1 weak pair              ...     0.000 sec
       2 weak pairs             ...     0.000 sec
       3 weak pairs             ...     0.000 sec
  Extra time for extrapolation  ...     0.000 sec

Number of Triples   (0, 1, 2, 3 weak pairs; overall):   1750       0       0       0  (  1750)
Number of Atoms     (0, 1, 2, 3 weak pairs; overall):   18.2     0.0     0.0     0.0  (    19)
Number of PAOs      (0, 1, 2, 3 weak pairs; overall):  369.2     0.0     0.0     0.0  (   382)
Number of AuxFcns   (0, 1, 2, 3 weak pairs; overall):  412.2     0.0     0.0     0.0  (   968)
Number of TNOs      (0, 1, 2, 3 weak pairs         ):  103.6     0.0     0.0     0.0
Aver. Number of NTNO, Atoms, PAOs, AuxFcns / Triples:   1750   103.6    18.2   369.2   412.2

Triples Correction (T)                     ...     -0.054280265
Final correlation energy                   ...     -1.341916506
E(CCSD)                                    ...   -633.117352005
E(CCSD(T))                                 ...   -633.171632270


Maximum memory used throughout the entire calculation: 7792.3 MB


------------------------------------------------------------------------------- 
                                     TIMINGS                                   
------------------------------------------------------------------------------- 


Total execution time                   ...      632.952 sec

Localization of occupied MO's          ...        0.720 sec (  0.1%)
Fock Matrix Formation                  ...        2.978 sec (  0.5%)
Global overlap, Fock, MKN matrices     ...        0.286 sec (  0.0%)
Differential overlap integrals         ...        0.143 sec (  0.0%)
Organizing maps                        ...        0.051 sec (  0.0%)
RI 3-index integral generations        ...        6.377 sec (  1.0%)
RI-PNO integral transformation         ...      210.996 sec ( 33.3%)
Initial Guess                          ...       22.017 sec (  3.5%)
DIIS Solver                            ...        1.824 sec (  0.3%)
State Vector Update                    ...        0.045 sec (  0.0%)
Sigma-vector construction              ...      147.911 sec ( 23.4%)
  <D|H|D>(0-ext)                       ...        3.193 sec (  2.2% of sigma)
  <D|H|D>(2-ext Fock)                  ...        0.014 sec (  0.0% of sigma)
  <D|H|D>(2-ext)                       ...       18.229 sec ( 12.3% of sigma)
  <D|H|D>(4-ext)                       ...       13.746 sec (  9.3% of sigma)
  <D|H|D>(4-ext-corr)                  ...       79.591 sec ( 53.8% of sigma)
  CCSD doubles correction              ...        0.214 sec (  0.1% of sigma)
  <S|H|S>                              ...        0.640 sec (  0.4% of sigma)
  <S|H|D>(1-ext)                       ...        0.390 sec (  0.3% of sigma)
  <D|H|S>(1-ext)                       ...        0.012 sec (  0.0% of sigma)
  <S|H|D>(3-ext)                       ...        0.471 sec (  0.3% of sigma)
  Fock-dressing                        ...       15.123 sec ( 10.2% of sigma)
  Singles amplitudes                   ...        0.555 sec (  0.4% of sigma)
  (ik|jl)-dressing                     ...        4.439 sec (  3.0% of sigma)
  (ij|ab),(ia|jb)-dressing             ...        2.749 sec (  1.9% of sigma)
  Pair energies                        ...        0.008 sec (  0.0% of sigma)
Total Time for computing (T)           ...      235.280 sec ( 37.2% of ALL)


-------------------------   --------------------
FINAL SINGLE POINT ENERGY      -633.171632270356
-------------------------   --------------------


                            ***************************************
                            *     ORCA property calculations      *
                            ***************************************

                                    ---------------------
                                    Active property flags
                                    ---------------------
   (+) Dipole Moment


------------------------------------------------------------------------------
                       ORCA ELECTRIC PROPERTIES CALCULATION
------------------------------------------------------------------------------

Dipole Moment Calculation                       ... on
Quadrupole Moment Calculation                   ... off
Polarizability Calculation                      ... off
GBWName                                         ... 2_methylthiane_eq.gbw
Electron density file                           ... 2_methylthiane_eq.scfp.tmp
The origin for moment calculation is the CENTER OF MASS  = (-0.011137, -0.102544 -0.015063)

-------------
DIPOLE MOMENT
-------------
                                X             Y             Z
Electronic contribution:     -0.39136      -5.91276      -0.69275
Nuclear contribution   :      0.71261       6.56291       0.96405
                        -----------------------------------------
Total Dipole Moment    :      0.32125       0.65015       0.27130
                        -----------------------------------------
Magnitude (a.u.)       :      0.77427
Magnitude (Debye)      :      1.96804



--------------------
Rotational spectrum 
--------------------
 
Rotational constants in cm-1:     0.102013     0.066945     0.043928 
Rotational constants in MHz :  3058.268281  2006.955567  1316.923376 

 Dipole components along the rotational axes: 
x,y,z [a.u.] :     0.345010     0.640796     0.264282 
x,y,z [Debye]:     0.876947     1.628774     0.671752 

 

Timings for individual modules:

Sum of individual times         ...      679.997 sec (=  11.333 min)
GTO integral calculation        ...        1.258 sec (=   0.021 min)   0.2 %
SCF iterations                  ...       44.915 sec (=   0.749 min)   6.6 %
MDCI module                     ...      633.824 sec (=  10.564 min)  93.2 %
                             ****ORCA TERMINATED NORMALLY****
TOTAL RUN TIME: 0 days 0 hours 11 minutes 21 seconds 360 msec
2_methylthiane_eq.gbw -> /home1/pantazis/klk/xyz_1/Sulphur_compounds/2_methylthiane_eq.gbw
2_methylthiane_eq.job -> /home1/pantazis/klk/xyz_1/Sulphur_compounds/2_methylthiane_eq.job
2_methylthiane_eq.loc -> /home1/pantazis/klk/xyz_1/Sulphur_compounds/2_methylthiane_eq.loc
2_methylthiane_eq.nodes -> /home1/pantazis/klk/xyz_1/Sulphur_compounds/2_methylthiane_eq.nodes
2_methylthiane_eq.prop -> /home1/pantazis/klk/xyz_1/Sulphur_compounds/2_methylthiane_eq.prop
2_methylthiane_eq_property.txt -> /home1/pantazis/klk/xyz_1/Sulphur_compounds/2_methylthiane_eq_property.txt
2_methylthiane_eq.xyz -> /home1/pantazis/klk/xyz_1/Sulphur_compounds/2_methylthiane_eq.xyz
cp: cannot stat 2_methylthiane_eq.asa.inp: No such file or directory
