! Job execution by suborca V 6.07 on ZEUS !
Job started from zeus1, running /scratch/pantazis/2_methylcyclohexanone_ax__5SL3YT/orca/orca copied from /opt/orca on zeussn119 in /scratch/pantazis/2_methylcyclohexanone_ax__5SL3YT
Job execution start: Thu Jun 27 13:26:50 CEST 2019
Shared library path: /scratch/pantazis/2_methylcyclohexanone_ax__5SL3YT/orca:/opt/openmpi_1.10.2/lib:/opt/intel/mkl/lib/intel64:/opt/intel/lib/intel64:
PBS Job ID is: 158113.icqc
izeussn119
izeussn119
izeussn119
izeussn119
izeussn119
izeussn119
izeussn119
izeussn119

                                 *****************
                                 * O   R   C   A *
                                 *****************

           --- An Ab Initio, DFT and Semiempirical electronic structure package ---

                  #######################################################
                  #                        -***-                        #
                  #          Department of theory and spectroscopy      #
                  #               Directorship: Frank Neese             #
                  #        Max Planck Institute fuer Kohlenforschung    #
                  #                Kaiser Wilhelm Platz 1               #
                  #                 D-45470 Muelheim/Ruhr               #
                  #                      Germany                        #
                  #                                                     #
                  #                  All rights reserved                #
                  #                        -***-                        #
                  #######################################################


                         Program Version 4.1.x  -  STABLE  -
                                (SVN: $Rev: 14094$)
                ($Date: 2019-06-14 15:01:15 +0200 (Fri, 14 Jun 2019) $)

                         (BUILD: $Sun Jun 23 06:18:31 CEST 2019$)


 With contributions from (in alphabetic order):
   Daniel Aravena         : Magnetic Properties
   Michael Atanasov       : Ab Initio Ligand Field Theory
   Alexander A. Auer      : GIAO ZORA
   Ute Becker             : Parallelization
   Giovanni Bistoni       : ED, Open-shell LED
   Martin Brehm           : Molecular dynamics
   Dmytro Bykov           : SCF Hessian
   Vijay G. Chilkuri      : MRCI spin determinant printing
   Dipayan Datta          : RHF DLPNO-CCSD density
   Achintya Kumar Dutta   : EOM-CC, STEOM-CC
   Dmitry Ganyushin       : Spin-Orbit,Spin-Spin,Magnetic field MRCI
   Miquel Garcia          : C-PCM Hessian
   Yang Guo               : DLPNO-NEVPT2, CIM, IAO-localization
   Andreas Hansen         : Spin unrestricted coupled pair/coupled cluster methods
   Benjamin Helmich-Paris : CASSCF linear response (MC-RPA)
   Lee Huntington         : MR-EOM, pCC
   Robert Izsak           : Overlap fitted RIJCOSX, COSX-SCS-MP3, EOM
   Christian Kollmar      : KDIIS, OOCD, Brueckner-CCSD(T), CCSD density
   Simone Kossmann        : Meta GGA functionals, TD-DFT gradient, OOMP2, MP2 Hessian
   Martin Krupicka        : AUTO-CI
   Lucas Lang             : DCDCAS
   Dagmar Lenk            : GEPOL surface, SMD
   Dimitrios Liakos       : Extrapolation schemes; parallel MDCI
   Dimitrios Manganas     : ROCIS; embedding schemes
   Dimitrios Pantazis     : SARC Basis sets
   Taras Petrenko         : DFT Hessian,TD-DFT gradient, ASA, ECA, R-Raman, ABS, FL, XAS/XES, NRVS
   Peter Pinski           : DLPNO-MP2, DLPNO-MP2 Gradient
   Christoph Reimann      : Effective Core Potentials
   Marius Retegan         : Local ZFS, SOC
   Christoph Riplinger    : Optimizer, TS searches, QM/MM, DLPNO-CCSD(T), (RO)-DLPNO pert. Triples
   Tobias Risthaus        : Range-separated hybrids, TD-DFT gradient, RPA, STAB
   Michael Roemelt        : Restricted open shell CIS
   Masaaki Saitow         : Open-shell DLPNO
   Barbara Sandhoefer     : DKH picture change effects
   Avijit Sen             : IP-ROCIS
   Kantharuban Sivalingam : CASSCF convergence, NEVPT2, FIC-MRCI
   Bernardo de Souza      : ESD, SOC TD-DFT
   Georgi Stoychev        : AutoAux, RI-MP2 NMR
   Willem Van den Heuvel  : Paramagnetic NMR
   Boris Wezisla          : Elementary symmetry handling
   Frank Wennmohs         : Technical directorship


 We gratefully acknowledge several colleagues who have allowed us to
 interface, adapt or use parts of their codes:
   Stefan Grimme, W. Hujo, H. Kruse,             : VdW corrections, initial TS optimization,
                  C. Bannwarth                     DFT functionals, gCP, sTDA/sTD-DF
   Ed Valeev                                     : LibInt (2-el integral package), F12 methods
   Garnet Chan, S. Sharma, J. Yang, R. Olivares  : DMRG
   Ulf Ekstrom                                   : XCFun DFT Library
   Mihaly Kallay                                 : mrcc  (arbitrary order and MRCC methods)
   Andreas Klamt, Michael Diedenhofen            : otool_cosmo (COSMO solvation model)
   Jiri Pittner, Ondrej Demel                    : Mk-CCSD
   Frank Weinhold                                : gennbo (NPA and NBO analysis)
   Christopher J. Cramer and Donald G. Truhlar   : smd solvation model
   Lars Goerigk                                  : TD-DFT with DH, B97 family of functionals
   V. Asgeirsson, H. Jonsson                     : NEB implementation
   FAccTs GmbH                                   : IRC, NEB, NEB-TS, Multilevel


 Your calculation uses the libint2 library for the computation of 2-el integrals
 For citations please refer to: http://libint.valeyev.net

 This ORCA versions uses:
   CBLAS   interface :  Fast vector & matrix operations
   LAPACKE interface :  Fast linear algebra routines
   SCALAPACK package :  Parallel linear algebra routines




***************************************
The coordinates will be read from file: 2_methylcyclohexanone_ax.xyz
***************************************


----- Orbital basis set information -----
Your calculation utilizes the basis: cc-pVTZ 
       H, B-Ne : Obtained from the ccRepo (grant-hill.group.shef.ac.uk/ccrepo) Feb. 2017
                 T. H. Dunning, Jr., J. Chem. Phys. 90, 1007 (1989)
            He : Obtained from the ccRepo (grant-hill.group.shef.ac.uk/ccrepo) Feb. 2017
                 D. E. Woon, T. H. Dunning, Jr., J. Chem. Phys. 100, 2975 (1994)
  Li-Be, Na-Mg : Obtained from the ccRepo (grant-hill.group.shef.ac.uk/ccrepo) Feb. 2017
                 B. P. Prascher, D. E. Woon, K. A. Peterson, T. H. Dunning, Jr., A. K. Wilson, Theor. Chem. Acc. 128, 69 (2011)
         Al-Ar : Obtained from the ccRepo (grant-hill.group.shef.ac.uk/ccrepo) Feb. 2017
                 D. E. Woon, T. H. Dunning, Jr., J. Chem. Phys. 98, 1358 (1993)
            Ca : Obtained from the Peterson Research Group Website (tyr0.chem.wsu.edu/~kipeters) Feb. 2017
                 J. Koput, K. A. Peterson, J. Phys. Chem. 106, 9595 (2002)
         Sc-Zn : Obtained from the ccRepo (grant-hill.group.shef.ac.uk/ccrepo) Feb. 2017
                 N. B. Balabanov, K. A. Peterson, J. Chem. Phys. 123, 064107 (2005)
                 N. B. Balabanov, K. A. Peterson, J. Chem. Phys. 125, 074110 (2006)
         Ga-Kr : Obtained from the ccRepo (grant-hill.group.shef.ac.uk/ccrepo) Feb. 2017
                 A. K. Wilson, D. E. Woon, K. A. Peterson, T. H. Dunning, Jr., J. Chem. Phys. 110, 7667 (1999)
             Y : Obtained from the ccRepo (grant-hill.group.shef.ac.uk/ccrepo) Feb. 2017
                 K. A. Peterson, D. Figgen, M. Dolg, H. Stoll, J. Chem. Phys. 126, 124101 (2007)
        Ag, Au : Obtained from the Peterson Research Group Website (tyr0.chem.wsu.edu/~kipeters) Feb. 2017
                 K. A. Peterson, C. Puzzarini, Theor. Chem. Acc. 114, 283 (2005)

----- AuxC basis set information -----
Your calculation utilizes the auxiliary basis: cc-pVTZ/C 
  Obtained from the EMSL Basis Set Exchange (bse.pnl.gov) Feb. 2017
  H-He, B-F, Al-Ar, Ga-Kr : F. Weigend, A. Kohn, C. Hattig, J. Chem. Phys. 116, 3175 (2002)
             Li-Be, Na-Mg : C. Haettig, Phys. Chem. Chem. Phys. 7, 59 (2005)
                       Ne : C. Haettig, Phys. Chem. Chem. Phys. 7, 59 (2005)
                            F. Weigend, A. Kohn, C. Hattig, J. Chem. Phys. 116, 3175 (2002)
                    Sc-Zn : J. G. Hill, J. A. Platts, J. Chem. Phys. 128, 044104 (2008)

----- AuxJK basis set information -----
Your calculation utilizes the auxiliary basis: cc-pVTZ/JK 
  H, B-F, Al-Cl, Ga-Br : Obtained from the TURBOMOLE 7.0 basis set library

================================================================================
                                        WARNINGS
                       Please study these warnings very carefully!
================================================================================


WARNING: MDCI localization with Augmented Hessian Foster-Boys
  ===> : Switching off randomization!

WARNING: Post HF methods need fully converged wavefunctions
  ===> : Setting SCFConvForced true
         You can overwrite this default with %scf ConvForced false 


INFO   : the flag for use of LIBINT has been found!

================================================================================
                                       INPUT FILE
================================================================================
NAME = 2_methylcyclohexanone_ax.inp
|  1> ! RHF DLPNO-CCSD(T) cc-pVTZ RIJK cc-pVTZ/JK cc-pVTZ/C
|  2> ! KDIIS SOSCF TightSCF TightPNO
|  3> 
|  4> %pal nprocs 8 end
|  5> 
|  6> %maxcore 8000
|  7> 
|  8> %scf maxiter 300
|  9>      shift shift 0.2 erroff 0.1 end
| 10> end
| 11> 
| 12> * xyzfile 0 1 2_methylcyclohexanone_ax.xyz 
| 13> 
| 14> 
| 15>                          ****END OF INPUT****
================================================================================

                       ****************************
                       * Single Point Calculation *
                       ****************************

---------------------------------
CARTESIAN COORDINATES (ANGSTROEM)
---------------------------------
  C      0.749700    0.786180   -0.379940
  C      0.867250   -0.721400   -0.146170
  C     -0.259130   -1.383200    0.636000
  C     -1.651250   -0.963740    0.119480
  C     -1.783730    0.563460    0.039620
  C     -0.678810    1.166470   -0.841630
  O      1.826030   -1.356900   -0.554840
  C      1.190520    1.551470    0.887930
  H     -0.112110   -2.466020    0.598240
  H     -0.159110   -1.073500    1.687000
  H     -2.426490   -1.387910    0.768010
  H     -1.808730   -1.394880   -0.878770
  H     -1.739510    0.990430    1.050650
  H     -2.765940    0.834340   -0.365660
  H     -0.765630    2.259870   -0.875380
  H     -0.820120    0.812270   -1.871990
  H      1.462980    1.022820   -1.177000
  H      2.209320    1.273390    1.175700
  H      1.176460    2.629630    0.694100
  H      0.533390    1.359240    1.742130

----------------------------
CARTESIAN COORDINATES (A.U.)
----------------------------
  NO LB      ZA    FRAG     MASS         X           Y           Z
   0 C     6.0000    0    12.011    1.416728    1.485665   -0.717983
   1 C     6.0000    0    12.011    1.638865   -1.363248   -0.276221
   2 C     6.0000    0    12.011   -0.489685   -2.613869    1.201866
   3 C     6.0000    0    12.011   -3.120410   -1.821205    0.225784
   4 C     6.0000    0    12.011   -3.370761    1.064785    0.074871
   5 C     6.0000    0    12.011   -1.282765    2.204309   -1.590450
   6 O     8.0000    0    15.999    3.450697   -2.564169   -1.048496
   7 C     6.0000    0    12.011    2.249757    2.931853    1.677945
   8 H     1.0000    0     1.008   -0.211857   -4.660102    1.130510
   9 H     1.0000    0     1.008   -0.300674   -2.028621    3.187968
  10 H     1.0000    0     1.008   -4.585402   -2.622770    1.451329
  11 H     1.0000    0     1.008   -3.418004   -2.635941   -1.660635
  12 H     1.0000    0     1.008   -3.287198    1.871641    1.985441
  13 H     1.0000    0     1.008   -5.226869    1.576674   -0.690997
  14 H     1.0000    0     1.008   -1.446831    4.270535   -1.654228
  15 H     1.0000    0     1.008   -1.549802    1.534968   -3.537548
  16 H     1.0000    0     1.008    2.764632    1.932850   -2.224208
  17 H     1.0000    0     1.008    4.175010    2.406358    2.221751
  18 H     1.0000    0     1.008    2.223187    4.969281    1.311659
  19 H     1.0000    0     1.008    1.007961    2.568591    3.292149

--------------------------------
INTERNAL COORDINATES (ANGSTROEM)
--------------------------------
 C      0   0   0     0.000000000000     0.00000000     0.00000000
 C      1   0   0     1.530118907732     0.00000000     0.00000000
 C      2   1   0     1.522662488308   116.73607710     0.00000000
 C      3   2   1     1.542963932307   112.16699689    47.56723052
 C      4   3   2     1.535014140000   111.45395999   308.22403295
 C      5   4   3     1.536577635201   110.99069920    56.37975990
 O      2   1   3     1.220709018276   121.47476317   180.81257079
 C      1   2   3     1.545148987444   109.92013545    79.81510220
 H      3   2   1     1.093407449398   108.25332297   171.98883808
 H      3   2   1     1.100235924882   107.52409517   287.76698298
 H      4   3   2     1.096133389419   109.56327850   185.25728348
 H      4   3   2     1.098719578646   109.07402410    69.01576899
 H      5   4   3     1.098380831133   109.59596050   294.34537761
 H      5   4   3     1.096523751179   110.01795030   177.83871493
 H      6   5   4     1.097360622084   110.59549480   181.31265056
 H      6   5   4     1.098666412384   108.59354172    64.92149429
 H      1   2   3     1.095477745826   105.90081282   195.90319302
 H      8   1   2     1.094574574572   110.82047414    56.65176103
 H      8   1   2     1.095534909576   109.79109001   175.83433461
 H      8   1   2     1.094728208187   112.46007316   295.66227121

---------------------------
INTERNAL COORDINATES (A.U.)
---------------------------
 C      0   0   0     0.000000000000     0.00000000     0.00000000
 C      1   0   0     2.891505687949     0.00000000     0.00000000
 C      2   1   0     2.877415097297   116.73607710     0.00000000
 C      3   2   1     2.915779266578   112.16699689    47.56723052
 C      4   3   2     2.900756336297   111.45395999   308.22403295
 C      5   4   3     2.903710914038   110.99069920    56.37975990
 O      2   1   3     2.306805733749   121.47476317   180.81257079
 C      1   2   3     2.919908422375   109.92013545    79.81510220
 H      3   2   1     2.066240632152   108.25332297   171.98883808
 H      3   2   1     2.079144580728   107.52409517   287.76698298
 H      4   3   2     2.071391912249   109.56327850   185.25728348
 H      4   3   2     2.076279101618   109.07402410    69.01576899
 H      5   4   3     2.075638961590   109.59596050   294.34537761
 H      5   4   3     2.072129589069   110.01795030   177.83871493
 H      6   5   4     2.073711045888   110.59549480   181.31265056
 H      6   5   4     2.076178631943   108.59354172    64.92149429
 H      1   2   3     2.070152925417   105.90081282   195.90319302
 H      8   1   2     2.068446179095   110.82047414    56.65176103
 H      8   1   2     2.070260949249   109.79109001   175.83433461
 H      8   1   2     2.068736504551   112.46007316   295.66227121

---------------------
BASIS SET INFORMATION
---------------------
There are 3 groups of distinct atoms

 Group   1 Type C   : 18s5p2d1f contracted to 4s3p2d1f pattern {8811/311/11/1}
 Group   2 Type O   : 18s5p2d1f contracted to 4s3p2d1f pattern {8811/311/11/1}
 Group   3 Type H   : 5s2p1d contracted to 3s2p1d pattern {311/11/1}

Atom   0C    basis set group =>   1
Atom   1C    basis set group =>   1
Atom   2C    basis set group =>   1
Atom   3C    basis set group =>   1
Atom   4C    basis set group =>   1
Atom   5C    basis set group =>   1
Atom   6O    basis set group =>   2
Atom   7C    basis set group =>   1
Atom   8H    basis set group =>   3
Atom   9H    basis set group =>   3
Atom  10H    basis set group =>   3
Atom  11H    basis set group =>   3
Atom  12H    basis set group =>   3
Atom  13H    basis set group =>   3
Atom  14H    basis set group =>   3
Atom  15H    basis set group =>   3
Atom  16H    basis set group =>   3
Atom  17H    basis set group =>   3
Atom  18H    basis set group =>   3
Atom  19H    basis set group =>   3
-------------------------------
AUXILIARY BASIS SET INFORMATION
-------------------------------
There are 3 groups of distinct atoms

 Group   1 Type C   : 8s6p5d3f1g contracted to 8s6p5d3f1g pattern {11111111/111111/11111/111/1}
 Group   2 Type O   : 8s6p5d3f1g contracted to 8s6p5d3f1g pattern {11111111/111111/11111/111/1}
 Group   3 Type H   : 4s3p2d1f contracted to 4s3p2d1f pattern {1111/111/11/1}

Atom   0C    basis set group =>   1
Atom   1C    basis set group =>   1
Atom   2C    basis set group =>   1
Atom   3C    basis set group =>   1
Atom   4C    basis set group =>   1
Atom   5C    basis set group =>   1
Atom   6O    basis set group =>   2
Atom   7C    basis set group =>   1
Atom   8H    basis set group =>   3
Atom   9H    basis set group =>   3
Atom  10H    basis set group =>   3
Atom  11H    basis set group =>   3
Atom  12H    basis set group =>   3
Atom  13H    basis set group =>   3
Atom  14H    basis set group =>   3
Atom  15H    basis set group =>   3
Atom  16H    basis set group =>   3
Atom  17H    basis set group =>   3
Atom  18H    basis set group =>   3
Atom  19H    basis set group =>   3
-------------------------------
AUXILIARY BASIS SET INFORMATION
-------------------------------
There are 3 groups of distinct atoms

 Group   1 Type C   : 10s7p5d2f1g contracted to 10s7p5d2f1g pattern {1111111111/1111111/11111/11/1}
 Group   2 Type O   : 10s7p5d2f1g contracted to 10s7p5d2f1g pattern {1111111111/1111111/11111/11/1}
 Group   3 Type H   : 4s3p2d1f contracted to 4s3p2d1f pattern {1111/111/11/1}

Atom   0C    basis set group =>   1
Atom   1C    basis set group =>   1
Atom   2C    basis set group =>   1
Atom   3C    basis set group =>   1
Atom   4C    basis set group =>   1
Atom   5C    basis set group =>   1
Atom   6O    basis set group =>   2
Atom   7C    basis set group =>   1
Atom   8H    basis set group =>   3
Atom   9H    basis set group =>   3
Atom  10H    basis set group =>   3
Atom  11H    basis set group =>   3
Atom  12H    basis set group =>   3
Atom  13H    basis set group =>   3
Atom  14H    basis set group =>   3
Atom  15H    basis set group =>   3
Atom  16H    basis set group =>   3
Atom  17H    basis set group =>   3
Atom  18H    basis set group =>   3
Atom  19H    basis set group =>   3


           ************************************************************
           *        Program running with 8 parallel MPI-processes     *
           *              working on a common directory               *
           ************************************************************
------------------------------------------------------------------------------
                           ORCA GTO INTEGRAL CALCULATION
                           -- RI-GTO INTEGRALS CHOSEN --
------------------------------------------------------------------------------

                         BASIS SET STATISTICS AND STARTUP INFO

Gaussian basis set:
 # of primitive gaussian shells          ...  304
 # of primitive gaussian functions       ...  592
 # of contracted shells                  ...  152
 # of contracted basis functions         ...  408
 Highest angular momentum                ...    3
 Maximum contraction depth               ...    8
Auxiliary gaussian basis set:
 # of primitive gaussian shells          ...  320
 # of primitive gaussian functions       ...  992
 # of contracted shells                  ...  320
 # of contracted aux-basis functions     ...  992
 Highest angular momentum                ...    4
 Maximum contraction depth               ...    1
Ratio of auxiliary to basis functions    ...  2.43
Integral package used                  ... LIBINT
 One Electron integrals                  ... done
 Ordering auxiliary basis shells         ... done
 Integral threshhold             Thresh  ...  2.500e-11
 Primitive cut-off               TCut    ...  2.500e-12
 Pre-screening matrix                    ... done
 Shell pair data                         ... 
 Ordering of the shell pairs             ... done (   0.002 sec) 11106 of 11628 pairs
 Determination of significant pairs      ... done (   0.000 sec)
 Creation of shell pair data             ... done (   0.003 sec)
 Storage of shell pair data              ... done (   0.004 sec)
 Shell pair data done in (   0.008 sec)
 Computing two index integrals           ... done
 Cholesky decomposition of the V-matrix  ... done


Timings:
 Total evaluation time                   ...   0.648 sec (  0.011 min)
 One electron matrix time                ...   0.174 sec (  0.003 min) = 26.9%
 Schwartz matrix evaluation time         ...   0.285 sec (  0.005 min) = 44.0%
 Two index repulsion integral time       ...   0.084 sec (  0.001 min) = 13.0%
 Cholesky decomposition of V             ...   0.070 sec (  0.001 min) = 10.8%
 Three index repulsion integral time     ...   0.000 sec (  0.000 min) =  0.0%



           ************************************************************
           *        Program running with 8 parallel MPI-processes     *
           *              working on a common directory               *
           ************************************************************
-------------------------------------------------------------------------------
                                 ORCA SCF
-------------------------------------------------------------------------------

------------
SCF SETTINGS
------------
Hamiltonian:
 Ab initio Hamiltonian  Method          .... Hartree-Fock(GTOs)
 RI-approximation to the Coulomb term is turned on
   Number of auxiliary basis functions  .... 992
   RI-JK (J+K treated both via RI)      .... on


General Settings:
 Integral files         IntName         .... 2_methylcyclohexanone_ax
 Hartree-Fock type      HFTyp           .... RHF
 Total Charge           Charge          ....    0
 Multiplicity           Mult            ....    1
 Number of Electrons    NEL             ....   62
 Basis Dimension        Dim             ....  408
 Nuclear Repulsion      ENuc            ....    391.4690703118 Eh

Convergence Acceleration:
 DIIS                   CNVDIIS         .... off
 Newton-Raphson         CNVNR           .... off
 SOSCF                  CNVSOSCF        .... on
   Start iteration      SOSCFMaxIt      ....   150
   Startup grad/error   SOSCFStart      ....  0.003300
 Level Shifting         CNVShift        .... on
   Level shift para.    LevelShift      ....    0.2000
   Turn off err/grad.   ShiftErr        ....    0.1000
 Zerner damping         CNVZerner       .... off
 Static damping         CNVDamp         .... off
 Fernandez-Rico         CNVRico         .... off

SCF Procedure:
 Maximum # iterations   MaxIter         ....   300
 SCF integral mode      SCFMode         .... Direct
   Integral package                     .... LIBINT
 Reset frequency        DirectResetFreq ....    20
 Integral Threshold     Thresh          ....  2.500e-11 Eh
 Primitive CutOff       TCut            ....  2.500e-12 Eh

Convergence Tolerance:
 Convergence Check Mode ConvCheckMode   .... Total+1el-Energy
 Convergence forced     ConvForced      .... 1
 Energy Change          TolE            ....  1.000e-08 Eh
 1-El. energy change                    ....  1.000e-05 Eh
 Orbital Gradient       TolG            ....  1.000e-05
 Orbital Rotation angle TolX            ....  1.000e-05


Diagonalization of the overlap matrix:
Smallest eigenvalue                        ... 2.938e-04
Time for diagonalization                   ...    0.034 sec
Threshold for overlap eigenvalues          ... 1.000e-08
Number of eigenvalues below threshold      ... 0
Time for construction of square roots      ...    0.033 sec
Total time needed                          ...    0.068 sec

-------------------
DFT GRID GENERATION
-------------------

General Integration Accuracy     IntAcc      ...  4.340
Radial Grid Type                 RadialGrid  ... Gauss-Chebyshev
Angular Grid (max. acc.)         AngularGrid ... Lebedev-110
Angular grid pruning method      GridPruning ... 3 (G Style)
Weight generation scheme         WeightScheme... Becke
Basis function cutoff            BFCut       ...    1.0000e-11
Integration weight cutoff        WCut        ...    1.0000e-14
Grids for H and He will be reduced by one unit

# of grid points (after initial pruning)     ...  22836 (   0.0 sec)
# of grid points (after weights+screening)   ...  20741 (   0.0 sec)
nearest neighbour list constructed           ...    0.0 sec
Grid point re-assignment to atoms done       ...    0.0 sec
Grid point division into batches done        ...    0.0 sec
Reduced shell lists constructed in    0.2 sec

Total number of grid points                  ...    20741
Total number of batches                      ...      332
Average number of points per batch           ...       62
Average number of grid points per atom       ...     1037
Average number of shells per batch           ...   131.44 (86.47%)
Average number of basis functions per batch  ...   350.70 (85.96%)
Average number of large shells per batch     ...   107.56 (81.83%)
Average number of large basis fcns per batch ...   281.51 (80.27%)
Average number of aux-shells per batch       ...   131.44 (41.08%)
Average number of aux functions per batch    ...   350.70 (35.35%)
Maximum spatial batch extension              ...   2.63,  2.68,  2.96 au
Average spatial batch extension              ...   0.20,  0.20,  0.21 au

Time for grid setup =    0.212 sec

------------------------------
INITIAL GUESS: MODEL POTENTIAL
------------------------------
Loading Hartree-Fock densities                     ... done
Calculating cut-offs                               ... done
Setting up the integral package                    ... done
Initializing the effective Hamiltonian             ... done
Starting the Coulomb interaction                   ... done (   0.1 sec)
Reading the grid                                   ... done
Mapping shells                                     ... done
Starting the XC term evaluation                    ... done (   0.1 sec)
Transforming the Hamiltonian                       ... done (   0.0 sec)
Diagonalizing the Hamiltonian                      ... done (   0.0 sec)
Back transforming the eigenvectors                 ... done (   0.0 sec)
Now organizing SCF variables                       ... done
                      ------------------
                      INITIAL GUESS DONE (   0.5 sec)
                      ------------------
--------------
SCF ITERATIONS
--------------
ITER       Energy         Delta-E        Max-DP      RMS-DP      [F,P]   Gradient Norm
                             ****Turning on KDIIS(Cayley)****
  0   -346.6431452351   0.000000000000 0.01278431  0.00024676  0.0948796   0.151700813
  1   -346.7576277623  -0.114482527221 0.01817376  0.00029086  0.0854014   0.131491970
  2   -346.8555729655  -0.097945203243 0.02989153  0.00048660  0.0690868   0.106878410
  3   -346.9759811545  -0.120408189029 0.04553988  0.00076575  0.0414113   0.065658526
  4   -347.0541394648  -0.078158310214 0.00290483  0.00006157  0.0035731   0.003837613
                      *** Initiating the SOSCF procedure ***
                           *** Shutting down KDIIS ***
                      *** Re-Reading the Fockian *** 
                      *** Removing any level shift *** 
ITER      Energy       Delta-E        Grad      Rot      Max-DP    RMS-DP
  5   -347.05461156  -0.0004720973  0.001200  0.001200  0.003406  0.000056
  6   -347.05466240  -0.0000508339  0.000278  0.000414  0.000472  0.000011
  7   -347.05466719  -0.0000047928  0.000153  0.000100  0.000173  0.000004
  8   -347.05466975  -0.0000025658  0.000106  0.000182  0.000151  0.000002
  9   -347.05466990  -0.0000001484  0.000021  0.000126  0.000172  0.000002
 10   -347.05466995  -0.0000000448  0.000017  0.000010  0.000022  0.000000
 11   -347.05466996  -0.0000000090  0.000003  0.000005  0.000007  0.000000
                  ***Gradient check signals convergence***
              ***Rediagonalizing the Fockian in SOSCF/NRSCF***

               *****************************************************
               *                     SUCCESS                       *
               *           SCF CONVERGED AFTER  12 CYCLES          *
               *****************************************************


----------------
TOTAL SCF ENERGY
----------------

Total Energy       :         -347.05466996 Eh           -9443.83768 eV

Components:
Nuclear Repulsion  :          391.46907031 Eh           10652.41496 eV
Electronic Energy  :         -738.52374027 Eh          -20096.25265 eV
One Electron Energy:        -1246.69769501 Eh          -33924.36896 eV
Two Electron Energy:          508.17395474 Eh           13828.11632 eV

Virial components:
Potential Energy   :         -693.48747412 Eh          -18870.75354 eV
Kinetic Energy     :          346.43280417 Eh            9426.91586 eV
Virial Ratio       :            2.00179505


---------------
SCF CONVERGENCE
---------------

  Last Energy change         ...   -4.4565e-10  Tolerance :   1.0000e-08
  Last MAX-Density change    ...    5.3875e-06  Tolerance :   1.0000e-07
  Last RMS-Density change    ...    6.2214e-08  Tolerance :   5.0000e-09
  Last Orbital Gradient      ...    1.6879e-06  Tolerance :   1.0000e-05
  Last Orbital Rotation      ...    4.0034e-06  Tolerance :   1.0000e-05

             **** THE GBW FILE WAS UPDATED (2_methylcyclohexanone_ax.gbw) ****
             **** DENSITY FILE WAS UPDATED (2_methylcyclohexanone_ax.scfp.tmp) ****
             **** ENERGY FILE WAS UPDATED (2_methylcyclohexanone_ax.en.tmp) ****
----------------
ORBITAL ENERGIES
----------------

  NO   OCC          E(Eh)            E(eV) 
   0   2.0000     -20.537382      -558.8506 
   1   2.0000     -11.321396      -308.0709 
   2   2.0000     -11.240718      -305.8755 
   3   2.0000     -11.236778      -305.7683 
   4   2.0000     -11.234967      -305.7190 
   5   2.0000     -11.234344      -305.7020 
   6   2.0000     -11.232448      -305.6504 
   7   2.0000     -11.229514      -305.5706 
   8   2.0000      -1.372905       -37.3586 
   9   2.0000      -1.122872       -30.5549 
  10   2.0000      -1.045060       -28.4375 
  11   2.0000      -0.996631       -27.1197 
  12   2.0000      -0.920467       -25.0472 
  13   2.0000      -0.842630       -22.9291 
  14   2.0000      -0.811835       -22.0912 
  15   2.0000      -0.712689       -19.3932 
  16   2.0000      -0.663912       -18.0660 
  17   2.0000      -0.633971       -17.2512 
  18   2.0000      -0.632300       -17.2057 
  19   2.0000      -0.596544       -16.2328 
  20   2.0000      -0.587614       -15.9898 
  21   2.0000      -0.568204       -15.4616 
  22   2.0000      -0.561101       -15.2683 
  23   2.0000      -0.551108       -14.9964 
  24   2.0000      -0.520080       -14.1521 
  25   2.0000      -0.498485       -13.5645 
  26   2.0000      -0.489374       -13.3165 
  27   2.0000      -0.473176       -12.8758 
  28   2.0000      -0.459925       -12.5152 
  29   2.0000      -0.455276       -12.3887 
  30   2.0000      -0.391168       -10.6442 
  31   0.0000       0.125194         3.4067 
  32   0.0000       0.141739         3.8569 
  33   0.0000       0.151362         4.1188 
  34   0.0000       0.166596         4.5333 
  35   0.0000       0.172766         4.7012 
  36   0.0000       0.191224         5.2035 
  37   0.0000       0.206984         5.6323 
  38   0.0000       0.208844         5.6829 
  39   0.0000       0.216416         5.8890 
  40   0.0000       0.226233         6.1561 
  41   0.0000       0.233666         6.3584 
  42   0.0000       0.249427         6.7872 
  43   0.0000       0.257732         7.0132 
  44   0.0000       0.295532         8.0418 
  45   0.0000       0.304757         8.2929 
  46   0.0000       0.328936         8.9508 
  47   0.0000       0.345543         9.4027 
  48   0.0000       0.359583         9.7848 
  49   0.0000       0.365218         9.9381 
  50   0.0000       0.377793        10.2803 
  51   0.0000       0.395728        10.7683 
  52   0.0000       0.401738        10.9318 
  53   0.0000       0.411799        11.2056 
  54   0.0000       0.426417        11.6034 
  55   0.0000       0.438638        11.9360 
  56   0.0000       0.458567        12.4782 
  57   0.0000       0.477486        12.9931 
  58   0.0000       0.492376        13.3982 
  59   0.0000       0.517434        14.0801 
  60   0.0000       0.546298        14.8655 
  61   0.0000       0.567434        15.4407 
  62   0.0000       0.573660        15.6101 
  63   0.0000       0.579328        15.7643 
  64   0.0000       0.582447        15.8492 
  65   0.0000       0.591435        16.0938 
  66   0.0000       0.593083        16.1386 
  67   0.0000       0.603418        16.4198 
  68   0.0000       0.608642        16.5620 
  69   0.0000       0.618796        16.8383 
  70   0.0000       0.624414        16.9912 
  71   0.0000       0.629906        17.1406 
  72   0.0000       0.635202        17.2847 
  73   0.0000       0.646417        17.5899 
  74   0.0000       0.659340        17.9416 
  75   0.0000       0.668042        18.1784 
  76   0.0000       0.674787        18.3619 
  77   0.0000       0.681746        18.5513 
  78   0.0000       0.686103        18.6698 
  79   0.0000       0.687655        18.7120 
  80   0.0000       0.692337        18.8394 
  81   0.0000       0.700283        19.0557 
  82   0.0000       0.715025        19.4568 
  83   0.0000       0.745642        20.2899 
  84   0.0000       0.780302        21.2331 
  85   0.0000       0.799125        21.7453 
  86   0.0000       0.813017        22.1233 
  87   0.0000       0.847818        23.0703 
  88   0.0000       0.859654        23.3924 
  89   0.0000       0.869024        23.6473 
  90   0.0000       0.902585        24.5606 
  91   0.0000       0.920444        25.0466 
  92   0.0000       0.938290        25.5322 
  93   0.0000       0.943221        25.6663 
  94   0.0000       0.963959        26.2307 
  95   0.0000       0.984898        26.8004 
  96   0.0000       0.995648        27.0930 
  97   0.0000       1.002339        27.2750 
  98   0.0000       1.053512        28.6675 
  99   0.0000       1.064736        28.9729 
 100   0.0000       1.090664        29.6785 
 101   0.0000       1.106122        30.0991 
 102   0.0000       1.114704        30.3326 
 103   0.0000       1.133106        30.8334 
 104   0.0000       1.141031        31.0490 
 105   0.0000       1.157117        31.4868 
 106   0.0000       1.161137        31.5962 
 107   0.0000       1.174170        31.9508 
 108   0.0000       1.186194        32.2780 
 109   0.0000       1.207855        32.8674 
 110   0.0000       1.219431        33.1824 
 111   0.0000       1.228067        33.4174 
 112   0.0000       1.230078        33.4721 
 113   0.0000       1.260486        34.2996 
 114   0.0000       1.277163        34.7534 
 115   0.0000       1.282098        34.8877 
 116   0.0000       1.302049        35.4305 
 117   0.0000       1.308380        35.6028 
 118   0.0000       1.317683        35.8560 
 119   0.0000       1.319935        35.9173 
 120   0.0000       1.340166        36.4678 
 121   0.0000       1.353608        36.8335 
 122   0.0000       1.369246        37.2591 
 123   0.0000       1.374247        37.3952 
 124   0.0000       1.397547        38.0292 
 125   0.0000       1.400337        38.1051 
 126   0.0000       1.412013        38.4228 
 127   0.0000       1.440459        39.1969 
 128   0.0000       1.448870        39.4258 
 129   0.0000       1.455320        39.6013 
 130   0.0000       1.457310        39.6554 
 131   0.0000       1.467577        39.9348 
 132   0.0000       1.480852        40.2960 
 133   0.0000       1.493559        40.6418 
 134   0.0000       1.502876        40.8953 
 135   0.0000       1.515242        41.2318 
 136   0.0000       1.522196        41.4211 
 137   0.0000       1.538703        41.8702 
 138   0.0000       1.544766        42.0352 
 139   0.0000       1.566910        42.6378 
 140   0.0000       1.590800        43.2879 
 141   0.0000       1.600189        43.5433 
 142   0.0000       1.601237        43.5719 
 143   0.0000       1.621265        44.1169 
 144   0.0000       1.635732        44.5105 
 145   0.0000       1.640625        44.6437 
 146   0.0000       1.652742        44.9734 
 147   0.0000       1.669908        45.4405 
 148   0.0000       1.671522        45.4844 
 149   0.0000       1.686460        45.8909 
 150   0.0000       1.706020        46.4232 
 151   0.0000       1.717850        46.7451 
 152   0.0000       1.737648        47.2838 
 153   0.0000       1.751977        47.6737 
 154   0.0000       1.774523        48.2872 
 155   0.0000       1.785179        48.5772 
 156   0.0000       1.795452        48.8567 
 157   0.0000       1.827449        49.7274 
 158   0.0000       1.833866        49.9020 
 159   0.0000       1.862947        50.6934 
 160   0.0000       1.893546        51.5260 
 161   0.0000       1.922335        52.3094 
 162   0.0000       1.961114        53.3646 
 163   0.0000       1.988283        54.1039 
 164   0.0000       2.020612        54.9836 
 165   0.0000       2.065602        56.2079 
 166   0.0000       2.104185        57.2578 
 167   0.0000       2.174398        59.1684 
 168   0.0000       2.271419        61.8085 
 169   0.0000       2.395875        65.1951 
 170   0.0000       2.454406        66.7878 
 171   0.0000       2.487696        67.6937 
 172   0.0000       2.503630        68.1272 
 173   0.0000       2.563486        69.7560 
 174   0.0000       2.583372        70.2971 
 175   0.0000       2.599318        70.7310 
 176   0.0000       2.633341        71.6568 
 177   0.0000       2.668736        72.6200 
 178   0.0000       2.694738        73.3275 
 179   0.0000       2.724535        74.1384 
 180   0.0000       2.752207        74.8914 
 181   0.0000       2.762402        75.1688 
 182   0.0000       2.764424        75.2238 
 183   0.0000       2.771508        75.4166 
 184   0.0000       2.792070        75.9761 
 185   0.0000       2.798405        76.1485 
 186   0.0000       2.825405        76.8832 
 187   0.0000       2.848194        77.5033 
 188   0.0000       2.857935        77.7684 
 189   0.0000       2.869781        78.0907 
 190   0.0000       2.891006        78.6683 
 191   0.0000       2.917085        79.3779 
 192   0.0000       2.927981        79.6744 
 193   0.0000       2.934468        79.8509 
 194   0.0000       2.938024        79.9477 
 195   0.0000       2.960610        80.5623 
 196   0.0000       2.975550        80.9688 
 197   0.0000       2.984463        81.2114 
 198   0.0000       2.993523        81.4579 
 199   0.0000       2.998188        81.5848 
 200   0.0000       3.004716        81.7625 
 201   0.0000       3.021313        82.2141 
 202   0.0000       3.029395        82.4340 
 203   0.0000       3.039744        82.7156 
 204   0.0000       3.087321        84.0103 
 205   0.0000       3.113690        84.7278 
 206   0.0000       3.121516        84.9408 
 207   0.0000       3.132308        85.2344 
 208   0.0000       3.162522        86.0566 
 209   0.0000       3.184267        86.6483 
 210   0.0000       3.189180        86.7820 
 211   0.0000       3.210131        87.3521 
 212   0.0000       3.219295        87.6015 
 213   0.0000       3.226711        87.8033 
 214   0.0000       3.236560        88.0713 
 215   0.0000       3.266907        88.8970 
 216   0.0000       3.276949        89.1703 
 217   0.0000       3.290605        89.5419 
 218   0.0000       3.301170        89.8294 
 219   0.0000       3.317796        90.2818 
 220   0.0000       3.324328        90.4596 
 221   0.0000       3.366480        91.6066 
 222   0.0000       3.378915        91.9450 
 223   0.0000       3.384331        92.0923 
 224   0.0000       3.394286        92.3632 
 225   0.0000       3.405552        92.6698 
 226   0.0000       3.414500        92.9133 
 227   0.0000       3.421459        93.1026 
 228   0.0000       3.440191        93.6124 
 229   0.0000       3.447731        93.8175 
 230   0.0000       3.453717        93.9804 
 231   0.0000       3.461330        94.1876 
 232   0.0000       3.466923        94.3398 
 233   0.0000       3.479896        94.6928 
 234   0.0000       3.486759        94.8795 
 235   0.0000       3.494603        95.0930 
 236   0.0000       3.502313        95.3028 
 237   0.0000       3.517716        95.7219 
 238   0.0000       3.529989        96.0559 
 239   0.0000       3.538016        96.2743 
 240   0.0000       3.556430        96.7754 
 241   0.0000       3.592617        97.7601 
 242   0.0000       3.596682        97.8707 
 243   0.0000       3.614477        98.3549 
 244   0.0000       3.634662        98.9042 
 245   0.0000       3.643396        99.1418 
 246   0.0000       3.653548        99.4181 
 247   0.0000       3.669423        99.8501 
 248   0.0000       3.683950       100.2454 
 249   0.0000       3.700559       100.6973 
 250   0.0000       3.710593       100.9704 
 251   0.0000       3.724242       101.3418 
 252   0.0000       3.746765       101.9547 
 253   0.0000       3.759577       102.3033 
 254   0.0000       3.777278       102.7850 
 255   0.0000       3.785161       102.9995 
 256   0.0000       3.814799       103.8059 
 257   0.0000       3.828688       104.1839 
 258   0.0000       3.830446       104.2317 
 259   0.0000       3.843431       104.5851 
 260   0.0000       3.866169       105.2038 
 261   0.0000       3.892720       105.9263 
 262   0.0000       3.908953       106.3680 
 263   0.0000       3.931061       106.9696 
 264   0.0000       3.941220       107.2460 
 265   0.0000       3.958850       107.7258 
 266   0.0000       3.959635       107.7471 
 267   0.0000       3.980334       108.3104 
 268   0.0000       3.991256       108.6076 
 269   0.0000       4.006095       109.0114 
 270   0.0000       4.009612       109.1071 
 271   0.0000       4.022511       109.4581 
 272   0.0000       4.042933       110.0138 
 273   0.0000       4.052478       110.2735 
 274   0.0000       4.056491       110.3827 
 275   0.0000       4.069441       110.7351 
 276   0.0000       4.086189       111.1909 
 277   0.0000       4.094631       111.4206 
 278   0.0000       4.117612       112.0459 
 279   0.0000       4.131803       112.4321 
 280   0.0000       4.138675       112.6191 
 281   0.0000       4.152428       112.9933 
 282   0.0000       4.177152       113.6661 
 283   0.0000       4.190618       114.0325 
 284   0.0000       4.203564       114.3848 
 285   0.0000       4.219993       114.8319 
 286   0.0000       4.228121       115.0530 
 287   0.0000       4.241038       115.4045 
 288   0.0000       4.253333       115.7391 
 289   0.0000       4.277823       116.4055 
 290   0.0000       4.302870       117.0870 
 291   0.0000       4.313117       117.3659 
 292   0.0000       4.317345       117.4809 
 293   0.0000       4.333719       117.9265 
 294   0.0000       4.337982       118.0425 
 295   0.0000       4.346732       118.2806 
 296   0.0000       4.372247       118.9749 
 297   0.0000       4.384979       119.3213 
 298   0.0000       4.401510       119.7712 
 299   0.0000       4.414184       120.1160 
 300   0.0000       4.419091       120.2496 
 301   0.0000       4.431703       120.5928 
 302   0.0000       4.446925       121.0070 
 303   0.0000       4.459941       121.3612 
 304   0.0000       4.462033       121.4181 
 305   0.0000       4.471752       121.6825 
 306   0.0000       4.489657       122.1698 
 307   0.0000       4.495890       122.3394 
 308   0.0000       4.512372       122.7879 
 309   0.0000       4.522384       123.0603 
 310   0.0000       4.546922       123.7280 
 311   0.0000       4.560922       124.1090 
 312   0.0000       4.571268       124.3905 
 313   0.0000       4.594721       125.0287 
 314   0.0000       4.605329       125.3174 
 315   0.0000       4.614075       125.5554 
 316   0.0000       4.621317       125.7524 
 317   0.0000       4.628790       125.9558 
 318   0.0000       4.642589       126.3313 
 319   0.0000       4.677201       127.2731 
 320   0.0000       4.688666       127.5851 
 321   0.0000       4.706902       128.0813 
 322   0.0000       4.729149       128.6867 
 323   0.0000       4.733702       128.8106 
 324   0.0000       4.755953       129.4161 
 325   0.0000       4.766259       129.6965 
 326   0.0000       4.792845       130.4199 
 327   0.0000       4.812341       130.9505 
 328   0.0000       4.826717       131.3416 
 329   0.0000       4.858287       132.2007 
 330   0.0000       4.889206       133.0421 
 331   0.0000       4.924683       134.0074 
 332   0.0000       4.952285       134.7585 
 333   0.0000       4.991518       135.8261 
 334   0.0000       5.001553       136.0992 
 335   0.0000       5.020130       136.6047 
 336   0.0000       5.058371       137.6453 
 337   0.0000       5.082699       138.3073 
 338   0.0000       5.095426       138.6536 
 339   0.0000       5.143969       139.9745 
 340   0.0000       5.160233       140.4171 
 341   0.0000       5.171996       140.7372 
 342   0.0000       5.187704       141.1646 
 343   0.0000       5.208766       141.7377 
 344   0.0000       5.233917       142.4221 
 345   0.0000       5.247839       142.8010 
 346   0.0000       5.268219       143.3555 
 347   0.0000       5.301042       144.2487 
 348   0.0000       5.310291       144.5004 
 349   0.0000       5.332579       145.1069 
 350   0.0000       5.350746       145.6012 
 351   0.0000       5.360760       145.8737 
 352   0.0000       5.377474       146.3285 
 353   0.0000       5.380790       146.4187 
 354   0.0000       5.420181       147.4906 
 355   0.0000       5.437307       147.9567 
 356   0.0000       5.449197       148.2802 
 357   0.0000       5.487958       149.3349 
 358   0.0000       5.500842       149.6855 
 359   0.0000       5.543727       150.8525 
 360   0.0000       5.559910       151.2929 
 361   0.0000       5.591396       152.1496 
 362   0.0000       5.593985       152.2201 
 363   0.0000       5.622166       152.9869 
 364   0.0000       5.629748       153.1932 
 365   0.0000       5.650553       153.7594 
 366   0.0000       5.671755       154.3363 
 367   0.0000       5.688681       154.7969 
 368   0.0000       5.699318       155.0863 
 369   0.0000       5.711548       155.4191 
 370   0.0000       5.746381       156.3670 
 371   0.0000       5.750420       156.4769 
 372   0.0000       5.763979       156.8459 
 373   0.0000       5.782999       157.3634 
 374   0.0000       5.803559       157.9229 
 375   0.0000       5.816890       158.2856 
 376   0.0000       5.832253       158.7037 
 377   0.0000       5.861680       159.5044 
 378   0.0000       5.881522       160.0443 
 379   0.0000       5.949007       161.8807 
 380   0.0000       5.990463       163.0088 
 381   0.0000       6.018227       163.7643 
 382   0.0000       6.091840       165.7674 
 383   0.0000       6.098213       165.9408 
 384   0.0000       6.202894       168.7893 
 385   0.0000       6.257760       170.2823 
 386   0.0000       6.301613       171.4756 
 387   0.0000       6.302814       171.5083 
 388   0.0000       6.362701       173.1379 
 389   0.0000       6.408675       174.3889 
 390   0.0000       6.459436       175.7702 
 391   0.0000       6.478647       176.2930 
 392   0.0000       6.721824       182.9101 
 393   0.0000       6.762142       184.0072 
 394   0.0000       6.952569       189.1890 
 395   0.0000       7.015722       190.9075 
 396   0.0000       7.106424       193.3756 
 397   0.0000       7.390790       201.1136 
 398   0.0000       7.578220       206.2138 
 399   0.0000       7.589828       206.5297 
 400   0.0000      10.189595       277.2730 
 401   0.0000      12.429229       338.2165 
 402   0.0000      12.897962       350.9714 
 403   0.0000      13.194181       359.0319 
 404   0.0000      13.433571       365.5461 
 405   0.0000      13.476917       366.7256 
 406   0.0000      13.636419       371.0658 
 407   0.0000      14.199864       386.3979 

                    ********************************
                    * MULLIKEN POPULATION ANALYSIS *
                    ********************************

-----------------------
MULLIKEN ATOMIC CHARGES
-----------------------
   0 C :   -0.102432
   1 C :    0.298241
   2 C :   -0.214996
   3 C :   -0.203802
   4 C :   -0.209903
   5 C :   -0.212317
   6 O :   -0.381517
   7 C :   -0.317143
   8 H :    0.133571
   9 H :    0.104067
  10 H :    0.116806
  11 H :    0.101021
  12 H :    0.095956
  13 H :    0.119387
  14 H :    0.110095
  15 H :    0.112007
  16 H :    0.131455
  17 H :    0.120566
  18 H :    0.106287
  19 H :    0.092652
Sum of atomic charges:    0.0000000

--------------------------------
MULLIKEN REDUCED ORBITAL CHARGES
--------------------------------
  0 C s       :     3.177879  s :     3.177879
      pz      :     0.977010  p :     2.797617
      px      :     0.941573
      py      :     0.879034
      dz2     :     0.023917  d :     0.119146
      dxz     :     0.033321
      dyz     :     0.015688
      dx2y2   :     0.033823
      dxy     :     0.012397
      f0      :     0.000948  f :     0.007790
      f+1     :     0.001216
      f-1     :     0.001088
      f+2     :     0.001332
      f-2     :     0.000622
      f+3     :     0.001019
      f-3     :     0.001564
  1 C s       :     3.150546  s :     3.150546
      pz      :     0.683736  p :     2.323993
      px      :     0.777610
      py      :     0.862647
      dz2     :     0.027982  d :     0.209502
      dxz     :     0.036697
      dyz     :     0.029811
      dx2y2   :     0.068763
      dxy     :     0.046249
      f0      :     0.001147  f :     0.017718
      f+1     :     0.002555
      f-1     :     0.001349
      f+2     :     0.002257
      f-2     :     0.002531
      f+3     :     0.004899
      f-3     :     0.002980
  2 C s       :     3.221509  s :     3.221509
      pz      :     0.971174  p :     2.894176
      px      :     0.887995
      py      :     1.035008
      dz2     :     0.022104  d :     0.093123
      dxz     :     0.017064
      dyz     :     0.010537
      dx2y2   :     0.021852
      dxy     :     0.021566
      f0      :     0.000873  f :     0.006188
      f+1     :     0.000723
      f-1     :     0.000586
      f+2     :     0.000780
      f-2     :     0.000995
      f+3     :     0.000959
      f-3     :     0.001272
  3 C s       :     3.222355  s :     3.222355
      pz      :     1.014279  p :     2.860699
      px      :     0.933660
      py      :     0.912760
      dz2     :     0.020692  d :     0.114118
      dxz     :     0.021382
      dyz     :     0.024235
      dx2y2   :     0.024710
      dxy     :     0.023099
      f0      :     0.000868  f :     0.006630
      f+1     :     0.000710
      f-1     :     0.000938
      f+2     :     0.001101
      f-2     :     0.000376
      f+3     :     0.001251
      f-3     :     0.001386
  4 C s       :     3.218826  s :     3.218826
      pz      :     0.984348  p :     2.869841
      px      :     0.987703
      py      :     0.897790
      dz2     :     0.026679  d :     0.114549
      dxz     :     0.015590
      dyz     :     0.023884
      dx2y2   :     0.028743
      dxy     :     0.019654
      f0      :     0.000969  f :     0.006688
      f+1     :     0.000622
      f-1     :     0.000955
      f+2     :     0.001188
      f-2     :     0.000578
      f+3     :     0.001143
      f-3     :     0.001233
  5 C s       :     3.220399  s :     3.220399
      pz      :     0.979438  p :     2.868925
      px      :     0.870592
      py      :     1.018896
      dz2     :     0.031038  d :     0.116275
      dxz     :     0.021735
      dyz     :     0.012135
      dx2y2   :     0.033078
      dxy     :     0.018289
      f0      :     0.000826  f :     0.006718
      f+1     :     0.000998
      f-1     :     0.000790
      f+2     :     0.001006
      f-2     :     0.000841
      f+3     :     0.001031
      f-3     :     0.001227
  6 O s       :     3.764685  s :     3.764685
      pz      :     1.428832  p :     4.578999
      px      :     1.442004
      py      :     1.708163
      dz2     :     0.005036  d :     0.035486
      dxz     :     0.007507
      dyz     :     0.005064
      dx2y2   :     0.008267
      dxy     :     0.009612
      f0      :     0.000175  f :     0.002347
      f+1     :     0.000274
      f-1     :     0.000171
      f+2     :     0.000177
      f-2     :     0.000492
      f+3     :     0.000453
      f-3     :     0.000605
  7 C s       :     3.272349  s :     3.272349
      pz      :     0.940612  p :     2.954780
      px      :     1.018085
      py      :     0.996084
      dz2     :     0.019063  d :     0.085201
      dxz     :     0.023362
      dyz     :     0.011748
      dx2y2   :     0.025003
      dxy     :     0.006025
      f0      :     0.000538  f :     0.004812
      f+1     :     0.000937
      f-1     :     0.000892
      f+2     :     0.001076
      f-2     :     0.000434
      f+3     :     0.000158
      f-3     :     0.000779
  8 H s       :     0.835819  s :     0.835819
      pz      :     0.007639  p :     0.028114
      px      :     0.008761
      py      :     0.011715
      dz2     :     0.000221  d :     0.002496
      dxz     :     0.000016
      dyz     :     0.000683
      dx2y2   :     0.000593
      dxy     :     0.000983
  9 H s       :     0.863587  s :     0.863587
      pz      :     0.012056  p :     0.029872
      px      :     0.010286
      py      :     0.007530
      dz2     :     0.000759  d :     0.002475
      dxz     :     0.000981
      dyz     :     0.000584
      dx2y2   :     0.000115
      dxy     :     0.000036
 10 H s       :     0.852542  s :     0.852542
      pz      :     0.007018  p :     0.028216
      px      :     0.010883
      py      :     0.010315
      dz2     :     0.000503  d :     0.002436
      dxz     :     0.000407
      dyz     :     0.000365
      dx2y2   :     0.000721
      dxy     :     0.000439
 11 H s       :     0.869086  s :     0.869086
      pz      :     0.009759  p :     0.027495
      px      :     0.007827
      py      :     0.009910
      dz2     :     0.000640  d :     0.002397
      dxz     :     0.000695
      dyz     :     0.000694
      dx2y2   :     0.000272
      dxy     :     0.000096
 12 H s       :     0.873418  s :     0.873418
      pz      :     0.010715  p :     0.028198
      px      :     0.007856
      py      :     0.009628
      dz2     :     0.000738  d :     0.002427
      dxz     :     0.000686
      dyz     :     0.000701
      dx2y2   :     0.000225
      dxy     :     0.000078
 13 H s       :     0.850157  s :     0.850157
      pz      :     0.007006  p :     0.028022
      px      :     0.011731
      py      :     0.009285
      dz2     :     0.000376  d :     0.002433
      dxz     :     0.000520
      dyz     :     0.000146
      dx2y2   :     0.000687
      dxy     :     0.000704
 14 H s       :     0.858985  s :     0.858985
      pz      :     0.007966  p :     0.028467
      px      :     0.009257
      py      :     0.011244
      dz2     :     0.000197  d :     0.002453
      dxz     :     0.000034
      dyz     :     0.000716
      dx2y2   :     0.000523
      dxy     :     0.000983
 15 H s       :     0.857728  s :     0.857728
      pz      :     0.012381  p :     0.027853
      px      :     0.008880
      py      :     0.006592
      dz2     :     0.000778  d :     0.002412
      dxz     :     0.000914
      dyz     :     0.000520
      dx2y2   :     0.000147
      dxy     :     0.000052
 16 H s       :     0.835068  s :     0.835068
      pz      :     0.011336  p :     0.030617
      px      :     0.011457
      py      :     0.007824
      dz2     :     0.000880  d :     0.002860
      dxz     :     0.000523
      dyz     :     0.000530
      dx2y2   :     0.000542
      dxy     :     0.000385
 17 H s       :     0.850687  s :     0.850687
      pz      :     0.009125  p :     0.026608
      px      :     0.010475
      py      :     0.007007
      dz2     :     0.000231  d :     0.002139
      dxz     :     0.000774
      dyz     :     0.000078
      dx2y2   :     0.000533
      dxy     :     0.000523
 18 H s       :     0.865093  s :     0.865093
      pz      :     0.007616  p :     0.026439
      px      :     0.007636
      py      :     0.011187
      dz2     :     0.000223  d :     0.002181
      dxz     :     0.000033
      dyz     :     0.000733
      dx2y2   :     0.000606
      dxy     :     0.000586
 19 H s       :     0.877941  s :     0.877941
      pz      :     0.011459  p :     0.027238
      px      :     0.008178
      py      :     0.007601
      dz2     :     0.000797  d :     0.002170
      dxz     :     0.000506
      dyz     :     0.000416
      dx2y2   :     0.000258
      dxy     :     0.000194


                     *******************************
                     * LOEWDIN POPULATION ANALYSIS *
                     *******************************

----------------------
LOEWDIN ATOMIC CHARGES
----------------------
   0 C :   -0.015880
   1 C :   -0.214649
   2 C :    0.060539
   3 C :    0.062789
   4 C :    0.056619
   5 C :    0.066742
   6 O :    0.128314
   7 C :    0.120461
   8 H :   -0.015434
   9 H :   -0.016710
  10 H :   -0.023517
  11 H :   -0.022975
  12 H :   -0.027927
  13 H :   -0.022871
  14 H :   -0.022344
  15 H :   -0.021188
  16 H :   -0.013007
  17 H :   -0.021202
  18 H :   -0.024002
  19 H :   -0.033757

-------------------------------
LOEWDIN REDUCED ORBITAL CHARGES
-------------------------------
  0 C s       :     2.667422  s :     2.667422
      pz      :     0.946006  p :     2.812093
      px      :     0.936674
      py      :     0.929413
      dz2     :     0.089196  d :     0.488152
      dxz     :     0.118792
      dyz     :     0.074665
      dx2y2   :     0.130903
      dxy     :     0.074596
      f0      :     0.006527  f :     0.048213
      f+1     :     0.007080
      f-1     :     0.005753
      f+2     :     0.007352
      f-2     :     0.005620
      f+3     :     0.007586
      f-3     :     0.008295
  1 C s       :     2.755733  s :     2.755733
      pz      :     0.703811  p :     2.566998
      px      :     0.894883
      py      :     0.968303
      dz2     :     0.095316  d :     0.779535
      dxz     :     0.130237
      dyz     :     0.109588
      dx2y2   :     0.242168
      dxy     :     0.202226
      f0      :     0.007475  f :     0.112384
      f+1     :     0.011535
      f-1     :     0.009320
      f+2     :     0.017522
      f-2     :     0.014058
      f+3     :     0.036998
      f-3     :     0.015476
  2 C s       :     2.665792  s :     2.665792
      pz      :     0.957860  p :     2.845944
      px      :     0.923494
      py      :     0.964590
      dz2     :     0.089318  d :     0.389590
      dxz     :     0.080105
      dyz     :     0.036143
      dx2y2   :     0.108262
      dxy     :     0.075762
      f0      :     0.004365  f :     0.038136
      f+1     :     0.005209
      f-1     :     0.003960
      f+2     :     0.004989
      f-2     :     0.007221
      f+3     :     0.005911
      f-3     :     0.006481
  3 C s       :     2.660209  s :     2.660209
      pz      :     0.970397  p :     2.816853
      px      :     0.921217
      py      :     0.925239
      dz2     :     0.071684  d :     0.420556
      dxz     :     0.077215
      dyz     :     0.082440
      dx2y2   :     0.098998
      dxy     :     0.090219
      f0      :     0.004646  f :     0.039592
      f+1     :     0.004164
      f-1     :     0.005148
      f+2     :     0.006051
      f-2     :     0.004720
      f+3     :     0.008077
      f-3     :     0.006785
  4 C s       :     2.658648  s :     2.658648
      pz      :     0.959084  p :     2.822165
      px      :     0.944959
      py      :     0.918121
      dz2     :     0.091142  d :     0.422581
      dxz     :     0.058919
      dyz     :     0.088014
      dx2y2   :     0.108530
      dxy     :     0.075975
      f0      :     0.005533  f :     0.039987
      f+1     :     0.003852
      f-1     :     0.005550
      f+2     :     0.006853
      f-2     :     0.004730
      f+3     :     0.007722
      f-3     :     0.005747
  5 C s       :     2.659757  s :     2.659757
      pz      :     0.950608  p :     2.815412
      px      :     0.904654
      py      :     0.960150
      dz2     :     0.107612  d :     0.418750
      dxz     :     0.084079
      dyz     :     0.039552
      dx2y2   :     0.123282
      dxy     :     0.064225
      f0      :     0.004334  f :     0.039340
      f+1     :     0.006264
      f-1     :     0.005001
      f+2     :     0.005077
      f-2     :     0.006039
      f+3     :     0.005943
      f-3     :     0.006681
  6 O s       :     3.378137  s :     3.378137
      pz      :     1.350198  p :     4.420561
      px      :     1.459718
      py      :     1.610645
      dz2     :     0.007357  d :     0.067889
      dxz     :     0.013816
      dyz     :     0.006431
      dx2y2   :     0.018401
      dxy     :     0.021884
      f0      :     0.000381  f :     0.005098
      f+1     :     0.000454
      f-1     :     0.000298
      f+2     :     0.000610
      f-2     :     0.000821
      f+3     :     0.001454
      f-3     :     0.001079
  7 C s       :     2.661545  s :     2.661545
      pz      :     0.938127  p :     2.877252
      px      :     0.977334
      py      :     0.961791
      dz2     :     0.073831  d :     0.311996
      dxz     :     0.083800
      dyz     :     0.046622
      dx2y2   :     0.087799
      dxy     :     0.019944
      f0      :     0.004641  f :     0.028747
      f+1     :     0.004834
      f-1     :     0.004876
      f+2     :     0.003960
      f-2     :     0.004235
      f+3     :     0.001936
      f-3     :     0.004263
  8 H s       :     0.835687  s :     0.835687
      pz      :     0.037866  p :     0.151126
      px      :     0.037207
      py      :     0.076054
      dz2     :     0.002559  d :     0.028620
      dxz     :     0.000164
      dyz     :     0.009155
      dx2y2   :     0.007798
      dxy     :     0.008943
  9 H s       :     0.832975  s :     0.832975
      pz      :     0.072103  p :     0.155483
      px      :     0.041354
      py      :     0.042026
      dz2     :     0.009516  d :     0.028252
      dxz     :     0.008961
      dyz     :     0.008023
      dx2y2   :     0.001273
      dxy     :     0.000480
 10 H s       :     0.842555  s :     0.842555
      pz      :     0.051032  p :     0.152951
      px      :     0.056869
      py      :     0.045050
      dz2     :     0.006817  d :     0.028012
      dxz     :     0.006086
      dyz     :     0.003800
      dx2y2   :     0.006261
      dxy     :     0.005047
 11 H s       :     0.842957  s :     0.842957
      pz      :     0.068777  p :     0.151961
      px      :     0.039012
      py      :     0.044172
      dz2     :     0.008911  d :     0.028057
      dxz     :     0.008027
      dyz     :     0.007866
      dx2y2   :     0.002127
      dxy     :     0.001127
 12 H s       :     0.846361  s :     0.846361
      pz      :     0.069296  p :     0.153488
      px      :     0.039765
      py      :     0.044427
      dz2     :     0.008970  d :     0.028078
      dxz     :     0.008313
      dyz     :     0.007915
      dx2y2   :     0.001920
      dxy     :     0.000959
 13 H s       :     0.841659  s :     0.841659
      pz      :     0.043910  p :     0.153132
      px      :     0.067412
      py      :     0.041809
      dz2     :     0.004491  d :     0.028080
      dxz     :     0.007651
      dyz     :     0.001458
      dx2y2   :     0.007200
      dxy     :     0.007280
 14 H s       :     0.841969  s :     0.841969
      pz      :     0.038963  p :     0.152252
      px      :     0.038831
      py      :     0.074458
      dz2     :     0.002373  d :     0.028123
      dxz     :     0.000119
      dyz     :     0.009360
      dx2y2   :     0.007306
      dxy     :     0.008964
 15 H s       :     0.840876  s :     0.840876
      pz      :     0.070810  p :     0.152138
      px      :     0.039123
      py      :     0.042205
      dz2     :     0.009651  d :     0.028173
      dxz     :     0.008389
      dyz     :     0.007724
      dx2y2   :     0.001680
      dxy     :     0.000730
 16 H s       :     0.829571  s :     0.829571
      pz      :     0.059381  p :     0.153985
      px      :     0.056182
      py      :     0.038422
      dz2     :     0.007999  d :     0.029452
      dxz     :     0.007237
      dyz     :     0.005384
      dx2y2   :     0.004724
      dxy     :     0.004108
 17 H s       :     0.842318  s :     0.842318
      pz      :     0.041410  p :     0.151166
      px      :     0.069163
      py      :     0.040593
      dz2     :     0.002989  d :     0.027718
      dxz     :     0.008524
      dyz     :     0.001153
      dx2y2   :     0.007610
      dxy     :     0.007442
 18 H s       :     0.844843  s :     0.844843
      pz      :     0.039406  p :     0.151380
      px      :     0.039618
      py      :     0.072356
      dz2     :     0.002705  d :     0.027780
      dxz     :     0.000510
      dyz     :     0.008744
      dx2y2   :     0.006930
      dxy     :     0.008890
 19 H s       :     0.851935  s :     0.851935
      pz      :     0.060299  p :     0.154097
      px      :     0.052678
      py      :     0.041120
      dz2     :     0.008336  d :     0.027725
      dxz     :     0.006699
      dyz     :     0.005766
      dx2y2   :     0.003919
      dxy     :     0.003005


                      *****************************
                      * MAYER POPULATION ANALYSIS *
                      *****************************

  NA   - Mulliken gross atomic population
  ZA   - Total nuclear charge
  QA   - Mulliken gross atomic charge
  VA   - Mayer's total valence
  BVA  - Mayer's bonded valence
  FA   - Mayer's free valence

  ATOM       NA         ZA         QA         VA         BVA        FA
  0 C      6.1024     6.0000    -0.1024     3.7487     3.7487     0.0000
  1 C      5.7018     6.0000     0.2982     3.9845     3.9845     0.0000
  2 C      6.2150     6.0000    -0.2150     3.7889     3.7889    -0.0000
  3 C      6.2038     6.0000    -0.2038     3.8466     3.8466     0.0000
  4 C      6.2099     6.0000    -0.2099     3.8544     3.8544     0.0000
  5 C      6.2123     6.0000    -0.2123     3.8454     3.8454    -0.0000
  6 O      8.3815     8.0000    -0.3815     2.1094     2.1094     0.0000
  7 C      6.3171     6.0000    -0.3171     3.8861     3.8861     0.0000
  8 H      0.8664     1.0000     0.1336     0.9942     0.9942    -0.0000
  9 H      0.8959     1.0000     0.1041     0.9837     0.9837    -0.0000
 10 H      0.8832     1.0000     0.1168     0.9767     0.9767     0.0000
 11 H      0.8990     1.0000     0.1010     0.9814     0.9814    -0.0000
 12 H      0.9040     1.0000     0.0960     0.9807     0.9807     0.0000
 13 H      0.8806     1.0000     0.1194     0.9760     0.9760    -0.0000
 14 H      0.8899     1.0000     0.1101     0.9823     0.9823     0.0000
 15 H      0.8880     1.0000     0.1120     0.9802     0.9802    -0.0000
 16 H      0.8685     1.0000     0.1315     0.9930     0.9930     0.0000
 17 H      0.8794     1.0000     0.1206     0.9822     0.9822     0.0000
 18 H      0.8937     1.0000     0.1063     0.9799     0.9799    -0.0000
 19 H      0.9073     1.0000     0.0927     0.9787     0.9787     0.0000

  Mayer bond orders larger than 0.1
B(  0-C ,  1-C ) :   0.9383 B(  0-C ,  5-C ) :   0.9346 B(  0-C ,  7-C ) :   0.9423 
B(  0-C , 16-H ) :   0.9823 B(  1-C ,  2-C ) :   0.9404 B(  1-C ,  6-O ) :   2.0934 
B(  2-C ,  3-C ) :   0.9343 B(  2-C ,  8-H ) :   0.9832 B(  2-C ,  9-H ) :   0.9699 
B(  3-C ,  4-C ) :   0.9421 B(  3-C , 10-H ) :   0.9901 B(  3-C , 11-H ) :   0.9814 
B(  4-C ,  5-C ) :   0.9419 B(  4-C , 12-H ) :   0.9824 B(  4-C , 13-H ) :   0.9895 
B(  5-C , 14-H ) :   0.9891 B(  5-C , 15-H ) :   0.9878 B(  7-C , 17-H ) :   0.9812 
B(  7-C , 18-H ) :   0.9794 B(  7-C , 19-H ) :   0.9762 

-------
TIMINGS
-------

Total SCF time: 0 days 0 hours 0 min 26 sec 

Total time                  ....      26.369 sec
Sum of individual times     ....      26.016 sec  ( 98.7%)

Fock matrix formation       ....      24.969 sec  ( 94.7%)
Diagonalization             ....       0.194 sec  (  0.7%)
Density matrix formation    ....       0.027 sec  (  0.1%)
Population analysis         ....       0.080 sec  (  0.3%)
Initial guess               ....       0.337 sec  (  1.3%)
Orbital Transformation      ....       0.000 sec  (  0.0%)
Orbital Orthonormalization  ....       0.000 sec  (  0.0%)
DIIS solution               ....       0.000 sec  (  0.0%)
SOSCF solution              ....       0.196 sec  (  0.7%)


           ************************************************************
           *        Program running with 8 parallel MPI-processes     *
           *              working on a common directory               *
           ************************************************************


------------------------------------------------------------------------------- 
                              ORCA-MATRIX DRIVEN CI                            
------------------------------------------------------------------------------- 


Wavefunction type
-----------------
Correlation treatment                      ...      CCSD     
Single excitations                         ... ON
Orbital optimization                       ... OFF
Calculation of Z vector                    ... OFF
Calculation of Brueckner orbitals          ... OFF
Perturbative triple excitations            ... ON
Calculation of F12 correction              ... OFF
Frozen core treatment                      ... chemical core (16 el)
Reference Wavefunction                     ... RHF
  Internal Orbitals:     8 ...   30 ( 23 MO's/ 46 electrons)
  Virtual  Orbitals:    31 ...  407 (377 MO's              )
Number of AO's                             ...    408
Number of electrons                        ...     62
Number of correlated electrons             ...     46

Algorithmic settings
--------------------
Integral transformation                    ... All integrals via the RI transformation
K(C) Formation                             ... RI-DLPNO
   PNO-Integral Storage                    ... ON DISK
   PNO occupation number cut-off           ... 1.000e-07
   Singles PNO occupation number cut-off   ... 3.000e-09
   PNO Mulliken prescreening cut-off       ... 1.000e-03
   Domain cut-off (Mulliken population)    ... 1.000e-03
   PNO Normalization                       ...    1
Maximum number of iterations               ...        50
Convergence tolerance (max. residuum)      ... 1.000e-05
Level shift for amplitude update           ... 2.000e-01
Maximum number of DIIS vectors             ...         7
DIIS turned on at iteration                ...         0
Damping before turning on DIIS             ...     0.500
Damping after turning on DIIS              ...     0.000
Pair specific amplitude update             ... OFF
Natural orbital iterations                 ... OFF
Perturbative natural orbital generation    ... OFF
Printlevel                                 ... 2

Singles Fock matrix elements calculated using PNOs.

Memory handling:
----------------
Maximum memory for working arrays          ...   8000 MB
Data storage in matrix containers          ... UNCOMPRESSED
Data type for integral storage             ... DOUBLE
In-Core Storage of quantities:
   Amplitudes+Sigma Vector      ... NO
   J+K operators                ... NO
   DIIS vectors                 ... NO
   3-external integrals         ... NO
   4-external integrals         ... NO

Localization treatment:
-----------------------
Localization option                        ...    6
Localization threshhold                    ... -1.0e+00
Using relative localization threshhold     ... 1.0e-08
Neglect threshold for strong pairs         ... 1.000e-05 Eh
Prescreening threshold for very weak pairs ... 1.000e-07 Eh

Initializing the integral package          ... done
Localizing the valence orbitals
------------------------------------------------------------------------------
                           ORCA ORBITAL LOCALIZATION
------------------------------------------------------------------------------

Input orbitals are from                  ... 2_methylcyclohexanone_ax.proc0.gbw
Output orbitals are to                   ... 2_methylcyclohexanone_ax.proc0.loc
Max. number of iterations                ... 128
Localizations seeded randomly            ... off
Convergence tolerance                    ... 1.000e-06
Using relative localization threshhold   ... 1.000e-08
Treshold for strong local MOs            ... 9.500e-01
Treshold for bond MOs                    ... 8.500e-01
Operator                                 ... 0
Orbital range for localization           ... 8 to 30
Localization criterion                   ... FOSTER-BOYS (AUGMENTED HESSIAN)
Doing the dipole integrals     ... o.k.
Initial value of the localization sum :   250.033673
ITERATION   0 : L=  323.2103335441 DL=  7.32e+01 (AVERGE_DL)=    0.5378064810 
ITERATION   1 : L=  334.8991767653 DL=  1.17e+01 (AVERGE_DL)=    0.2149440889 
ITERATION   2 : L=  335.2400053044 DL=  3.41e-01 (AVERGE_DL)=    0.0367035199 
ITERATION   3 : L=  335.2401819331 DL=  1.77e-04 (AVERGE_DL)=    0.0008355460 
ITERATION   4 : L=  335.2401842763 DL=  2.34e-06 (AVERGE_DL)=    0.0000962370 
ITERATION   5 : L=  335.2401844441 DL=  1.68e-07 (AVERGE_DL)=    0.0000257578 
LOCALIZATION SUM CONVERGED

------------------------------------------------------
AUGMENTED HESSIAN OPTIMIZATION OF FOSTER-BOYS ORBITALS
------------------------------------------------------

Spin operator:           0
Orbital window:          8 to 30
Number of iterations:    128
Gradient tolerance:      1.000e-06
Number of pairs:         253
Davidson threshold:      2000
Diagonalization method:  LAPACK
Iter:    0   L: 335.2401844441   Grad. norm: 1.276910e-03
   *** Likely close to a maximum now. ***
       Augmented Hessian eigenvalues:  3.63e-08 -1.73e+00 -2.39e+00 -3.09e+00 ... 
Iter:    1   L: 335.2401844623   Grad. norm: 1.460653e-08
LOCALIZATION HAS CONVERGED.

Eigenvalues of the Hessian:
  0 -1.726e+00
  1 -2.391e+00
  2 -3.092e+00
  3 -5.595e+00
  4 -6.696e+00
  5 -7.285e+00
  6 -1.697e+01
  7 -1.698e+01
  8 -1.737e+01
  9 -1.780e+01
    ...


------------------------------------------------------------------------------- 
                    LOCALIZED MOLECULAR ORBITAL COMPOSITIONS                   
------------------------------------------------------------------------------- 

The Mulliken populations for each LMO on each atom are computed
The LMO`s will be ordered according to atom index and type
  (A) Strongly localized MO`s have populations of >=0.950 on one atom
  (B) Two center bond orbitals have populations of >=0.850 on two atoms
  (C) Other MO`s are considered to be `delocalized`

FOUND  -   2 strongly local MO`s
       -  21 two center bond MO`s
       -   0 significantly delocalized MO`s

Rather strongly localized orbitals:
MO   9:   6O  -   0.956860
MO   8:   6O  -   0.956574
Bond-like localized orbitals:
MO  30:  19H  -   0.475025  and   7C  -   0.548783
MO  29:  18H  -   0.465800  and   7C  -   0.559470
MO  28:  17H  -   0.455045  and   7C  -   0.573601
MO  27:  16H  -   0.442596  and   0C  -   0.590103
MO  26:  15H  -   0.460871  and   5C  -   0.571731
MO  25:  14H  -   0.461245  and   5C  -   0.568716
MO  24:  13H  -   0.457672  and   4C  -   0.574079
MO  23:  12H  -   0.470998  and   4C  -   0.556197
MO  22:  11H  -   0.467248  and   3C  -   0.560710
MO  21:  10H  -   0.459277  and   3C  -   0.573228
MO  20:   9H  -   0.465823  and   2C  -   0.551572
MO  19:   8H  -   0.441015  and   2C  -   0.590404
MO  18:   7C  -   0.500436  and   0C  -   0.521210
MO  17:   6O  -   0.652181  and   1C  -   0.357877
MO  16:   6O  -   0.651681  and   1C  -   0.363349
MO  15:   5C  -   0.512156  and   4C  -   0.516455
MO  14:   5C  -   0.512300  and   0C  -   0.515620
MO  13:   4C  -   0.517204  and   3C  -   0.514818
MO  12:   3C  -   0.511826  and   2C  -   0.514106
MO  11:   2C  -   0.516605  and   1C  -   0.536534
MO  10:   1C  -   0.532808  and   0C  -   0.521419
Localized MO's were stored in: 2_methylcyclohexanone_ax.proc0.loc

Localizing the core orbitals
------------------------------------------------------------------------------
                           ORCA ORBITAL LOCALIZATION
------------------------------------------------------------------------------

Input orbitals are from                  ... 2_methylcyclohexanone_ax.proc0.loc
Output orbitals are to                   ... 2_methylcyclohexanone_ax.proc0.loc
Max. number of iterations                ... 128
Localizations seeded randomly            ... off
Convergence tolerance                    ... 1.000e-06
Using relative localization threshhold   ... 1.000e-08
Treshold for strong local MOs            ... 9.500e-01
Treshold for bond MOs                    ... 8.500e-01
Operator                                 ... 0
Orbital range for localization           ... 0 to 7
Localization criterion                   ... FOSTER-BOYS (AUGMENTED HESSIAN)
Doing the dipole integrals     ... o.k.
Initial value of the localization sum :    88.558149
ITERATION   0 : L=   88.5581539963 DL=  4.92e-06 (AVERGE_DL)=    0.0004191668 
ITERATION   1 : L=   88.5581539963 DL=  0.00e+00 (AVERGE_DL)=    0.0000000000 
LOCALIZATION SUM CONVERGED

------------------------------------------------------
AUGMENTED HESSIAN OPTIMIZATION OF FOSTER-BOYS ORBITALS
------------------------------------------------------

Spin operator:           0
Orbital window:          0 to 7
Number of iterations:    128
Gradient tolerance:      1.000e-06
Number of pairs:         28
Davidson threshold:      2000
Diagonalization method:  LAPACK
Iter:    0   L: 88.5581539963   Grad. norm: 1.894626e-06
   *** Likely close to a maximum now. ***
       Augmented Hessian eigenvalues:  5.10e-14 -2.13e+01 -3.31e+01 -3.34e+01 ... 
Iter:    1   L: 88.5581539963   Grad. norm: 3.909035e-14
LOCALIZATION HAS CONVERGED.

Eigenvalues of the Hessian:
  0 -2.128e+01
  1 -3.312e+01
  2 -3.344e+01
  3 -3.366e+01
  4 -3.373e+01
  5 -3.401e+01
  6 -3.410e+01
  7 -3.426e+01
  8 -8.236e+01
  9 -8.258e+01
    ...


------------------------------------------------------------------------------- 
                    LOCALIZED MOLECULAR ORBITAL COMPOSITIONS                   
------------------------------------------------------------------------------- 

The Mulliken populations for each LMO on each atom are computed
The LMO`s will be ordered according to atom index and type
  (A) Strongly localized MO`s have populations of >=0.950 on one atom
  (B) Two center bond orbitals have populations of >=0.850 on two atoms
  (C) Other MO`s are considered to be `delocalized`

FOUND  -   8 strongly local MO`s
       -   0 two center bond MO`s
       -   0 significantly delocalized MO`s

Rather strongly localized orbitals:
MO   7:   7C  -   1.001159
MO   6:   6O  -   0.999586
MO   5:   5C  -   1.001572
MO   4:   4C  -   1.001549
MO   3:   3C  -   1.001467
MO   2:   2C  -   1.001610
MO   1:   1C  -   1.000627
MO   0:   0C  -   1.001532
Localized MO's were stored in: 2_methylcyclohexanone_ax.proc0.loc

Warning: internal orbitals are localized - no re-canonicalization of internal orbitals

--------------------------
CLOSED-SHELL FOCK OPERATOR
--------------------------

[...]
Basis functions:    408 (152 shells)
Aux. functions:    1008 (304 shells)

Processing maps (0.0 sec)
Average map sizes:
   Aux shells -> MOs              23.0
   Aux shells -> PAOs            408.0
   MOs        -> AO shells       149.0
   PAOs       -> AO shells       152.0

Calculating integrals (1.0 sec, 72.179 MB)
Sorting integrals (0.1 sec, 72.167 MB)
Total time for the integral transformation: 1.1 sec
--------------------------------
INITIAL GUESS AND PNO GENERATION
--------------------------------

PNO truncation parameters                   .... 
    ScaleTCutPNO       =        1.000e-02
    PAOOverlapThresh   =        1.000e-08

    TCutPairs          =        1.000e-05
    TCutPNO            =        1.000e-07
    TCutPNOSingles     =        3.000e-09
    TCutMP2Pairs       =        1.000e-06
    TCutMKN            =        1.000e-03
    TCutDO             =        5.000e-03

Pair selection                          .... not used
Type of local MP2 treatment                 .... full local PMP2
Strategy for PNO selection                  .... occupation number selection
Pair density normalization                  .... MP2 norm
Spin component scaling                      .... not used

PASS-1: Formation of initial guess LMP2 amplitudes
Initial amplitudes guess done. Entering LMP2 iteration loop:
   Max. no of iterations          ...  50
   Energy convergence tolerance   ...    1.0e-07
   Residual convergence tolerance ...    5.0e-07
   Fock matrix cutoff             ...    1.0e-05 Eh
   DIIS convergence acceleration parameters:
        Max # vectors in DIIS     ... 7
        Start iteration of DIIS   ... 0
        Levelshift                ... 2.000e-01
        Damping factor 1          ... 5.000e-01
        Damping factor 2          ... 1.000e+00
   L-MP2 PNO cut-off              ...   1.0e-09
   L-MP2 PNO cut-off (core)       ...   1.0e-11
                           *** Turning on DIIS ***
LMP2-Iter=   0:  ELMP2= -1.400457182184  DE=   2.8e-02 RMAX=   2.1e-02
LMP2-Iter=   1:  ELMP2= -1.414998818103  DE=   1.5e-02 RMAX=   9.7e-03
LMP2-Iter=   2:  ELMP2= -1.417553553573  DE=   2.6e-03 RMAX=   4.0e-03
LMP2-Iter=   3:  ELMP2= -1.417885241887  DE=   3.3e-04 RMAX=   1.4e-03
LMP2-Iter=   4:  ELMP2= -1.417883854311  DE=   1.4e-06 RMAX=   4.0e-04
LMP2-Iter=   5:  ELMP2= -1.417873868169  DE=   1.0e-05 RMAX=   9.4e-05
LMP2-Iter=   6:  ELMP2= -1.417871867251  DE=   2.0e-06 RMAX=   1.3e-05
LMP2-Iter=   7:  ELMP2= -1.417871916092  DE=   4.9e-08 RMAX=   1.6e-06
LMP2-Iter=   8:  ELMP2= -1.417871978248  DE=   6.2e-08 RMAX=   3.1e-07
LMP2-Iter=   9:  ELMP2= -1.417871978517  DE=   2.7e-10 RMAX=   7.3e-08 => CONVERGED
PASS-2: Formation of Pair natural orbitals
   .... Finished loop over pairs

 PNO Occupation Number Statistics: 
  | Av. % of trace(Dij) retained        ...  99.421831456700
  | sigma^2 in % of trace(Dij) retained ...   4.49e-01
  | Av. % of trace(Di) retained         ...  99.999715427831
  | sigma^2 in % of trace(Di) retained  ...   6.20e-09
 Distributions of % trace(Dij) recovered:
  |       >= 99.9  ...    72 ( 26.1 % of all pairs)
  |   [90.0, 99.0) ...    52 ( 18.8 % of all pairs)
  |   [99.0, 99.9) ...   152 ( 55.1 % of all pairs)
 Distributions of % trace(Di) recovered :
  |       >= 99.9  ...    23 (100.0 % of all I-pairs )

Making pair pair interaction lists          ... done

                       ===========================
                        276 OF  276 PAIRS ARE KEPT
                       ===========================

Total time spent in the initial guess                 ...    28.530 sec
L-MP2 correlation energy (all non-screened pairs)     ...      -1.417871978517 Eh
L-MP2 PNO error correction                            ...      -0.000037320719 Eh
                                                          --------------------
Initial total L-MP2 energy (non-screened pairs)       ...      -1.417909299235 Eh

Initial PNO correlation energy                        ...      -1.416399019053 Eh
sum of pair energies estimated for screened out pairs ...       0.000000000000 Eh
sum of MP2 pair energies for pairs that were not kept ...       0.000000000000 Eh
sum of PNO error estimates for the kept pairs         ...      -0.001510280183 Eh
                                                          --------------------
sum of all corrections                                         -0.001510280183
Initial total correlation energy                               -1.417909299235
Thresholds for map construction and integral transformation for fine MP2 and CCSD(T) calculation:
   TCutMKN   ...     1.0e-03
   TCutDO    ...     5.0e-03
   TCutPairs ...     1.0e-05
   TCutCMO   ...     1.0e-03
   TCutCPAO  ...     1.0e-03

Time for aux screen maps:            0.006
Time for maps after fine MP2:            0.021
-----------------------------
LOCAL RI TRANSFORMATION (IJV)
-----------------------------

Orbital window:       8 to 30
Basis functions:    408 (152 shells)
Aux. functions:    1008 (304 shells)

Processing maps (0.0 sec)
Average map sizes:
   Aux shells -> MOs(i)           23.0
   Aux shells -> MOs(j)           23.0
   MOs        -> AO shells       149.0

Calculating integrals (0.9 sec, 4.080 MB)
Sorting integrals (0.0 sec, 4.069 MB)
Total time for the integral transformation: 0.9 sec
--------------------------------
LOCAL RI TRANSFORMATION (VABPAO)
--------------------------------

Number of PAOs:     408
Basis functions:    408 (152 shells)
Aux. functions:    1008 (304 shells)

Processing maps (0.0 sec)
Average map sizes:
   Aux shells -> PAOs            408.0
   PAOs       -> AO shells       152.0

Calculating integrals (3.4 sec, 2407.979 MB)
Finished


-------------------------------------
Pair Pair Term precalculation with     
RI-(ij|mn) and (im|jn) transformation  
ON THE FLY                             
-------------------------------------

   IBatch   1 (of   2)              ... done (   63.815 sec)
   IBatch   2 (of   2)              ... done (   44.710 sec)
Total EXT                           ...         108.525 sec

---------------------
RI-PNO TRANSFORMATION
---------------------

Total Number of PNOs                   ... 10884
Average number of PNOs per pair        ...    39
Maximal number of PNOs per pair        ...    71
   #pairs with  1 -  5 PNOs   :    0
   #pairs with  6 - 10 PNOs   :    9
   #pairs with 11 - 15 PNOs   :   20
   #pairs with 16 - 20 PNOs   :   24
   #pairs with 21 - 25 PNOs   :   28
   #pairs with 26 - 30 PNOs   :   31
   #pairs with 31 - 35 PNOs   :   12
   #pairs with 36 - 40 PNOs   :   15
   #pairs with 41 - 45 PNOs   :   13
   #pairs with 46 - 50 PNOs   :   38
   #pairs with 51 - 55 PNOs   :   37
   #pairs with 56 - 60 PNOs   :    1
   #pairs with 61 - 65 PNOs   :   13
   #pairs with 66 - 70 PNOs   :   29
   #pairs with 71 - 75 PNOs   :    6

Generation of (ij|ab)[P] integrals            ... on
Generation of (ia|bc)[P],(ja|bc)[P] integrals ... on
Storage of 3 and 4 external integrals         ... on
Generation of ALL (ka|bc)[P] integrals        ... on
Keep RI integrals in memory                   ... off

Ibatch:  1 (of  1)
Starting 2-4 index PNO integral generation ... done

Timings:
Total PNO integral transformation time     ...         59.916 sec
Size of the 3-external file                ...       216 MB
Size of the 4-external file                ...      1576 MB
Size of the IKJL file                      ...         0 MB
Size of the all 3-external file            ...      2492 MB
Size of the 1-external file                ...         5 MB

Making pair/pair overlap matrices          ... done (    6.375 sec)
Size of the pair overlap file              ... 641 MB
Redoing the guess amplitudes               ... done (    0.004 sec)

-------------------------
FINAL STARTUP INFORMATION
-------------------------

E(0)                                       ...   -347.054669957
E(L-MP2)                                   ...     -1.417909299
E(L-MP2) including corrections             ...     -1.417909299
Initial E(tot)                             ...   -348.472579257
<T|T>                                      ...      0.390300669
Number of pairs included                   ... 276
Total number of pairs                      ... 276

------------------------------------------------
                  RHF COUPLED CLUSTER ITERATIONS
------------------------------------------------

Number of PNO amplitudes to be optimized   ...       520874
Number of non-PNO amplitudes               ...     39227604
Untruncated number of regular amplitudes   ...     39227604

Iter       E(tot)           E(Corr)          Delta-E          Residual     Time
  0   -348.426609577     -1.370429339      0.047479960      0.016009528   15.73
                           *** Turning on DIIS ***
  1   -348.484974567     -1.428794329     -0.058364990      0.014259764   15.93
  2   -348.521590900     -1.465410663     -0.036616334      0.007347463   17.24
  3   -348.529075235     -1.472894997     -0.007484334      0.004608128   16.55
  4   -348.531003135     -1.474822897     -0.001927900      0.002366036   19.03
  5   -348.531555073     -1.475374835     -0.000551938      0.001124117   17.60
  6   -348.531718588     -1.475538351     -0.000163516      0.000460845   17.04
  7   -348.531743079     -1.475562842     -0.000024491      0.000180279   16.70
  8   -348.531737953     -1.475557716      0.000005126      0.000065549   16.56
  9   -348.531733736     -1.475553498      0.000004218      0.000021989   16.61
 10   -348.531733326     -1.475553088      0.000000410      0.000005702   17.80
               --- The Coupled-Cluster iterations have converged ---

----------------------
COUPLED CLUSTER ENERGY
----------------------

E(0)                                       ...   -347.054669957
E(CORR)(strong-pairs)                      ...     -1.475553088
E(CORR)(weak-pairs)                        ...     -0.001510280
E(CORR)(corrected)                         ...     -1.477063369
E(TOT)                                     ...   -348.531733326
Singles Norm <S|S>**1/2                    ...      0.077344491  
T1 diagnostic                              ...      0.011403823  

------------------
LARGEST AMPLITUDES
------------------
  17-> 31  17-> 31       0.056608
  16-> 31  16-> 31       0.054626
  17-> 31  16-> 31       0.047062
  30-> 38  30-> 38       0.034945
  25-> 37  25-> 37       0.031395
  26-> 37  26-> 37       0.031092
  21-> 37  21-> 37       0.030748
  17-> 31  -1-> -1       0.030580
  15-> 41  15-> 41       0.030339
  16-> 31  -1-> -1       0.030254
  13-> 41  13-> 41       0.030239
  20-> 38  20-> 38       0.028861
  30-> 31  30-> 31       0.028755
  23-> 31  23-> 31       0.028704
  23-> 37  23-> 37       0.028639
  22-> 31  22-> 31       0.028391


-------------------------------------------
DLPNO BASED TRIPLES CORRECTION
-------------------------------------------

Singles multiplier          ...  1.000000
TCutTNO                     ... 1.000e-09
TCutMP2Pairs                ... 1.000e-06
TCutDOStrong                ... 1.000e-02
TCutMKNStrong               ... 1.000e-02
TCutDOWeak                  ... 2.000e-02
TCutMKNWeak                 ... 1.000e-01

Fragment selection                          .... not used
Number of Triples that are to be computed   ...      2277

 . . . . . . . . .
10% done  
20% done  
30% done  
40% done  
50% done  
60% done  
70% done  
80% done  
90% done               (    429.307 sec)
Triples timings:
Total time for T0               ...   457.031 sec
Total time for Iterative (T)    ...     0.000 sec
Total time of overall (T)       ...   459.842 sec

Triples List generation         ...     0.000 sec
TNO generation                  ...    27.712 sec
Pair density generation         ...     0.006 sec
Look up tables                  ...     0.000 sec
Generating 3-index integrals    ...   333.250 sec
  Make 4-ind.int. from 3-ind.int...    28.185 sec
  Projecting amplitudes (D + S) ...    33.289 sec
  Downprojecting integrals      ...     0.004 sec
  Energy contr. (sum over a,b,c)...     9.493 sec
Fitting ET(->0)                 ...     0.000 sec

Everything after 3-index        ...    96.057 sec

Timing details:
 TNO integrals                  ...   358.733 sec
   Reading 3-index integrals    ...     0.635 sec
   Sorting integrals            ...    33.883 sec
       Sorting integrals 1      ...     0.003 sec
       Sorting integrals 2      ...    22.911 sec
       Sorting integrals 3      ...     0.823 sec
       Sorting integrals 4      ...     0.062 sec
       Sorting integrals 5      ...     0.347 sec
       Sorting integrals 6      ...     9.737 sec
   Calculating local VM**-1/2   ...     1.036 sec
   Orthogonal. integrals        ...     1.541 sec
   Multipl. 3-index integrals   ...   321.637 sec
   All concerning IRIab (w/TNO) ...    15.076 sec

 Calculate W0/W1                ...    25.077 sec
 W 3-ext contribution           ...    13.669 sec
 W 3-int contribution           ...     4.000 sec
 Sorting W                      ...     7.051 sec

 V exchange contribution        ...     3.248 sec

 Timings for Triples without generation
     of 3-index integrals       ...    96.055 sec
       0 weak pairs             ...    96.055 sec
       1 weak pair              ...     0.000 sec
       2 weak pairs             ...     0.000 sec
       3 weak pairs             ...     0.000 sec
  Extra time for extrapolation  ...     0.000 sec

Number of Triples   (0, 1, 2, 3 weak pairs; overall):   2277       0       0       0  (  2277)
Number of Atoms     (0, 1, 2, 3 weak pairs; overall):   19.0     0.0     0.0     0.0  (    20)
Number of PAOs      (0, 1, 2, 3 weak pairs; overall):  393.4     0.0     0.0     0.0  (   408)
Number of AuxFcns   (0, 1, 2, 3 weak pairs; overall):  449.2     0.0     0.0     0.0  (  1008)
Number of TNOs      (0, 1, 2, 3 weak pairs         ):   98.2     0.0     0.0     0.0
Aver. Number of NTNO, Atoms, PAOs, AuxFcns / Triples:   2277    98.2    19.0   393.4   449.2

Triples Correction (T)                     ...     -0.061403154
Final correlation energy                   ...     -1.538466522
E(CCSD)                                    ...   -348.531733326
E(CCSD(T))                                 ...   -348.593136480


Maximum memory used throughout the entire calculation: 7691.1 MB


------------------------------------------------------------------------------- 
                                     TIMINGS                                   
------------------------------------------------------------------------------- 


Total execution time                   ...      881.221 sec

Localization of occupied MO's          ...        0.676 sec (  0.1%)
Fock Matrix Formation                  ...        4.848 sec (  0.6%)
Global overlap, Fock, MKN matrices     ...        0.234 sec (  0.0%)
Differential overlap integrals         ...        0.167 sec (  0.0%)
Organizing maps                        ...        0.063 sec (  0.0%)
RI 3-index integral generations        ...        6.553 sec (  0.7%)
RI-PNO integral transformation         ...      188.119 sec ( 21.3%)
Initial Guess                          ...       32.873 sec (  3.7%)
DIIS Solver                            ...        2.531 sec (  0.3%)
State Vector Update                    ...        0.046 sec (  0.0%)
Sigma-vector construction              ...      186.325 sec ( 21.1%)
  <D|H|D>(0-ext)                       ...        5.113 sec (  2.7% of sigma)
  <D|H|D>(2-ext Fock)                  ...        0.018 sec (  0.0% of sigma)
  <D|H|D>(2-ext)                       ...       31.277 sec ( 16.8% of sigma)
  <D|H|D>(4-ext)                       ...       18.132 sec (  9.7% of sigma)
  <D|H|D>(4-ext-corr)                  ...       90.738 sec ( 48.7% of sigma)
  CCSD doubles correction              ...        0.311 sec (  0.2% of sigma)
  <S|H|S>                              ...        0.676 sec (  0.4% of sigma)
  <S|H|D>(1-ext)                       ...        0.676 sec (  0.4% of sigma)
  <D|H|S>(1-ext)                       ...        0.017 sec (  0.0% of sigma)
  <S|H|D>(3-ext)                       ...        0.682 sec (  0.4% of sigma)
  Fock-dressing                        ...       27.133 sec ( 14.6% of sigma)
  Singles amplitudes                   ...        0.797 sec (  0.4% of sigma)
  (ik|jl)-dressing                     ...        3.788 sec (  2.0% of sigma)
  (ij|ab),(ia|jb)-dressing             ...        3.296 sec (  1.8% of sigma)
  Pair energies                        ...        0.010 sec (  0.0% of sigma)
Total Time for computing (T)           ...      459.936 sec ( 52.2% of ALL)


-------------------------   --------------------
FINAL SINGLE POINT ENERGY      -348.593136479796
-------------------------   --------------------


                            ***************************************
                            *     ORCA property calculations      *
                            ***************************************

                                    ---------------------
                                    Active property flags
                                    ---------------------
   (+) Dipole Moment


------------------------------------------------------------------------------
                       ORCA ELECTRIC PROPERTIES CALCULATION
------------------------------------------------------------------------------

Dipole Moment Calculation                       ... on
Quadrupole Moment Calculation                   ... off
Polarizability Calculation                      ... off
GBWName                                         ... 2_methylcyclohexanone_ax.gbw
Electron density file                           ... 2_methylcyclohexanone_ax.scfp.tmp
The origin for moment calculation is the CENTER OF MASS  = ( 0.086842, -0.081009 -0.042496)

-------------
DIPOLE MOMENT
-------------
                                X             Y             Z
Electronic contribution:      4.28405      -4.26401      -2.20486
Nuclear contribution   :     -5.38409       5.02242       2.63486
                        -----------------------------------------
Total Dipole Moment    :     -1.10004       0.75841       0.43000
                        -----------------------------------------
Magnitude (a.u.)       :      1.40363
Magnitude (Debye)      :      3.56774



--------------------
Rotational spectrum 
--------------------
 
Rotational constants in cm-1:     0.083831     0.069888     0.048204 
Rotational constants in MHz :  2513.192376  2095.196921  1445.115568 

 Dipole components along the rotational axes: 
x,y,z [a.u.] :     1.237637     0.528773     0.398524 
x,y,z [Debye]:     3.145824     1.344035     1.012967 

 

Timings for individual modules:

Sum of individual times         ...      910.102 sec (=  15.168 min)
GTO integral calculation        ...        0.775 sec (=   0.013 min)   0.1 %
SCF iterations                  ...       26.501 sec (=   0.442 min)   2.9 %
MDCI module                     ...      882.825 sec (=  14.714 min)  97.0 %
                             ****ORCA TERMINATED NORMALLY****
TOTAL RUN TIME: 0 days 0 hours 15 minutes 10 seconds 425 msec
2_methylcyclohexanone_ax.gbw -> /home1/pantazis/klk/xyz_1/Oxygen_compounds/2_methylcyclohexanone_ax.gbw
2_methylcyclohexanone_ax.job -> /home1/pantazis/klk/xyz_1/Oxygen_compounds/2_methylcyclohexanone_ax.job
2_methylcyclohexanone_ax.loc -> /home1/pantazis/klk/xyz_1/Oxygen_compounds/2_methylcyclohexanone_ax.loc
2_methylcyclohexanone_ax.nodes -> /home1/pantazis/klk/xyz_1/Oxygen_compounds/2_methylcyclohexanone_ax.nodes
2_methylcyclohexanone_ax.prop -> /home1/pantazis/klk/xyz_1/Oxygen_compounds/2_methylcyclohexanone_ax.prop
2_methylcyclohexanone_ax_property.txt -> /home1/pantazis/klk/xyz_1/Oxygen_compounds/2_methylcyclohexanone_ax_property.txt
2_methylcyclohexanone_ax.xyz -> /home1/pantazis/klk/xyz_1/Oxygen_compounds/2_methylcyclohexanone_ax.xyz
cp: cannot stat 2_methylcyclohexanone_ax.asa.inp: No such file or directory
