! Job execution by suborca V 6.07 on ZEUS !
Job started from zeus1, running /scratch/pantazis/2_methoxytetrahydropyran_ax__scNhsx/orca/orca copied from /opt/orca on zeussn124 in /scratch/pantazis/2_methoxytetrahydropyran_ax__scNhsx
Job execution start: Thu Jun 27 13:11:24 CEST 2019
Shared library path: /scratch/pantazis/2_methoxytetrahydropyran_ax__scNhsx/orca:/opt/openmpi_1.10.2/lib:/opt/intel/mkl/lib/intel64:/opt/intel/lib/intel64:
PBS Job ID is: 158109.icqc
izeussn124
izeussn124
izeussn124
izeussn124
izeussn124
izeussn124
izeussn124
izeussn124

                                 *****************
                                 * O   R   C   A *
                                 *****************

           --- An Ab Initio, DFT and Semiempirical electronic structure package ---

                  #######################################################
                  #                        -***-                        #
                  #          Department of theory and spectroscopy      #
                  #               Directorship: Frank Neese             #
                  #        Max Planck Institute fuer Kohlenforschung    #
                  #                Kaiser Wilhelm Platz 1               #
                  #                 D-45470 Muelheim/Ruhr               #
                  #                      Germany                        #
                  #                                                     #
                  #                  All rights reserved                #
                  #                        -***-                        #
                  #######################################################


                         Program Version 4.1.x  -  STABLE  -
                                (SVN: $Rev: 14094$)
                ($Date: 2019-06-14 15:01:15 +0200 (Fri, 14 Jun 2019) $)

                         (BUILD: $Sun Jun 23 06:18:31 CEST 2019$)


 With contributions from (in alphabetic order):
   Daniel Aravena         : Magnetic Properties
   Michael Atanasov       : Ab Initio Ligand Field Theory
   Alexander A. Auer      : GIAO ZORA
   Ute Becker             : Parallelization
   Giovanni Bistoni       : ED, Open-shell LED
   Martin Brehm           : Molecular dynamics
   Dmytro Bykov           : SCF Hessian
   Vijay G. Chilkuri      : MRCI spin determinant printing
   Dipayan Datta          : RHF DLPNO-CCSD density
   Achintya Kumar Dutta   : EOM-CC, STEOM-CC
   Dmitry Ganyushin       : Spin-Orbit,Spin-Spin,Magnetic field MRCI
   Miquel Garcia          : C-PCM Hessian
   Yang Guo               : DLPNO-NEVPT2, CIM, IAO-localization
   Andreas Hansen         : Spin unrestricted coupled pair/coupled cluster methods
   Benjamin Helmich-Paris : CASSCF linear response (MC-RPA)
   Lee Huntington         : MR-EOM, pCC
   Robert Izsak           : Overlap fitted RIJCOSX, COSX-SCS-MP3, EOM
   Christian Kollmar      : KDIIS, OOCD, Brueckner-CCSD(T), CCSD density
   Simone Kossmann        : Meta GGA functionals, TD-DFT gradient, OOMP2, MP2 Hessian
   Martin Krupicka        : AUTO-CI
   Lucas Lang             : DCDCAS
   Dagmar Lenk            : GEPOL surface, SMD
   Dimitrios Liakos       : Extrapolation schemes; parallel MDCI
   Dimitrios Manganas     : ROCIS; embedding schemes
   Dimitrios Pantazis     : SARC Basis sets
   Taras Petrenko         : DFT Hessian,TD-DFT gradient, ASA, ECA, R-Raman, ABS, FL, XAS/XES, NRVS
   Peter Pinski           : DLPNO-MP2, DLPNO-MP2 Gradient
   Christoph Reimann      : Effective Core Potentials
   Marius Retegan         : Local ZFS, SOC
   Christoph Riplinger    : Optimizer, TS searches, QM/MM, DLPNO-CCSD(T), (RO)-DLPNO pert. Triples
   Tobias Risthaus        : Range-separated hybrids, TD-DFT gradient, RPA, STAB
   Michael Roemelt        : Restricted open shell CIS
   Masaaki Saitow         : Open-shell DLPNO
   Barbara Sandhoefer     : DKH picture change effects
   Avijit Sen             : IP-ROCIS
   Kantharuban Sivalingam : CASSCF convergence, NEVPT2, FIC-MRCI
   Bernardo de Souza      : ESD, SOC TD-DFT
   Georgi Stoychev        : AutoAux, RI-MP2 NMR
   Willem Van den Heuvel  : Paramagnetic NMR
   Boris Wezisla          : Elementary symmetry handling
   Frank Wennmohs         : Technical directorship


 We gratefully acknowledge several colleagues who have allowed us to
 interface, adapt or use parts of their codes:
   Stefan Grimme, W. Hujo, H. Kruse,             : VdW corrections, initial TS optimization,
                  C. Bannwarth                     DFT functionals, gCP, sTDA/sTD-DF
   Ed Valeev                                     : LibInt (2-el integral package), F12 methods
   Garnet Chan, S. Sharma, J. Yang, R. Olivares  : DMRG
   Ulf Ekstrom                                   : XCFun DFT Library
   Mihaly Kallay                                 : mrcc  (arbitrary order and MRCC methods)
   Andreas Klamt, Michael Diedenhofen            : otool_cosmo (COSMO solvation model)
   Jiri Pittner, Ondrej Demel                    : Mk-CCSD
   Frank Weinhold                                : gennbo (NPA and NBO analysis)
   Christopher J. Cramer and Donald G. Truhlar   : smd solvation model
   Lars Goerigk                                  : TD-DFT with DH, B97 family of functionals
   V. Asgeirsson, H. Jonsson                     : NEB implementation
   FAccTs GmbH                                   : IRC, NEB, NEB-TS, Multilevel


 Your calculation uses the libint2 library for the computation of 2-el integrals
 For citations please refer to: http://libint.valeyev.net

 This ORCA versions uses:
   CBLAS   interface :  Fast vector & matrix operations
   LAPACKE interface :  Fast linear algebra routines
   SCALAPACK package :  Parallel linear algebra routines




***************************************
The coordinates will be read from file: 2_methoxytetrahydropyran_ax.xyz
***************************************


----- Orbital basis set information -----
Your calculation utilizes the basis: cc-pVTZ 
       H, B-Ne : Obtained from the ccRepo (grant-hill.group.shef.ac.uk/ccrepo) Feb. 2017
                 T. H. Dunning, Jr., J. Chem. Phys. 90, 1007 (1989)
            He : Obtained from the ccRepo (grant-hill.group.shef.ac.uk/ccrepo) Feb. 2017
                 D. E. Woon, T. H. Dunning, Jr., J. Chem. Phys. 100, 2975 (1994)
  Li-Be, Na-Mg : Obtained from the ccRepo (grant-hill.group.shef.ac.uk/ccrepo) Feb. 2017
                 B. P. Prascher, D. E. Woon, K. A. Peterson, T. H. Dunning, Jr., A. K. Wilson, Theor. Chem. Acc. 128, 69 (2011)
         Al-Ar : Obtained from the ccRepo (grant-hill.group.shef.ac.uk/ccrepo) Feb. 2017
                 D. E. Woon, T. H. Dunning, Jr., J. Chem. Phys. 98, 1358 (1993)
            Ca : Obtained from the Peterson Research Group Website (tyr0.chem.wsu.edu/~kipeters) Feb. 2017
                 J. Koput, K. A. Peterson, J. Phys. Chem. 106, 9595 (2002)
         Sc-Zn : Obtained from the ccRepo (grant-hill.group.shef.ac.uk/ccrepo) Feb. 2017
                 N. B. Balabanov, K. A. Peterson, J. Chem. Phys. 123, 064107 (2005)
                 N. B. Balabanov, K. A. Peterson, J. Chem. Phys. 125, 074110 (2006)
         Ga-Kr : Obtained from the ccRepo (grant-hill.group.shef.ac.uk/ccrepo) Feb. 2017
                 A. K. Wilson, D. E. Woon, K. A. Peterson, T. H. Dunning, Jr., J. Chem. Phys. 110, 7667 (1999)
             Y : Obtained from the ccRepo (grant-hill.group.shef.ac.uk/ccrepo) Feb. 2017
                 K. A. Peterson, D. Figgen, M. Dolg, H. Stoll, J. Chem. Phys. 126, 124101 (2007)
        Ag, Au : Obtained from the Peterson Research Group Website (tyr0.chem.wsu.edu/~kipeters) Feb. 2017
                 K. A. Peterson, C. Puzzarini, Theor. Chem. Acc. 114, 283 (2005)

----- AuxC basis set information -----
Your calculation utilizes the auxiliary basis: cc-pVTZ/C 
  Obtained from the EMSL Basis Set Exchange (bse.pnl.gov) Feb. 2017
  H-He, B-F, Al-Ar, Ga-Kr : F. Weigend, A. Kohn, C. Hattig, J. Chem. Phys. 116, 3175 (2002)
             Li-Be, Na-Mg : C. Haettig, Phys. Chem. Chem. Phys. 7, 59 (2005)
                       Ne : C. Haettig, Phys. Chem. Chem. Phys. 7, 59 (2005)
                            F. Weigend, A. Kohn, C. Hattig, J. Chem. Phys. 116, 3175 (2002)
                    Sc-Zn : J. G. Hill, J. A. Platts, J. Chem. Phys. 128, 044104 (2008)

----- AuxJK basis set information -----
Your calculation utilizes the auxiliary basis: cc-pVTZ/JK 
  H, B-F, Al-Cl, Ga-Br : Obtained from the TURBOMOLE 7.0 basis set library

================================================================================
                                        WARNINGS
                       Please study these warnings very carefully!
================================================================================


WARNING: MDCI localization with Augmented Hessian Foster-Boys
  ===> : Switching off randomization!

WARNING: Post HF methods need fully converged wavefunctions
  ===> : Setting SCFConvForced true
         You can overwrite this default with %scf ConvForced false 


INFO   : the flag for use of LIBINT has been found!

================================================================================
                                       INPUT FILE
================================================================================
NAME = 2_methoxytetrahydropyran_ax.inp
|  1> ! RHF DLPNO-CCSD(T) cc-pVTZ RIJK cc-pVTZ/JK cc-pVTZ/C
|  2> ! KDIIS SOSCF TightSCF TightPNO
|  3> 
|  4> %pal nprocs 8 end
|  5> 
|  6> %maxcore 8000
|  7> 
|  8> %scf maxiter 300
|  9>      shift shift 0.2 erroff 0.1 end
| 10> end
| 11> 
| 12> * xyzfile 0 1 2_methoxytetrahydropyran_ax.xyz 
| 13> 
| 14> 
| 15>                          ****END OF INPUT****
================================================================================

                       ****************************
                       * Single Point Calculation *
                       ****************************

---------------------------------
CARTESIAN COORDINATES (ANGSTROEM)
---------------------------------
  C      0.571070   -0.409750    0.650040
  O      0.123590    0.918680    0.882000
  C     -0.767530    1.427560   -0.124990
  C     -2.006770    0.547660   -0.280270
  C     -1.591650   -0.900680   -0.580020
  C     -0.592400   -1.387930    0.480060
  O      1.387420   -0.504330   -0.500900
  C      2.607500    0.223760   -0.410730
  H     -1.025330    2.436230    0.208720
  H     -0.233380    1.505540   -1.082630
  H     -2.640800    0.949470   -1.080640
  H     -2.591070    0.584790    0.648840
  H     -1.126190   -0.952750   -1.571800
  H     -2.467820   -1.559070   -0.601400
  H     -0.190180   -2.374210    0.226660
  H     -1.094190   -1.472900    1.451920
  H      1.166650   -0.645630    1.543680
  H      3.158750    0.025540   -1.332230
  H      2.429220    1.300710   -0.312540
  H      3.204970   -0.116220    0.448050

----------------------------
CARTESIAN COORDINATES (A.U.)
----------------------------
  NO LB      ZA    FRAG     MASS         X           Y           Z
   0 C     6.0000    0    12.011    1.079166   -0.774315    1.228398
   1 O     8.0000    0    15.999    0.233551    1.736054    1.666738
   2 C     6.0000    0    12.011   -1.450421    2.697697   -0.236197
   3 C     6.0000    0    12.011   -3.792246    1.034927   -0.529634
   4 C     6.0000    0    12.011   -3.007783   -1.702039   -1.096079
   5 C     6.0000    0    12.011   -1.119474   -2.622808    0.907182
   6 O     8.0000    0    15.999    2.621844   -0.953046   -0.946564
   7 C     6.0000    0    12.011    4.927461    0.422845   -0.776167
   8 H     1.0000    0     1.008   -1.937593    4.603807    0.394424
   9 H     1.0000    0     1.008   -0.441024    2.845058   -2.045874
  10 H     1.0000    0     1.008   -4.990389    1.794238   -2.042114
  11 H     1.0000    0     1.008   -4.896413    1.105093    1.226130
  12 H     1.0000    0     1.008   -2.128191   -1.800437   -2.970272
  13 H     1.0000    0     1.008   -4.663504   -2.946215   -1.136481
  14 H     1.0000    0     1.008   -0.359388   -4.486607    0.428325
  15 H     1.0000    0     1.008   -2.067719   -2.783378    2.743731
  16 H     1.0000    0     1.008    2.204649   -1.220064    2.917132
  17 H     1.0000    0     1.008    5.969172    0.048264   -2.517550
  18 H     1.0000    0     1.008    4.590561    2.457986   -0.590615
  19 H     1.0000    0     1.008    6.056516   -0.219624    0.846692

--------------------------------
INTERNAL COORDINATES (ANGSTROEM)
--------------------------------
 C      0   0   0     0.000000000000     0.00000000     0.00000000
 O      1   0   0     1.420834281998     0.00000000     0.00000000
 C      2   1   0     1.437735222111   114.31704085     0.00000000
 C      3   2   1     1.527760343117   111.72131564    57.72861287
 C      4   3   2     1.536184699995   110.09905678   304.30619194
 C      1   2   3     1.529507029634   112.11824454   304.48583929
 O      1   2   3     1.414226142631   112.15963562    65.95512070
 C      7   1   2     1.423671620634   114.13864219    63.82245853
 H      3   2   1     1.093269579290   105.00603764   179.08664306
 H      3   2   1     1.099304995213   109.51691064   295.25790829
 H      4   3   2     1.097286404682   109.38595412   182.02403067
 H      4   3   2     1.098194208235   109.03301833    64.97344251
 H      5   4   3     1.096809858134   109.62598027   292.63372569
 H      5   4   3     1.096178984199   110.73773984   174.74897836
 H      6   1   2     1.094870187191   108.80692189   175.57641993
 H      6   1   2     1.097052854059   107.39861482   291.83853093
 H      1   2   3     1.099521423347   103.79718665   184.10858541
 H      8   7   1     1.091938634219   106.63981550   177.13365423
 H      8   7   1     1.096013839785   111.64132447   296.86717354
 H      8   7   1     1.100027222254   110.90712708    58.36806364

---------------------------
INTERNAL COORDINATES (A.U.)
---------------------------
 C      0   0   0     0.000000000000     0.00000000     0.00000000
 O      1   0   0     2.684987674662     0.00000000     0.00000000
 C      2   1   0     2.716925822883   114.31704085     0.00000000
 C      3   2   1     2.887048646756   111.72131564    57.72861287
 C      4   3   2     2.902968374111   110.09905678   304.30619194
 C      1   2   3     2.890349405916   112.11824454   304.48583929
 O      1   2   3     2.672500101004   112.15963562    65.95512070
 C      7   1   2     2.690349467635   114.13864219    63.82245853
 H      3   2   1     2.065980095405   105.00603764   179.08664306
 H      3   2   1     2.077385378604   109.51691064   295.25790829
 H      4   3   2     2.073570795324   109.38595412   182.02403067
 H      4   3   2     2.075286295422   109.03301833    64.97344251
 H      5   4   3     2.072670252858   109.62598027   292.63372569
 H      5   4   3     2.071478073896   110.73773984   174.74897836
 H      6   1   2     2.069004805986   108.80692189   175.57641993
 H      6   1   2     2.073129448609   107.39861482   291.83853093
 H      1   2   3     2.077794368506   103.79718665   184.10858541
 H      8   7   1     2.063464973722   106.63981550   177.13365423
 H      8   7   1     2.071165996181   111.64132447   296.86717354
 H      8   7   1     2.078750189918   110.90712708    58.36806364

---------------------
BASIS SET INFORMATION
---------------------
There are 3 groups of distinct atoms

 Group   1 Type C   : 18s5p2d1f contracted to 4s3p2d1f pattern {8811/311/11/1}
 Group   2 Type O   : 18s5p2d1f contracted to 4s3p2d1f pattern {8811/311/11/1}
 Group   3 Type H   : 5s2p1d contracted to 3s2p1d pattern {311/11/1}

Atom   0C    basis set group =>   1
Atom   1O    basis set group =>   2
Atom   2C    basis set group =>   1
Atom   3C    basis set group =>   1
Atom   4C    basis set group =>   1
Atom   5C    basis set group =>   1
Atom   6O    basis set group =>   2
Atom   7C    basis set group =>   1
Atom   8H    basis set group =>   3
Atom   9H    basis set group =>   3
Atom  10H    basis set group =>   3
Atom  11H    basis set group =>   3
Atom  12H    basis set group =>   3
Atom  13H    basis set group =>   3
Atom  14H    basis set group =>   3
Atom  15H    basis set group =>   3
Atom  16H    basis set group =>   3
Atom  17H    basis set group =>   3
Atom  18H    basis set group =>   3
Atom  19H    basis set group =>   3
-------------------------------
AUXILIARY BASIS SET INFORMATION
-------------------------------
There are 3 groups of distinct atoms

 Group   1 Type C   : 8s6p5d3f1g contracted to 8s6p5d3f1g pattern {11111111/111111/11111/111/1}
 Group   2 Type O   : 8s6p5d3f1g contracted to 8s6p5d3f1g pattern {11111111/111111/11111/111/1}
 Group   3 Type H   : 4s3p2d1f contracted to 4s3p2d1f pattern {1111/111/11/1}

Atom   0C    basis set group =>   1
Atom   1O    basis set group =>   2
Atom   2C    basis set group =>   1
Atom   3C    basis set group =>   1
Atom   4C    basis set group =>   1
Atom   5C    basis set group =>   1
Atom   6O    basis set group =>   2
Atom   7C    basis set group =>   1
Atom   8H    basis set group =>   3
Atom   9H    basis set group =>   3
Atom  10H    basis set group =>   3
Atom  11H    basis set group =>   3
Atom  12H    basis set group =>   3
Atom  13H    basis set group =>   3
Atom  14H    basis set group =>   3
Atom  15H    basis set group =>   3
Atom  16H    basis set group =>   3
Atom  17H    basis set group =>   3
Atom  18H    basis set group =>   3
Atom  19H    basis set group =>   3
-------------------------------
AUXILIARY BASIS SET INFORMATION
-------------------------------
There are 3 groups of distinct atoms

 Group   1 Type C   : 10s7p5d2f1g contracted to 10s7p5d2f1g pattern {1111111111/1111111/11111/11/1}
 Group   2 Type O   : 10s7p5d2f1g contracted to 10s7p5d2f1g pattern {1111111111/1111111/11111/11/1}
 Group   3 Type H   : 4s3p2d1f contracted to 4s3p2d1f pattern {1111/111/11/1}

Atom   0C    basis set group =>   1
Atom   1O    basis set group =>   2
Atom   2C    basis set group =>   1
Atom   3C    basis set group =>   1
Atom   4C    basis set group =>   1
Atom   5C    basis set group =>   1
Atom   6O    basis set group =>   2
Atom   7C    basis set group =>   1
Atom   8H    basis set group =>   3
Atom   9H    basis set group =>   3
Atom  10H    basis set group =>   3
Atom  11H    basis set group =>   3
Atom  12H    basis set group =>   3
Atom  13H    basis set group =>   3
Atom  14H    basis set group =>   3
Atom  15H    basis set group =>   3
Atom  16H    basis set group =>   3
Atom  17H    basis set group =>   3
Atom  18H    basis set group =>   3
Atom  19H    basis set group =>   3


           ************************************************************
           *        Program running with 8 parallel MPI-processes     *
           *              working on a common directory               *
           ************************************************************
------------------------------------------------------------------------------
                           ORCA GTO INTEGRAL CALCULATION
                           -- RI-GTO INTEGRALS CHOSEN --
------------------------------------------------------------------------------

                         BASIS SET STATISTICS AND STARTUP INFO

Gaussian basis set:
 # of primitive gaussian shells          ...  304
 # of primitive gaussian functions       ...  592
 # of contracted shells                  ...  152
 # of contracted basis functions         ...  408
 Highest angular momentum                ...    3
 Maximum contraction depth               ...    8
Auxiliary gaussian basis set:
 # of primitive gaussian shells          ...  320
 # of primitive gaussian functions       ...  992
 # of contracted shells                  ...  320
 # of contracted aux-basis functions     ...  992
 Highest angular momentum                ...    4
 Maximum contraction depth               ...    1
Ratio of auxiliary to basis functions    ...  2.43
Integral package used                  ... LIBINT
 One Electron integrals                  ... done
 Ordering auxiliary basis shells         ... done
 Integral threshhold             Thresh  ...  2.500e-11
 Primitive cut-off               TCut    ...  2.500e-12
 Pre-screening matrix                    ... done
 Shell pair data                         ... 
 Ordering of the shell pairs             ... done (   0.002 sec) 10886 of 11628 pairs
 Determination of significant pairs      ... done (   0.000 sec)
 Creation of shell pair data             ... done (   0.002 sec)
 Storage of shell pair data              ... done (   0.002 sec)
 Shell pair data done in (   0.007 sec)
 Computing two index integrals           ... done
 Cholesky decomposition of the V-matrix  ... done


Timings:
 Total evaluation time                   ...   0.584 sec (  0.010 min)
 One electron matrix time                ...   0.129 sec (  0.002 min) = 22.1%
 Schwartz matrix evaluation time         ...   0.270 sec (  0.005 min) = 46.3%
 Two index repulsion integral time       ...   0.079 sec (  0.001 min) = 13.6%
 Cholesky decomposition of V             ...   0.073 sec (  0.001 min) = 12.4%
 Three index repulsion integral time     ...   0.000 sec (  0.000 min) =  0.0%



           ************************************************************
           *        Program running with 8 parallel MPI-processes     *
           *              working on a common directory               *
           ************************************************************
-------------------------------------------------------------------------------
                                 ORCA SCF
-------------------------------------------------------------------------------

------------
SCF SETTINGS
------------
Hamiltonian:
 Ab initio Hamiltonian  Method          .... Hartree-Fock(GTOs)
 RI-approximation to the Coulomb term is turned on
   Number of auxiliary basis functions  .... 992
   RI-JK (J+K treated both via RI)      .... on


General Settings:
 Integral files         IntName         .... 2_methoxytetrahydropyran_ax
 Hartree-Fock type      HFTyp           .... RHF
 Total Charge           Charge          ....    0
 Multiplicity           Mult            ....    1
 Number of Electrons    NEL             ....   64
 Basis Dimension        Dim             ....  408
 Nuclear Repulsion      ENuc            ....    422.7714262656 Eh

Convergence Acceleration:
 DIIS                   CNVDIIS         .... off
 Newton-Raphson         CNVNR           .... off
 SOSCF                  CNVSOSCF        .... on
   Start iteration      SOSCFMaxIt      ....   150
   Startup grad/error   SOSCFStart      ....  0.003300
 Level Shifting         CNVShift        .... on
   Level shift para.    LevelShift      ....    0.2000
   Turn off err/grad.   ShiftErr        ....    0.1000
 Zerner damping         CNVZerner       .... off
 Static damping         CNVDamp         .... off
 Fernandez-Rico         CNVRico         .... off

SCF Procedure:
 Maximum # iterations   MaxIter         ....   300
 SCF integral mode      SCFMode         .... Direct
   Integral package                     .... LIBINT
 Reset frequency        DirectResetFreq ....    20
 Integral Threshold     Thresh          ....  2.500e-11 Eh
 Primitive CutOff       TCut            ....  2.500e-12 Eh

Convergence Tolerance:
 Convergence Check Mode ConvCheckMode   .... Total+1el-Energy
 Convergence forced     ConvForced      .... 1
 Energy Change          TolE            ....  1.000e-08 Eh
 1-El. energy change                    ....  1.000e-05 Eh
 Orbital Gradient       TolG            ....  1.000e-05
 Orbital Rotation angle TolX            ....  1.000e-05


Diagonalization of the overlap matrix:
Smallest eigenvalue                        ... 2.759e-04
Time for diagonalization                   ...    0.033 sec
Threshold for overlap eigenvalues          ... 1.000e-08
Number of eigenvalues below threshold      ... 0
Time for construction of square roots      ...    0.056 sec
Total time needed                          ...    0.090 sec

-------------------
DFT GRID GENERATION
-------------------

General Integration Accuracy     IntAcc      ...  4.340
Radial Grid Type                 RadialGrid  ... Gauss-Chebyshev
Angular Grid (max. acc.)         AngularGrid ... Lebedev-110
Angular grid pruning method      GridPruning ... 3 (G Style)
Weight generation scheme         WeightScheme... Becke
Basis function cutoff            BFCut       ...    1.0000e-11
Integration weight cutoff        WCut        ...    1.0000e-14
Grids for H and He will be reduced by one unit

# of grid points (after initial pruning)     ...  22896 (   0.0 sec)
# of grid points (after weights+screening)   ...  20884 (   0.0 sec)
nearest neighbour list constructed           ...    0.0 sec
Grid point re-assignment to atoms done       ...    0.0 sec
Grid point division into batches done        ...    0.0 sec
Reduced shell lists constructed in    0.2 sec

Total number of grid points                  ...    20884
Total number of batches                      ...      336
Average number of points per batch           ...       62
Average number of grid points per atom       ...     1044
Average number of shells per batch           ...   126.93 (83.51%)
Average number of basis functions per batch  ...   336.37 (82.44%)
Average number of large shells per batch     ...   100.77 (79.39%)
Average number of large basis fcns per batch ...   260.53 (77.45%)
Average number of aux-shells per batch       ...   126.93 (39.67%)
Average number of aux functions per batch    ...   336.37 (33.91%)
Maximum spatial batch extension              ...   9.94,  7.95, 11.19 au
Average spatial batch extension              ...   0.25,  0.24,  0.26 au

Time for grid setup =    0.179 sec

------------------------------
INITIAL GUESS: MODEL POTENTIAL
------------------------------
Loading Hartree-Fock densities                     ... done
Calculating cut-offs                               ... done
Setting up the integral package                    ... done
Initializing the effective Hamiltonian             ... done
Starting the Coulomb interaction                   ... done (   0.1 sec)
Reading the grid                                   ... done
Mapping shells                                     ... done
Starting the XC term evaluation                    ... done (   0.1 sec)
Transforming the Hamiltonian                       ... done (   0.0 sec)
Diagonalizing the Hamiltonian                      ... done (   0.0 sec)
Back transforming the eigenvectors                 ... done (   0.0 sec)
Now organizing SCF variables                       ... done
                      ------------------
                      INITIAL GUESS DONE (   0.5 sec)
                      ------------------
--------------
SCF ITERATIONS
--------------
ITER       Energy         Delta-E        Max-DP      RMS-DP      [F,P]   Gradient Norm
                             ****Turning on KDIIS(Cayley)****
  0   -383.6847289014   0.000000000000 0.00979694  0.00021329  0.1589785   0.147380735
  1   -383.7804244497  -0.095695548349 0.01811911  0.00026390  0.1457064   0.129068424
  2   -383.8684222853  -0.087997835621 0.03007893  0.00045285  0.1171855   0.104635014
  3   -383.9763845577  -0.107962272408 0.04558804  0.00071969  0.0705910   0.063905254
                      *** Initiating the SOSCF procedure ***
                           *** Shutting down KDIIS ***
                      *** Re-Reading the Fockian *** 
                      *** Removing any level shift *** 
ITER      Energy       Delta-E        Grad      Rot      Max-DP    RMS-DP
  4   -384.04455507  -0.0681705127  0.001488  0.001488  0.001592  0.000043
  5   -384.04479709  -0.0002420181  0.000591  0.000691  0.001114  0.000027
  6   -384.04482179  -0.0000247037  0.000291  0.000244  0.000542  0.000012
  7   -384.04482912  -0.0000073264  0.000039  0.000050  0.000266  0.000005
  8   -384.04482934  -0.0000002172  0.000024  0.000019  0.000109  0.000002
  9   -384.04482939  -0.0000000497  0.000006  0.000004  0.000013  0.000000
                  ***Gradient check signals convergence***
              ***Rediagonalizing the Fockian in SOSCF/NRSCF***

               *****************************************************
               *                     SUCCESS                       *
               *           SCF CONVERGED AFTER  10 CYCLES          *
               *****************************************************


----------------
TOTAL SCF ENERGY
----------------

Total Energy       :         -384.04482939 Eh          -10450.39110 eV

Components:
Nuclear Repulsion  :          422.77142627 Eh           11504.19537 eV
Electronic Energy  :         -806.81625566 Eh          -21954.58647 eV
One Electron Energy:        -1362.45484994 Eh          -37074.28129 eV
Two Electron Energy:          555.63859428 Eh           15119.69482 eV

Virial components:
Potential Energy   :         -767.38463526 Eh          -20881.59753 eV
Kinetic Energy     :          383.33980587 Eh           10431.20643 eV
Virial Ratio       :            2.00183916


---------------
SCF CONVERGENCE
---------------

  Last Energy change         ...   -4.7557e-09  Tolerance :   1.0000e-08
  Last MAX-Density change    ...    5.6993e-06  Tolerance :   1.0000e-07
  Last RMS-Density change    ...    1.4569e-07  Tolerance :   5.0000e-09
  Last Orbital Gradient      ...    1.8833e-06  Tolerance :   1.0000e-05
  Last Orbital Rotation      ...    1.7294e-06  Tolerance :   1.0000e-05

             **** THE GBW FILE WAS UPDATED (2_methoxytetrahydropyran_ax.gbw) ****
             **** DENSITY FILE WAS UPDATED (2_methoxytetrahydropyran_ax.scfp.tmp) ****
             **** ENERGY FILE WAS UPDATED (2_methoxytetrahydropyran_ax.en.tmp) ****
----------------
ORBITAL ENERGIES
----------------

  NO   OCC          E(Eh)            E(eV) 
   0   2.0000     -20.554640      -559.3202 
   1   2.0000     -20.550364      -559.2038 
   2   2.0000     -11.325503      -308.1826 
   3   2.0000     -11.269532      -306.6595 
   4   2.0000     -11.267718      -306.6102 
   5   2.0000     -11.221310      -305.3474 
   6   2.0000     -11.220706      -305.3309 
   7   2.0000     -11.220066      -305.3135 
   8   2.0000      -1.403653       -38.1953 
   9   2.0000      -1.333354       -36.2824 
  10   2.0000      -1.073199       -29.2032 
  11   2.0000      -1.022663       -27.8281 
  12   2.0000      -0.928060       -25.2538 
  13   2.0000      -0.867383       -23.6027 
  14   2.0000      -0.850368       -23.1397 
  15   2.0000      -0.754790       -20.5389 
  16   2.0000      -0.695194       -18.9172 
  17   2.0000      -0.664138       -18.0721 
  18   2.0000      -0.653408       -17.7801 
  19   2.0000      -0.627829       -17.0841 
  20   2.0000      -0.602673       -16.3996 
  21   2.0000      -0.583715       -15.8837 
  22   2.0000      -0.570965       -15.5367 
  23   2.0000      -0.543829       -14.7983 
  24   2.0000      -0.536727       -14.6051 
  25   2.0000      -0.520460       -14.1624 
  26   2.0000      -0.501800       -13.6547 
  27   2.0000      -0.478983       -13.0338 
  28   2.0000      -0.459940       -12.5156 
  29   2.0000      -0.440627       -11.9901 
  30   2.0000      -0.433178       -11.7874 
  31   2.0000      -0.412065       -11.2128 
  32   0.0000       0.141916         3.8617 
  33   0.0000       0.157186         4.2772 
  34   0.0000       0.164159         4.4670 
  35   0.0000       0.177394         4.8271 
  36   0.0000       0.195209         5.3119 
  37   0.0000       0.202499         5.5103 
  38   0.0000       0.213526         5.8103 
  39   0.0000       0.220255         5.9935 
  40   0.0000       0.228491         6.2176 
  41   0.0000       0.234489         6.3808 
  42   0.0000       0.250741         6.8230 
  43   0.0000       0.255690         6.9577 
  44   0.0000       0.279557         7.6071 
  45   0.0000       0.295182         8.0323 
  46   0.0000       0.325397         8.8545 
  47   0.0000       0.343864         9.3570 
  48   0.0000       0.352605         9.5949 
  49   0.0000       0.373186        10.1549 
  50   0.0000       0.378715        10.3054 
  51   0.0000       0.396732        10.7956 
  52   0.0000       0.398770        10.8511 
  53   0.0000       0.422262        11.4903 
  54   0.0000       0.447760        12.1842 
  55   0.0000       0.454011        12.3543 
  56   0.0000       0.465179        12.6582 
  57   0.0000       0.500280        13.6133 
  58   0.0000       0.517379        14.0786 
  59   0.0000       0.536361        14.5951 
  60   0.0000       0.543851        14.7989 
  61   0.0000       0.559690        15.2299 
  62   0.0000       0.577419        15.7124 
  63   0.0000       0.587912        15.9979 
  64   0.0000       0.591894        16.1063 
  65   0.0000       0.598869        16.2961 
  66   0.0000       0.604867        16.4593 
  67   0.0000       0.612164        16.6578 
  68   0.0000       0.615877        16.7589 
  69   0.0000       0.623130        16.9562 
  70   0.0000       0.635102        17.2820 
  71   0.0000       0.641095        17.4451 
  72   0.0000       0.647013        17.6061 
  73   0.0000       0.653159        17.7734 
  74   0.0000       0.656790        17.8722 
  75   0.0000       0.660373        17.9697 
  76   0.0000       0.679705        18.4957 
  77   0.0000       0.682588        18.5742 
  78   0.0000       0.695391        18.9225 
  79   0.0000       0.699595        19.0369 
  80   0.0000       0.711302        19.3555 
  81   0.0000       0.714709        19.4482 
  82   0.0000       0.762374        20.7453 
  83   0.0000       0.781756        21.2727 
  84   0.0000       0.797348        21.6970 
  85   0.0000       0.808731        22.0067 
  86   0.0000       0.860082        23.4040 
  87   0.0000       0.866280        23.5727 
  88   0.0000       0.919218        25.0132 
  89   0.0000       0.930154        25.3108 
  90   0.0000       0.939366        25.5615 
  91   0.0000       0.941111        25.6089 
  92   0.0000       0.959374        26.1059 
  93   0.0000       0.984489        26.7893 
  94   0.0000       0.995528        27.0897 
  95   0.0000       1.011675        27.5291 
  96   0.0000       1.046226        28.4693 
  97   0.0000       1.057976        28.7890 
  98   0.0000       1.066628        29.0244 
  99   0.0000       1.080241        29.3948 
 100   0.0000       1.101554        29.9748 
 101   0.0000       1.107218        30.1289 
 102   0.0000       1.132590        30.8193 
 103   0.0000       1.148683        31.2572 
 104   0.0000       1.154701        31.4210 
 105   0.0000       1.165128        31.7047 
 106   0.0000       1.187403        32.3109 
 107   0.0000       1.197022        32.5726 
 108   0.0000       1.209264        32.9058 
 109   0.0000       1.223047        33.2808 
 110   0.0000       1.246123        33.9087 
 111   0.0000       1.253743        34.1161 
 112   0.0000       1.273013        34.6404 
 113   0.0000       1.275418        34.7059 
 114   0.0000       1.283465        34.9249 
 115   0.0000       1.300828        35.3973 
 116   0.0000       1.312285        35.7091 
 117   0.0000       1.315255        35.7899 
 118   0.0000       1.332951        36.2714 
 119   0.0000       1.353211        36.8228 
 120   0.0000       1.361333        37.0437 
 121   0.0000       1.385006        37.6879 
 122   0.0000       1.388366        37.7794 
 123   0.0000       1.395123        37.9632 
 124   0.0000       1.400173        38.1006 
 125   0.0000       1.409523        38.3551 
 126   0.0000       1.432943        38.9924 
 127   0.0000       1.444482        39.3064 
 128   0.0000       1.462203        39.7886 
 129   0.0000       1.467619        39.9359 
 130   0.0000       1.486039        40.4372 
 131   0.0000       1.495633        40.6982 
 132   0.0000       1.508215        41.0406 
 133   0.0000       1.515866        41.2488 
 134   0.0000       1.534276        41.7498 
 135   0.0000       1.541282        41.9404 
 136   0.0000       1.552819        42.2543 
 137   0.0000       1.556204        42.3465 
 138   0.0000       1.567715        42.6597 
 139   0.0000       1.577278        42.9199 
 140   0.0000       1.595744        43.4224 
 141   0.0000       1.614716        43.9387 
 142   0.0000       1.628348        44.3096 
 143   0.0000       1.645703        44.7818 
 144   0.0000       1.658644        45.1340 
 145   0.0000       1.683651        45.8145 
 146   0.0000       1.689734        45.9800 
 147   0.0000       1.699822        46.2545 
 148   0.0000       1.714342        46.6496 
 149   0.0000       1.725862        46.9631 
 150   0.0000       1.763159        47.9780 
 151   0.0000       1.777755        48.3752 
 152   0.0000       1.785324        48.5811 
 153   0.0000       1.796305        48.8799 
 154   0.0000       1.827156        49.7194 
 155   0.0000       1.860149        50.6172 
 156   0.0000       1.875989        51.0482 
 157   0.0000       1.918957        52.2175 
 158   0.0000       1.928251        52.4704 
 159   0.0000       1.987368        54.0790 
 160   0.0000       2.057112        55.9769 
 161   0.0000       2.130264        57.9674 
 162   0.0000       2.161111        58.8068 
 163   0.0000       2.234766        60.8111 
 164   0.0000       2.275031        61.9067 
 165   0.0000       2.289436        62.2987 
 166   0.0000       2.387345        64.9630 
 167   0.0000       2.397300        65.2338 
 168   0.0000       2.406400        65.4815 
 169   0.0000       2.476315        67.3840 
 170   0.0000       2.504354        68.1469 
 171   0.0000       2.542954        69.1973 
 172   0.0000       2.580788        70.2268 
 173   0.0000       2.612878        71.1000 
 174   0.0000       2.642421        71.9039 
 175   0.0000       2.666314        72.5541 
 176   0.0000       2.679615        72.9160 
 177   0.0000       2.696553        73.3769 
 178   0.0000       2.707239        73.6677 
 179   0.0000       2.743488        74.6541 
 180   0.0000       2.760213        75.1092 
 181   0.0000       2.796436        76.0949 
 182   0.0000       2.816868        76.6509 
 183   0.0000       2.824864        76.8685 
 184   0.0000       2.858053        77.7716 
 185   0.0000       2.873579        78.1941 
 186   0.0000       2.886633        78.5493 
 187   0.0000       2.898383        78.8690 
 188   0.0000       2.927651        79.6654 
 189   0.0000       2.936666        79.9108 
 190   0.0000       2.950740        80.2937 
 191   0.0000       2.959036        80.5195 
 192   0.0000       2.978470        81.0483 
 193   0.0000       2.985520        81.2401 
 194   0.0000       2.994311        81.4793 
 195   0.0000       3.017242        82.1033 
 196   0.0000       3.032050        82.5063 
 197   0.0000       3.040571        82.7381 
 198   0.0000       3.060791        83.2884 
 199   0.0000       3.076250        83.7090 
 200   0.0000       3.096635        84.2637 
 201   0.0000       3.119284        84.8800 
 202   0.0000       3.135937        85.3332 
 203   0.0000       3.158359        85.9433 
 204   0.0000       3.171442        86.2993 
 205   0.0000       3.189467        86.7898 
 206   0.0000       3.200945        87.1021 
 207   0.0000       3.207788        87.2884 
 208   0.0000       3.230955        87.9188 
 209   0.0000       3.246029        88.3289 
 210   0.0000       3.263217        88.7967 
 211   0.0000       3.286502        89.4303 
 212   0.0000       3.299906        89.7950 
 213   0.0000       3.306796        89.9825 
 214   0.0000       3.329138        90.5905 
 215   0.0000       3.352592        91.2287 
 216   0.0000       3.356538        91.3360 
 217   0.0000       3.368354        91.6576 
 218   0.0000       3.389307        92.2277 
 219   0.0000       3.406216        92.6879 
 220   0.0000       3.413397        92.8833 
 221   0.0000       3.420036        93.0639 
 222   0.0000       3.426681        93.2447 
 223   0.0000       3.435028        93.4719 
 224   0.0000       3.439825        93.6024 
 225   0.0000       3.452556        93.9488 
 226   0.0000       3.466068        94.3165 
 227   0.0000       3.480206        94.7012 
 228   0.0000       3.494982        95.1033 
 229   0.0000       3.512757        95.5870 
 230   0.0000       3.525634        95.9374 
 231   0.0000       3.532775        96.1317 
 232   0.0000       3.544707        96.4564 
 233   0.0000       3.553232        96.6883 
 234   0.0000       3.564841        97.0043 
 235   0.0000       3.584706        97.5448 
 236   0.0000       3.592020        97.7438 
 237   0.0000       3.602232        98.0217 
 238   0.0000       3.618177        98.4556 
 239   0.0000       3.631138        98.8083 
 240   0.0000       3.634735        98.9062 
 241   0.0000       3.656118        99.4880 
 242   0.0000       3.671872        99.9167 
 243   0.0000       3.699634       100.6722 
 244   0.0000       3.707496       100.8861 
 245   0.0000       3.725483       101.3756 
 246   0.0000       3.746706       101.9531 
 247   0.0000       3.750402       102.0536 
 248   0.0000       3.765828       102.4734 
 249   0.0000       3.769200       102.5651 
 250   0.0000       3.788352       103.0863 
 251   0.0000       3.794934       103.2654 
 252   0.0000       3.815991       103.8384 
 253   0.0000       3.827075       104.1400 
 254   0.0000       3.850243       104.7704 
 255   0.0000       3.855440       104.9119 
 256   0.0000       3.891637       105.8968 
 257   0.0000       3.894931       105.9864 
 258   0.0000       3.902712       106.1982 
 259   0.0000       3.932583       107.0110 
 260   0.0000       3.958304       107.7109 
 261   0.0000       3.969601       108.0183 
 262   0.0000       3.981771       108.3495 
 263   0.0000       3.992360       108.6377 
 264   0.0000       4.012838       109.1949 
 265   0.0000       4.041603       109.9776 
 266   0.0000       4.056465       110.3820 
 267   0.0000       4.059293       110.4590 
 268   0.0000       4.061028       110.5062 
 269   0.0000       4.078919       110.9930 
 270   0.0000       4.084126       111.1347 
 271   0.0000       4.095779       111.4518 
 272   0.0000       4.111346       111.8754 
 273   0.0000       4.126893       112.2985 
 274   0.0000       4.140024       112.6558 
 275   0.0000       4.157122       113.1210 
 276   0.0000       4.167135       113.3935 
 277   0.0000       4.177180       113.6668 
 278   0.0000       4.197948       114.2320 
 279   0.0000       4.216952       114.7491 
 280   0.0000       4.222429       114.8981 
 281   0.0000       4.239246       115.3557 
 282   0.0000       4.248683       115.6125 
 283   0.0000       4.286491       116.6413 
 284   0.0000       4.295800       116.8947 
 285   0.0000       4.306844       117.1952 
 286   0.0000       4.320583       117.5690 
 287   0.0000       4.340323       118.1062 
 288   0.0000       4.346400       118.2716 
 289   0.0000       4.364048       118.7518 
 290   0.0000       4.382216       119.2462 
 291   0.0000       4.392543       119.5272 
 292   0.0000       4.414035       120.1120 
 293   0.0000       4.416543       120.1802 
 294   0.0000       4.425157       120.4147 
 295   0.0000       4.435465       120.6951 
 296   0.0000       4.448443       121.0483 
 297   0.0000       4.475238       121.7774 
 298   0.0000       4.479112       121.8828 
 299   0.0000       4.484781       122.0371 
 300   0.0000       4.503292       122.5408 
 301   0.0000       4.506288       122.6223 
 302   0.0000       4.524963       123.1305 
 303   0.0000       4.531486       123.3080 
 304   0.0000       4.549509       123.7984 
 305   0.0000       4.556844       123.9980 
 306   0.0000       4.581421       124.6668 
 307   0.0000       4.587009       124.8189 
 308   0.0000       4.620046       125.7178 
 309   0.0000       4.636666       126.1701 
 310   0.0000       4.653022       126.6152 
 311   0.0000       4.668686       127.0414 
 312   0.0000       4.711786       128.2142 
 313   0.0000       4.731659       128.7550 
 314   0.0000       4.758436       129.4836 
 315   0.0000       4.768900       129.7684 
 316   0.0000       4.789312       130.3238 
 317   0.0000       4.805556       130.7658 
 318   0.0000       4.822797       131.2350 
 319   0.0000       4.849805       131.9699 
 320   0.0000       4.869452       132.5045 
 321   0.0000       4.902567       133.4056 
 322   0.0000       4.955212       134.8382 
 323   0.0000       4.992929       135.8645 
 324   0.0000       5.017134       136.5231 
 325   0.0000       5.030514       136.8873 
 326   0.0000       5.044501       137.2679 
 327   0.0000       5.064037       137.7994 
 328   0.0000       5.106701       138.9604 
 329   0.0000       5.122102       139.3795 
 330   0.0000       5.144380       139.9857 
 331   0.0000       5.167178       140.6061 
 332   0.0000       5.200585       141.5151 
 333   0.0000       5.209147       141.7481 
 334   0.0000       5.227299       142.2420 
 335   0.0000       5.241937       142.6404 
 336   0.0000       5.247950       142.8040 
 337   0.0000       5.284103       143.7877 
 338   0.0000       5.295013       144.0846 
 339   0.0000       5.299502       144.2068 
 340   0.0000       5.329894       145.0338 
 341   0.0000       5.345091       145.4473 
 342   0.0000       5.356553       145.7592 
 343   0.0000       5.376784       146.3097 
 344   0.0000       5.386954       146.5865 
 345   0.0000       5.416539       147.3915 
 346   0.0000       5.441431       148.0689 
 347   0.0000       5.465805       148.7321 
 348   0.0000       5.493725       149.4918 
 349   0.0000       5.519473       150.1925 
 350   0.0000       5.545174       150.8919 
 351   0.0000       5.577059       151.7595 
 352   0.0000       5.584998       151.9755 
 353   0.0000       5.591240       152.1454 
 354   0.0000       5.609656       152.6465 
 355   0.0000       5.619026       152.9015 
 356   0.0000       5.656437       153.9195 
 357   0.0000       5.665262       154.1596 
 358   0.0000       5.692886       154.9113 
 359   0.0000       5.727487       155.8528 
 360   0.0000       5.753205       156.5527 
 361   0.0000       5.791377       157.5914 
 362   0.0000       5.804980       157.9615 
 363   0.0000       5.827354       158.5704 
 364   0.0000       5.856263       159.3570 
 365   0.0000       5.880057       160.0045 
 366   0.0000       5.900990       160.5741 
 367   0.0000       5.913911       160.9257 
 368   0.0000       5.949058       161.8821 
 369   0.0000       5.984285       162.8407 
 370   0.0000       6.035846       164.2437 
 371   0.0000       6.045554       164.5079 
 372   0.0000       6.064785       165.0312 
 373   0.0000       6.125580       166.6855 
 374   0.0000       6.208981       168.9550 
 375   0.0000       6.228813       169.4946 
 376   0.0000       6.261848       170.3935 
 377   0.0000       6.299187       171.4096 
 378   0.0000       6.369379       173.3196 
 379   0.0000       6.381891       173.6601 
 380   0.0000       6.409228       174.4040 
 381   0.0000       6.444877       175.3740 
 382   0.0000       6.469338       176.0396 
 383   0.0000       6.595328       179.4680 
 384   0.0000       6.735837       183.2915 
 385   0.0000       6.742847       183.4822 
 386   0.0000       6.825909       185.7424 
 387   0.0000       6.839390       186.1093 
 388   0.0000       6.876089       187.1079 
 389   0.0000       6.908257       187.9832 
 390   0.0000       7.284401       198.2186 
 391   0.0000       7.313409       199.0080 
 392   0.0000       7.353388       200.0959 
 393   0.0000       7.406035       201.5285 
 394   0.0000       7.545217       205.3158 
 395   0.0000       7.616328       207.2508 
 396   0.0000       7.796748       212.1603 
 397   0.0000       7.853209       213.6967 
 398   0.0000       7.956903       216.5183 
 399   0.0000       8.086394       220.0420 
 400   0.0000      11.351243       308.8830 
 401   0.0000      11.660082       317.2870 
 402   0.0000      12.676276       344.9390 
 403   0.0000      12.927671       351.7798 
 404   0.0000      13.174074       358.4848 
 405   0.0000      13.543018       368.5242 
 406   0.0000      13.606058       370.2396 
 407   0.0000      13.876520       377.5993 

                    ********************************
                    * MULLIKEN POPULATION ANALYSIS *
                    ********************************

-----------------------
MULLIKEN ATOMIC CHARGES
-----------------------
   0 C :    0.325773
   1 O :   -0.416885
   2 C :    0.021397
   3 C :   -0.194902
   4 C :   -0.203393
   5 C :   -0.183485
   6 O :   -0.394508
   7 C :   -0.083099
   8 H :    0.108596
   9 H :    0.076080
  10 H :    0.102484
  11 H :    0.088953
  12 H :    0.103029
  13 H :    0.109461
  14 H :    0.106046
  15 H :    0.093102
  16 H :    0.087156
  17 H :    0.104092
  18 H :    0.084709
  19 H :    0.065395
Sum of atomic charges:    0.0000000

--------------------------------
MULLIKEN REDUCED ORBITAL CHARGES
--------------------------------
  0 C s       :     3.042874  s :     3.042874
      pz      :     0.793351  p :     2.361452
      px      :     0.856204
      py      :     0.711897
      dz2     :     0.050948  d :     0.249672
      dxz     :     0.053472
      dyz     :     0.045944
      dx2y2   :     0.047687
      dxy     :     0.051620
      f0      :     0.003141  f :     0.020230
      f+1     :     0.002853
      f-1     :     0.002387
      f+2     :     0.002397
      f-2     :     0.003166
      f+3     :     0.002599
      f-3     :     0.003687
  1 O s       :     3.743313  s :     3.743313
      pz      :     1.614200  p :     4.636566
      px      :     1.638180
      py      :     1.384187
      dz2     :     0.006258  d :     0.034999
      dxz     :     0.007863
      dyz     :     0.006522
      dx2y2   :     0.008934
      dxy     :     0.005422
      f0      :     0.000172  f :     0.002007
      f+1     :     0.000295
      f-1     :     0.000189
      f+2     :     0.000282
      f-2     :     0.000315
      f+3     :     0.000434
      f-3     :     0.000320
  2 C s       :     3.169941  s :     3.169941
      pz      :     0.836658  p :     2.642121
      px      :     0.837159
      py      :     0.968305
      dz2     :     0.033256  d :     0.154849
      dxz     :     0.039474
      dyz     :     0.022593
      dx2y2   :     0.036119
      dxy     :     0.023407
      f0      :     0.001520  f :     0.011692
      f+1     :     0.002419
      f-1     :     0.001141
      f+2     :     0.002011
      f-2     :     0.001783
      f+3     :     0.001451
      f-3     :     0.001367
  3 C s       :     3.211756  s :     3.211756
      pz      :     1.016861  p :     2.870519
      px      :     0.949349
      py      :     0.904309
      dz2     :     0.017164  d :     0.106186
      dxz     :     0.026942
      dyz     :     0.018163
      dx2y2   :     0.018302
      dxy     :     0.025614
      f0      :     0.000552  f :     0.006442
      f+1     :     0.001342
      f-1     :     0.000700
      f+2     :     0.000506
      f-2     :     0.000738
      f+3     :     0.001126
      f-3     :     0.001477
  4 C s       :     3.215905  s :     3.215905
      pz      :     0.973278  p :     2.864458
      px      :     0.972692
      py      :     0.918489
      dz2     :     0.028659  d :     0.116323
      dxz     :     0.022096
      dyz     :     0.014748
      dx2y2   :     0.018128
      dxy     :     0.032692
      f0      :     0.000740  f :     0.006708
      f+1     :     0.001460
      f-1     :     0.000617
      f+2     :     0.000906
      f-2     :     0.000736
      f+3     :     0.001014
      f-3     :     0.001233
  5 C s       :     3.206348  s :     3.206348
      pz      :     0.975523  p :     2.873033
      px      :     0.916228
      py      :     0.981282
      dz2     :     0.028161  d :     0.097771
      dxz     :     0.021724
      dyz     :     0.008083
      dx2y2   :     0.013086
      dxy     :     0.026717
      f0      :     0.000753  f :     0.006332
      f+1     :     0.001499
      f-1     :     0.000503
      f+2     :     0.000625
      f-2     :     0.000953
      f+3     :     0.000986
      f-3     :     0.001013
  6 O s       :     3.748077  s :     3.748077
      pz      :     1.536412  p :     4.609198
      px      :     1.340581
      py      :     1.732205
      dz2     :     0.009276  d :     0.035152
      dxz     :     0.009853
      dyz     :     0.003455
      dx2y2   :     0.004395
      dxy     :     0.008172
      f0      :     0.000215  f :     0.002081
      f+1     :     0.000535
      f-1     :     0.000119
      f+2     :     0.000283
      f-2     :     0.000214
      f+3     :     0.000243
      f-3     :     0.000472
  7 C s       :     3.224195  s :     3.224195
      pz      :     1.031223  p :     2.735515
      px      :     0.774879
      py      :     0.929414
      dz2     :     0.018675  d :     0.113483
      dxz     :     0.030074
      dyz     :     0.008378
      dx2y2   :     0.031525
      dxy     :     0.024830
      f0      :     0.000842  f :     0.009905
      f+1     :     0.001674
      f-1     :     0.000799
      f+2     :     0.000494
      f-2     :     0.001122
      f+3     :     0.002803
      f-3     :     0.002172
  8 H s       :     0.863322  s :     0.863322
      pz      :     0.005433  p :     0.025844
      px      :     0.006568
      py      :     0.013843
      dz2     :     0.000346  d :     0.002238
      dxz     :     0.000110
      dyz     :     0.000418
      dx2y2   :     0.000658
      dxy     :     0.000707
  9 H s       :     0.895590  s :     0.895590
      pz      :     0.009893  p :     0.026071
      px      :     0.008604
      py      :     0.007575
      dz2     :     0.000770  d :     0.002258
      dxz     :     0.000614
      dyz     :     0.000475
      dx2y2   :     0.000150
      dxy     :     0.000250
 10 H s       :     0.865632  s :     0.865632
      pz      :     0.008135  p :     0.029424
      px      :     0.011088
      py      :     0.010201
      dz2     :     0.000564  d :     0.002460
      dxz     :     0.000566
      dyz     :     0.000434
      dx2y2   :     0.000461
      dxy     :     0.000435
 11 H s       :     0.880400  s :     0.880400
      pz      :     0.009265  p :     0.028196
      px      :     0.010422
      py      :     0.008510
      dz2     :     0.000596  d :     0.002451
      dxz     :     0.000664
      dyz     :     0.000627
      dx2y2   :     0.000223
      dxy     :     0.000341
 12 H s       :     0.866160  s :     0.866160
      pz      :     0.012028  p :     0.028375
      px      :     0.008183
      py      :     0.008165
      dz2     :     0.000818  d :     0.002436
      dxz     :     0.000635
      dyz     :     0.000683
      dx2y2   :     0.000103
      dxy     :     0.000195
 13 H s       :     0.859422  s :     0.859422
      pz      :     0.008209  p :     0.028696
      px      :     0.010001
      py      :     0.010486
      dz2     :     0.000202  d :     0.002421
      dxz     :     0.000546
      dyz     :     0.000217
      dx2y2   :     0.000927
      dxy     :     0.000529
 14 H s       :     0.861338  s :     0.861338
      pz      :     0.007684  p :     0.030097
      px      :     0.009141
      py      :     0.013272
      dz2     :     0.000284  d :     0.002518
      dxz     :     0.000161
      dyz     :     0.000585
      dx2y2   :     0.000695
      dxy     :     0.000793
 15 H s       :     0.875396  s :     0.875396
      pz      :     0.011928  p :     0.029027
      px      :     0.008828
      py      :     0.008272
      dz2     :     0.000837  d :     0.002474
      dxz     :     0.000668
      dyz     :     0.000566
      dx2y2   :     0.000164
      dxy     :     0.000239
 16 H s       :     0.883606  s :     0.883606
      pz      :     0.013036  p :     0.026805
      px      :     0.008789
      py      :     0.004979
      dz2     :     0.000703  d :     0.002434
      dxz     :     0.000710
      dyz     :     0.000522
      dx2y2   :     0.000245
      dxy     :     0.000254
 17 H s       :     0.870098  s :     0.870098
      pz      :     0.010907  p :     0.023827
      px      :     0.005266
      py      :     0.007653
      dz2     :     0.000610  d :     0.001982
      dxz     :     0.000678
      dyz     :     0.000378
      dx2y2   :     0.000161
      dxy     :     0.000155
 18 H s       :     0.889772  s :     0.889772
      pz      :     0.008199  p :     0.023500
      px      :     0.005005
      py      :     0.010297
      dz2     :     0.000204  d :     0.002019
      dxz     :     0.000061
      dyz     :     0.000579
      dx2y2   :     0.000718
      dxy     :     0.000457
 19 H s       :     0.908889  s :     0.908889
      pz      :     0.009808  p :     0.023719
      px      :     0.006788
      py      :     0.007123
      dz2     :     0.000594  d :     0.001997
      dxz     :     0.000619
      dyz     :     0.000327
      dx2y2   :     0.000247
      dxy     :     0.000210


                     *******************************
                     * LOEWDIN POPULATION ANALYSIS *
                     *******************************

----------------------
LOEWDIN ATOMIC CHARGES
----------------------
   0 C :   -0.270378
   1 O :    0.240965
   2 C :   -0.039917
   3 C :    0.051063
   4 C :    0.058965
   5 C :    0.057266
   6 O :    0.247494
   7 C :    0.012451
   8 H :   -0.029244
   9 H :   -0.037001
  10 H :   -0.023964
  11 H :   -0.025369
  12 H :   -0.023564
  13 H :   -0.026996
  14 H :   -0.020986
  15 H :   -0.021805
  16 H :   -0.033519
  17 H :   -0.033241
  18 H :   -0.041118
  19 H :   -0.041101

-------------------------------
LOEWDIN REDUCED ORBITAL CHARGES
-------------------------------
  0 C s       :     2.698817  s :     2.698817
      pz      :     0.879609  p :     2.613806
      px      :     0.905901
      py      :     0.828296
      dz2     :     0.169106  d :     0.828722
      dxz     :     0.184521
      dyz     :     0.142912
      dx2y2   :     0.158195
      dxy     :     0.173988
      f0      :     0.019397  f :     0.129032
      f+1     :     0.017010
      f-1     :     0.016775
      f+2     :     0.017930
      f-2     :     0.018968
      f+3     :     0.017258
      f-3     :     0.021693
  1 O s       :     3.254807  s :     3.254807
      pz      :     1.533174  p :     4.404938
      px      :     1.519080
      py      :     1.352683
      dz2     :     0.017235  d :     0.093964
      dxz     :     0.015708
      dyz     :     0.017988
      dx2y2   :     0.021610
      dxy     :     0.021424
      f0      :     0.000709  f :     0.005327
      f+1     :     0.000633
      f-1     :     0.000576
      f+2     :     0.001011
      f-2     :     0.000702
      f+3     :     0.000902
      f-3     :     0.000794
  2 C s       :     2.682640  s :     2.682640
      pz      :     0.891189  p :     2.719843
      px      :     0.886100
      py      :     0.942554
      dz2     :     0.129147  d :     0.563221
      dxz     :     0.154407
      dyz     :     0.068059
      dx2y2   :     0.119595
      dxy     :     0.092013
      f0      :     0.009253  f :     0.074213
      f+1     :     0.014050
      f-1     :     0.008248
      f+2     :     0.013784
      f-2     :     0.011980
      f+3     :     0.009363
      f-3     :     0.007536
  3 C s       :     2.663247  s :     2.663247
      pz      :     0.971799  p :     2.831447
      px      :     0.938841
      py      :     0.920807
      dz2     :     0.059726  d :     0.414608
      dxz     :     0.104591
      dyz     :     0.063580
      dx2y2   :     0.084355
      dxy     :     0.102356
      f0      :     0.003718  f :     0.039636
      f+1     :     0.005338
      f-1     :     0.005076
      f+2     :     0.004488
      f-2     :     0.005481
      f+3     :     0.007921
      f-3     :     0.007613
  4 C s       :     2.658449  s :     2.658449
      pz      :     0.951335  p :     2.822953
      px      :     0.948371
      py      :     0.923247
      dz2     :     0.104125  d :     0.419702
      dxz     :     0.077788
      dyz     :     0.057371
      dx2y2   :     0.068685
      dxy     :     0.111733
      f0      :     0.004796  f :     0.039932
      f+1     :     0.006404
      f-1     :     0.005108
      f+2     :     0.006841
      f-2     :     0.004701
      f+3     :     0.005449
      f-3     :     0.006634
  5 C s       :     2.664015  s :     2.664015
      pz      :     0.952983  p :     2.834609
      px      :     0.933827
      py      :     0.947799
      dz2     :     0.096396  d :     0.404956
      dxz     :     0.097936
      dyz     :     0.039156
      dx2y2   :     0.071467
      dxy     :     0.100001
      f0      :     0.005236  f :     0.039154
      f+1     :     0.006474
      f-1     :     0.004531
      f+2     :     0.005223
      f-2     :     0.005415
      f+3     :     0.006705
      f-3     :     0.005570
  6 O s       :     3.246092  s :     3.246092
      pz      :     1.494016  p :     4.403855
      px      :     1.307211
      py      :     1.602628
      dz2     :     0.021641  d :     0.097004
      dxz     :     0.029875
      dyz     :     0.008279
      dx2y2   :     0.018151
      dxy     :     0.019058
      f0      :     0.001146  f :     0.005554
      f+1     :     0.000941
      f-1     :     0.000393
      f+2     :     0.000657
      f-2     :     0.000910
      f+3     :     0.000869
      f-3     :     0.000639
  7 C s       :     2.687307  s :     2.687307
      pz      :     1.011802  p :     2.775960
      px      :     0.811320
      py      :     0.952838
      dz2     :     0.069951  d :     0.459295
      dxz     :     0.129879
      dyz     :     0.026112
      dx2y2   :     0.135413
      dxy     :     0.097940
      f0      :     0.006105  f :     0.064987
      f+1     :     0.008376
      f-1     :     0.006463
      f+2     :     0.003857
      f-2     :     0.009865
      f+3     :     0.016921
      f-3     :     0.013400
  8 H s       :     0.857703  s :     0.857703
      pz      :     0.035296  p :     0.144134
      px      :     0.036919
      py      :     0.071919
      dz2     :     0.003564  d :     0.027408
      dxz     :     0.001734
      dyz     :     0.006826
      dx2y2   :     0.007368
      dxy     :     0.007915
  9 H s       :     0.863128  s :     0.863128
      pz      :     0.066299  p :     0.146753
      px      :     0.043065
      py      :     0.037389
      dz2     :     0.008381  d :     0.027120
      dxz     :     0.007529
      dyz     :     0.006995
      dx2y2   :     0.001569
      dxy     :     0.002645
 10 H s       :     0.843731  s :     0.843731
      pz      :     0.056932  p :     0.152320
      px      :     0.050932
      py      :     0.044456
      dz2     :     0.007943  d :     0.027913
      dxz     :     0.006638
      dyz     :     0.004994
      dx2y2   :     0.004191
      dxy     :     0.004148
 11 H s       :     0.845374  s :     0.845374
      pz      :     0.064641  p :     0.151848
      px      :     0.048358
      py      :     0.038850
      dz2     :     0.008626  d :     0.028147
      dxz     :     0.007868
      dyz     :     0.006403
      dx2y2   :     0.002396
      dxy     :     0.002854
 12 H s       :     0.842184  s :     0.842184
      pz      :     0.068411  p :     0.153143
      px      :     0.046456
      py      :     0.038276
      dz2     :     0.009543  d :     0.028237
      dxz     :     0.007958
      dyz     :     0.007220
      dx2y2   :     0.001487
      dxy     :     0.002029
 13 H s       :     0.845768  s :     0.845768
      pz      :     0.039773  p :     0.153232
      px      :     0.061226
      py      :     0.052232
      dz2     :     0.002394  d :     0.027996
      dxz     :     0.006574
      dyz     :     0.002846
      dx2y2   :     0.008995
      dxy     :     0.007187
 14 H s       :     0.840556  s :     0.840556
      pz      :     0.041036  p :     0.152132
      px      :     0.043235
      py      :     0.067860
      dz2     :     0.003300  d :     0.028298
      dxz     :     0.002187
      dyz     :     0.007056
      dx2y2   :     0.007695
      dxy     :     0.008060
 15 H s       :     0.841681  s :     0.841681
      pz      :     0.067013  p :     0.151771
      px      :     0.046228
      py      :     0.038529
      dz2     :     0.009151  d :     0.028353
      dxz     :     0.007969
      dyz     :     0.007100
      dx2y2   :     0.001567
      dxy     :     0.002566
 16 H s       :     0.868660  s :     0.868660
      pz      :     0.063095  p :     0.137812
      px      :     0.044919
      py      :     0.029798
      dz2     :     0.007930  d :     0.027047
      dxz     :     0.008112
      dyz     :     0.005341
      dx2y2   :     0.002619
      dxy     :     0.003044
 17 H s       :     0.863113  s :     0.863113
      pz      :     0.065925  p :     0.143181
      px      :     0.039689
      py      :     0.037567
      dz2     :     0.008666  d :     0.026946
      dxz     :     0.007481
      dyz     :     0.005853
      dx2y2   :     0.002317
      dxy     :     0.002628
 18 H s       :     0.868262  s :     0.868262
      pz      :     0.040526  p :     0.146157
      px      :     0.029176
      py      :     0.076454
      dz2     :     0.002623  d :     0.026700
      dxz     :     0.000653
      dyz     :     0.009035
      dx2y2   :     0.007476
      dxy     :     0.006913
 19 H s       :     0.871932  s :     0.871932
      pz      :     0.062744  p :     0.142764
      px      :     0.041533
      py      :     0.038487
      dz2     :     0.008414  d :     0.026405
      dxz     :     0.006899
      dyz     :     0.004688
      dx2y2   :     0.002980
      dxy     :     0.003424


                      *****************************
                      * MAYER POPULATION ANALYSIS *
                      *****************************

  NA   - Mulliken gross atomic population
  ZA   - Total nuclear charge
  QA   - Mulliken gross atomic charge
  VA   - Mayer's total valence
  BVA  - Mayer's bonded valence
  FA   - Mayer's free valence

  ATOM       NA         ZA         QA         VA         BVA        FA
  0 C      5.6742     6.0000     0.3258     3.9847     3.9847    -0.0000
  1 O      8.4169     8.0000    -0.4169     1.9719     1.9719     0.0000
  2 C      5.9786     6.0000     0.0214     3.9140     3.9140     0.0000
  3 C      6.1949     6.0000    -0.1949     3.8621     3.8621     0.0000
  4 C      6.2034     6.0000    -0.2034     3.8745     3.8745     0.0000
  5 C      6.1835     6.0000    -0.1835     3.8447     3.8447     0.0000
  6 O      8.3945     8.0000    -0.3945     1.9610     1.9610     0.0000
  7 C      6.0831     6.0000    -0.0831     3.9262     3.9262    -0.0000
  8 H      0.8914     1.0000     0.1086     0.9790     0.9790     0.0000
  9 H      0.9239     1.0000     0.0761     0.9783     0.9783     0.0000
 10 H      0.8975     1.0000     0.1025     0.9827     0.9827    -0.0000
 11 H      0.9110     1.0000     0.0890     0.9871     0.9871    -0.0000
 12 H      0.8970     1.0000     0.1030     0.9894     0.9894     0.0000
 13 H      0.8905     1.0000     0.1095     0.9777     0.9777     0.0000
 14 H      0.8940     1.0000     0.1060     0.9935     0.9935    -0.0000
 15 H      0.9069     1.0000     0.0931     0.9879     0.9879     0.0000
 16 H      0.9128     1.0000     0.0872     0.9887     0.9887    -0.0000
 17 H      0.8959     1.0000     0.1041     0.9767     0.9767    -0.0000
 18 H      0.9153     1.0000     0.0847     0.9657     0.9657    -0.0000
 19 H      0.9346     1.0000     0.0654     0.9751     0.9751    -0.0000

  Mayer bond orders larger than 0.1
B(  0-C ,  1-O ) :   1.0011 B(  0-C ,  5-C ) :   0.9640 B(  0-C ,  6-O ) :   0.9922 
B(  0-C , 16-H ) :   0.9968 B(  1-O ,  2-C ) :   0.9608 B(  2-C ,  3-C ) :   0.9608 
B(  2-C ,  8-H ) :   0.9907 B(  2-C ,  9-H ) :   0.9783 B(  3-C ,  4-C ) :   0.9485 
B(  3-C , 10-H ) :   0.9862 B(  3-C , 11-H ) :   0.9825 B(  4-C ,  5-C ) :   0.9514 
B(  4-C , 12-H ) :   0.9803 B(  4-C , 13-H ) :   0.9931 B(  5-C , 14-H ) :   0.9833 
B(  5-C , 15-H ) :   0.9870 B(  6-O ,  7-C ) :   0.9771 B(  7-C , 17-H ) :   0.9833 
B(  7-C , 18-H ) :   0.9694 B(  7-C , 19-H ) :   0.9775 

-------
TIMINGS
-------

Total SCF time: 0 days 0 hours 0 min 20 sec 

Total time                  ....      20.614 sec
Sum of individual times     ....      20.273 sec  ( 98.3%)

Fock matrix formation       ....      19.346 sec  ( 93.8%)
Diagonalization             ....       0.155 sec  (  0.8%)
Density matrix formation    ....       0.022 sec  (  0.1%)
Population analysis         ....       0.074 sec  (  0.4%)
Initial guess               ....       0.340 sec  (  1.6%)
Orbital Transformation      ....       0.000 sec  (  0.0%)
Orbital Orthonormalization  ....       0.000 sec  (  0.0%)
DIIS solution               ....       0.000 sec  (  0.0%)
SOSCF solution              ....       0.158 sec  (  0.8%)


           ************************************************************
           *        Program running with 8 parallel MPI-processes     *
           *              working on a common directory               *
           ************************************************************


------------------------------------------------------------------------------- 
                              ORCA-MATRIX DRIVEN CI                            
------------------------------------------------------------------------------- 


Wavefunction type
-----------------
Correlation treatment                      ...      CCSD     
Single excitations                         ... ON
Orbital optimization                       ... OFF
Calculation of Z vector                    ... OFF
Calculation of Brueckner orbitals          ... OFF
Perturbative triple excitations            ... ON
Calculation of F12 correction              ... OFF
Frozen core treatment                      ... chemical core (16 el)
Reference Wavefunction                     ... RHF
  Internal Orbitals:     8 ...   31 ( 24 MO's/ 48 electrons)
  Virtual  Orbitals:    32 ...  407 (376 MO's              )
Number of AO's                             ...    408
Number of electrons                        ...     64
Number of correlated electrons             ...     48

Algorithmic settings
--------------------
Integral transformation                    ... All integrals via the RI transformation
K(C) Formation                             ... RI-DLPNO
   PNO-Integral Storage                    ... ON DISK
   PNO occupation number cut-off           ... 1.000e-07
   Singles PNO occupation number cut-off   ... 3.000e-09
   PNO Mulliken prescreening cut-off       ... 1.000e-03
   Domain cut-off (Mulliken population)    ... 1.000e-03
   PNO Normalization                       ...    1
Maximum number of iterations               ...        50
Convergence tolerance (max. residuum)      ... 1.000e-05
Level shift for amplitude update           ... 2.000e-01
Maximum number of DIIS vectors             ...         7
DIIS turned on at iteration                ...         0
Damping before turning on DIIS             ...     0.500
Damping after turning on DIIS              ...     0.000
Pair specific amplitude update             ... OFF
Natural orbital iterations                 ... OFF
Perturbative natural orbital generation    ... OFF
Printlevel                                 ... 2

Singles Fock matrix elements calculated using PNOs.

Memory handling:
----------------
Maximum memory for working arrays          ...   8000 MB
Data storage in matrix containers          ... UNCOMPRESSED
Data type for integral storage             ... DOUBLE
In-Core Storage of quantities:
   Amplitudes+Sigma Vector      ... NO
   J+K operators                ... NO
   DIIS vectors                 ... NO
   3-external integrals         ... NO
   4-external integrals         ... NO

Localization treatment:
-----------------------
Localization option                        ...    6
Localization threshhold                    ... -1.0e+00
Using relative localization threshhold     ... 1.0e-08
Neglect threshold for strong pairs         ... 1.000e-05 Eh
Prescreening threshold for very weak pairs ... 1.000e-07 Eh

Initializing the integral package          ... done
Localizing the valence orbitals
------------------------------------------------------------------------------
                           ORCA ORBITAL LOCALIZATION
------------------------------------------------------------------------------

Input orbitals are from                  ... 2_methoxytetrahydropyran_ax.proc0.gbw
Output orbitals are to                   ... 2_methoxytetrahydropyran_ax.proc0.loc
Max. number of iterations                ... 128
Localizations seeded randomly            ... off
Convergence tolerance                    ... 1.000e-06
Using relative localization threshhold   ... 1.000e-08
Treshold for strong local MOs            ... 9.500e-01
Treshold for bond MOs                    ... 8.500e-01
Operator                                 ... 0
Orbital range for localization           ... 8 to 31
Localization criterion                   ... FOSTER-BOYS (AUGMENTED HESSIAN)
Doing the dipole integrals     ... o.k.
Initial value of the localization sum :   279.043245
ITERATION   0 : L=  342.4479354368 DL=  6.34e+01 (AVERGE_DL)=    0.4792985920 
ITERATION   1 : L=  348.1499801493 DL=  5.70e+00 (AVERGE_DL)=    0.1437344158 
ITERATION   2 : L=  348.2364470593 DL=  8.65e-02 (AVERGE_DL)=    0.0176998843 
ITERATION   3 : L=  348.2414534406 DL=  5.01e-03 (AVERGE_DL)=    0.0042589978 
ITERATION   4 : L=  348.2420643724 DL=  6.11e-04 (AVERGE_DL)=    0.0014877907 
ITERATION   5 : L=  348.2421365686 DL=  7.22e-05 (AVERGE_DL)=    0.0005114492 
ITERATION   6 : L=  348.2421447000 DL=  8.13e-06 (AVERGE_DL)=    0.0001716442 
ITERATION   7 : L=  348.2421455933 DL=  8.93e-07 (AVERGE_DL)=    0.0000568888 
LOCALIZATION SUM CONVERGED

------------------------------------------------------
AUGMENTED HESSIAN OPTIMIZATION OF FOSTER-BOYS ORBITALS
------------------------------------------------------

Spin operator:           0
Orbital window:          8 to 31
Number of iterations:    128
Gradient tolerance:      1.000e-06
Number of pairs:         276
Davidson threshold:      2000
Diagonalization method:  LAPACK
Iter:    0   L: 348.2421455933   Grad. norm: 1.423757e-03
   *** Likely close to a maximum now. ***
       Augmented Hessian eigenvalues:  2.29e-07 -1.24e+00 -1.31e+00 -3.57e+00 ... 
Iter:    1   L: 348.2421457078   Grad. norm: 1.172294e-07
LOCALIZATION HAS CONVERGED.

Eigenvalues of the Hessian:
  0 -1.241e+00
  1 -1.314e+00
  2 -3.574e+00
  3 -3.649e+00
  4 -5.319e+00
  5 -5.397e+00
  6 -5.490e+00
  7 -5.570e+00
  8 -7.532e+00
  9 -7.618e+00
    ...


------------------------------------------------------------------------------- 
                    LOCALIZED MOLECULAR ORBITAL COMPOSITIONS                   
------------------------------------------------------------------------------- 

The Mulliken populations for each LMO on each atom are computed
The LMO`s will be ordered according to atom index and type
  (A) Strongly localized MO`s have populations of >=0.950 on one atom
  (B) Two center bond orbitals have populations of >=0.850 on two atoms
  (C) Other MO`s are considered to be `delocalized`

FOUND  -   4 strongly local MO`s
       -  20 two center bond MO`s
       -   0 significantly delocalized MO`s

Rather strongly localized orbitals:
MO  11:   6O  -   0.976025
MO  10:   6O  -   0.968781
MO   9:   1O  -   0.965815
MO   8:   1O  -   0.970555
Bond-like localized orbitals:
MO  31:  19H  -   0.489937  and   7C  -   0.544426
MO  30:  18H  -   0.482920  and   7C  -   0.551657
MO  29:  17H  -   0.466485  and   7C  -   0.560452
MO  28:  16H  -   0.468410  and   0C  -   0.571755
MO  27:  15H  -   0.469997  and   5C  -   0.557866
MO  26:  14H  -   0.459490  and   5C  -   0.564245
MO  25:  13H  -   0.463581  and   4C  -   0.569527
MO  24:  12H  -   0.463095  and   4C  -   0.562574
MO  23:  11H  -   0.472347  and   3C  -   0.553302
MO  22:  10H  -   0.465878  and   3C  -   0.561551
MO  21:   9H  -   0.482730  and   2C  -   0.552911
MO  20:   8H  -   0.461881  and   2C  -   0.571940
MO  19:   7C  -   0.355280  and   6O  -   0.655672
MO  18:   6O  -   0.666254  and   0C  -   0.347712
MO  17:   5C  -   0.517259  and   4C  -   0.508266
MO  16:   5C  -   0.510480  and   0C  -   0.529669
MO  15:   4C  -   0.514043  and   3C  -   0.515698
MO  14:   3C  -   0.522702  and   2C  -   0.514314
MO  13:   2C  -   0.344407  and   1O  -   0.667886
MO  12:   1O  -   0.669610  and   0C  -   0.342438
Localized MO's were stored in: 2_methoxytetrahydropyran_ax.proc0.loc

Localizing the core orbitals
------------------------------------------------------------------------------
                           ORCA ORBITAL LOCALIZATION
------------------------------------------------------------------------------

Input orbitals are from                  ... 2_methoxytetrahydropyran_ax.proc0.loc
Output orbitals are to                   ... 2_methoxytetrahydropyran_ax.proc0.loc
Max. number of iterations                ... 128
Localizations seeded randomly            ... off
Convergence tolerance                    ... 1.000e-06
Using relative localization threshhold   ... 1.000e-08
Treshold for strong local MOs            ... 9.500e-01
Treshold for bond MOs                    ... 8.500e-01
Operator                                 ... 0
Orbital range for localization           ... 0 to 7
Localization criterion                   ... FOSTER-BOYS (AUGMENTED HESSIAN)
Doing the dipole integrals     ... o.k.
Initial value of the localization sum :    90.123996
ITERATION   0 : L=   90.1240042874 DL=  7.86e-06 (AVERGE_DL)=    0.0005299157 
ITERATION   1 : L=   90.1240042874 DL=  0.00e+00 (AVERGE_DL)=    0.0000000000 
LOCALIZATION SUM CONVERGED

------------------------------------------------------
AUGMENTED HESSIAN OPTIMIZATION OF FOSTER-BOYS ORBITALS
------------------------------------------------------

Spin operator:           0
Orbital window:          0 to 7
Number of iterations:    128
Gradient tolerance:      1.000e-06
Number of pairs:         28
Davidson threshold:      2000
Diagonalization method:  LAPACK
Iter:    0   L: 90.1240042874   Grad. norm: 4.673713e-04
   *** Likely close to a maximum now. ***
       Augmented Hessian eigenvalues:  7.80e-10 -2.86e+01 -2.88e+01 -2.89e+01 ... 
Iter:    1   L: 90.1240042878   Grad. norm: 3.720912e-15
LOCALIZATION HAS CONVERGED.

Eigenvalues of the Hessian:
  0 -2.856e+01
  1 -2.883e+01
  2 -2.894e+01
  3 -2.952e+01
  4 -3.334e+01
  5 -3.342e+01
  6 -3.371e+01
  7 -3.371e+01
  8 -7.904e+01
  9 -8.089e+01
    ...


------------------------------------------------------------------------------- 
                    LOCALIZED MOLECULAR ORBITAL COMPOSITIONS                   
------------------------------------------------------------------------------- 

The Mulliken populations for each LMO on each atom are computed
The LMO`s will be ordered according to atom index and type
  (A) Strongly localized MO`s have populations of >=0.950 on one atom
  (B) Two center bond orbitals have populations of >=0.850 on two atoms
  (C) Other MO`s are considered to be `delocalized`

FOUND  -   8 strongly local MO`s
       -   0 two center bond MO`s
       -   0 significantly delocalized MO`s

Rather strongly localized orbitals:
MO   7:   7C  -   1.000738
MO   6:   6O  -   0.999699
MO   5:   5C  -   1.001549
MO   4:   4C  -   1.001521
MO   3:   3C  -   1.001426
MO   2:   2C  -   1.001212
MO   1:   1O  -   0.999683
MO   0:   0C  -   1.001165
Localized MO's were stored in: 2_methoxytetrahydropyran_ax.proc0.loc

Warning: internal orbitals are localized - no re-canonicalization of internal orbitals

--------------------------
CLOSED-SHELL FOCK OPERATOR
[...]
--------------------------------

Orbital window:       8 to 31
Number of PAOs:     408
Basis functions:    408 (152 shells)
Aux. functions:    1008 (304 shells)

Processing maps (0.0 sec)
Average map sizes:
   Aux shells -> MOs              24.0
   Aux shells -> PAOs            408.0
   MOs        -> AO shells       149.0
   PAOs       -> AO shells       152.0

Calculating integrals (16.0 sec, 75.316 MB)
Sorting integrals (0.1 sec, 75.305 MB)
Total time for the integral transformation: 16.2 sec
--------------------------------
INITIAL GUESS AND PNO GENERATION
--------------------------------

PNO truncation parameters                   .... 
    ScaleTCutPNO       =        1.000e-02
    PAOOverlapThresh   =        1.000e-08

    TCutPairs          =        1.000e-05
    TCutPNO            =        1.000e-07
    TCutPNOSingles     =        3.000e-09
    TCutMP2Pairs       =        1.000e-06
    TCutMKN            =        1.000e-03
    TCutDO             =        5.000e-03

Pair selection                          .... not used
Type of local MP2 treatment                 .... full local PMP2
Strategy for PNO selection                  .... occupation number selection
Pair density normalization                  .... MP2 norm
Spin component scaling                      .... not used

PASS-1: Formation of initial guess LMP2 amplitudes
Initial amplitudes guess done. Entering LMP2 iteration loop:
   Max. no of iterations          ...  50
   Energy convergence tolerance   ...    1.0e-07
   Residual convergence tolerance ...    5.0e-07
   Fock matrix cutoff             ...    1.0e-05 Eh
   DIIS convergence acceleration parameters:
        Max # vectors in DIIS     ... 7
        Start iteration of DIIS   ... 0
        Levelshift                ... 2.000e-01
        Damping factor 1          ... 5.000e-01
        Damping factor 2          ... 1.000e+00
   L-MP2 PNO cut-off              ...   1.0e-09
   L-MP2 PNO cut-off (core)       ...   1.0e-11
                           *** Turning on DIIS ***
LMP2-Iter=   0:  ELMP2= -1.484880661345  DE=   3.0e-02 RMAX=   5.4e-03
LMP2-Iter=   1:  ELMP2= -1.499467292848  DE=   1.5e-02 RMAX=   2.4e-03
LMP2-Iter=   2:  ELMP2= -1.501729226454  DE=   2.3e-03 RMAX=   5.8e-04
LMP2-Iter=   3:  ELMP2= -1.501977218516  DE=   2.5e-04 RMAX=   1.8e-04
LMP2-Iter=   4:  ELMP2= -1.501989407253  DE=   1.2e-05 RMAX=   2.5e-05
LMP2-Iter=   5:  ELMP2= -1.501987392940  DE=   2.0e-06 RMAX=   6.5e-06
LMP2-Iter=   6:  ELMP2= -1.501987101524  DE=   2.9e-07 RMAX=   1.1e-06
LMP2-Iter=   7:  ELMP2= -1.501987072618  DE=   2.9e-08 RMAX=   2.7e-07
LMP2-Iter=   8:  ELMP2= -1.501987081258  DE=   8.6e-09 RMAX=   6.2e-08 => CONVERGED
PASS-2: Formation of Pair natural orbitals
   .... Finished loop over pairs

 PNO Occupation Number Statistics: 
  | Av. % of trace(Dij) retained        ...  99.378740241577
  | sigma^2 in % of trace(Dij) retained ...   4.98e-01
  | Av. % of trace(Di) retained         ...  99.999697203475
  | sigma^2 in % of trace(Di) retained  ...   8.68e-09
 Distributions of % trace(Dij) recovered:
  |       >= 99.9  ...    72 ( 24.0 % of all pairs)
  |   [90.0, 99.0) ...    67 ( 22.3 % of all pairs)
  |   [99.0, 99.9) ...   161 ( 53.7 % of all pairs)
 Distributions of % trace(Di) recovered :
  |       >= 99.9  ...    24 (100.0 % of all I-pairs )

Making pair pair interaction lists          ... done

                       ===========================
                        296 OF  300 PAIRS ARE KEPT
                       ===========================

Total time spent in the initial guess                 ...    27.321 sec
L-MP2 correlation energy (all non-screened pairs)     ...      -1.501987081258 Eh
L-MP2 PNO error correction                            ...      -0.000039175231 Eh
                                                          --------------------
Initial total L-MP2 energy (non-screened pairs)       ...      -1.502026256489 Eh

Initial PNO correlation energy                        ...      -1.500399161193 Eh
sum of pair energies estimated for screened out pairs ...       0.000000000000 Eh
sum of MP2 pair energies for pairs that were not kept ...      -0.000034192526 Eh
sum of PNO error estimates for the kept pairs         ...      -0.001592902769 Eh
                                                          --------------------
sum of all corrections                                         -0.001627095296
Initial total correlation energy                               -1.502026256489
Thresholds for map construction and integral transformation for fine MP2 and CCSD(T) calculation:
   TCutMKN   ...     1.0e-03
   TCutDO    ...     5.0e-03
   TCutPairs ...     1.0e-05
   TCutCMO   ...     1.0e-03
   TCutCPAO  ...     1.0e-03

Time for aux screen maps:            0.007
Time for maps after fine MP2:            0.023
-----------------------------
LOCAL RI TRANSFORMATION (IJV)
-----------------------------

Orbital window:       8 to 31
Basis functions:    408 (152 shells)
Aux. functions:    1008 (304 shells)

Processing maps (0.0 sec)
Average map sizes:
   Aux shells -> MOs(i)           24.0
   Aux shells -> MOs(j)           24.0
   MOs        -> AO shells       149.0

Calculating integrals (0.9 sec, 4.441 MB)
Sorting integrals (0.0 sec, 4.430 MB)
Total time for the integral transformation: 0.9 sec
--------------------------------
LOCAL RI TRANSFORMATION (VABPAO)
--------------------------------

Number of PAOs:     408
Basis functions:    408 (152 shells)
Aux. functions:    1008 (304 shells)

Processing maps (0.0 sec)
Average map sizes:
   Aux shells -> PAOs            408.0
   PAOs       -> AO shells       152.0

Calculating integrals (3.4 sec, 2407.979 MB)
Finished


-------------------------------------
Pair Pair Term precalculation with     
RI-(ij|mn) and (im|jn) transformation  
ON THE FLY                             
-------------------------------------

   IBatch   1 (of   2)              ... done (   61.905 sec)
   IBatch   2 (of   2)              ... done (   60.225 sec)
Total EXT                           ...         122.130 sec

---------------------
RI-PNO TRANSFORMATION
---------------------

Total Number of PNOs                   ... 11009
Average number of PNOs per pair        ...    37
Maximal number of PNOs per pair        ...    71
   #pairs with  1 -  5 PNOs   :    0
   #pairs with  6 - 10 PNOs   :   30
   #pairs with 11 - 15 PNOs   :   14
   #pairs with 16 - 20 PNOs   :   27
   #pairs with 21 - 25 PNOs   :   22
   #pairs with 26 - 30 PNOs   :   35
   #pairs with 31 - 35 PNOs   :   14
   #pairs with 36 - 40 PNOs   :   16
   #pairs with 41 - 45 PNOs   :   12
   #pairs with 46 - 50 PNOs   :   43
   #pairs with 51 - 55 PNOs   :   30
   #pairs with 56 - 60 PNOs   :   15
   #pairs with 61 - 65 PNOs   :   21
   #pairs with 66 - 70 PNOs   :   15
   #pairs with 71 - 75 PNOs   :    2

Generation of (ij|ab)[P] integrals            ... on
Generation of (ia|bc)[P],(ja|bc)[P] integrals ... on
Storage of 3 and 4 external integrals         ... on
Generation of ALL (ka|bc)[P] integrals        ... on
Keep RI integrals in memory                   ... off

Ibatch:  1 (of  1)
Starting 2-4 index PNO integral generation ... done

Timings:
Total PNO integral transformation time     ...         64.677 sec
Size of the 3-external file                ...       205 MB
Size of the 4-external file                ...      1441 MB
Size of the IKJL file                      ...         0 MB
Size of the all 3-external file            ...      2465 MB
Size of the 1-external file                ...         6 MB

Making pair/pair overlap matrices          ... done (    7.370 sec)
Size of the pair overlap file              ... 655 MB
Redoing the guess amplitudes               ... done (    0.004 sec)

-------------------------
FINAL STARTUP INFORMATION
-------------------------

E(0)                                       ...   -384.044829391
E(L-MP2)                                   ...     -1.502026256
E(L-MP2) including corrections             ...     -1.502026256
Initial E(tot)                             ...   -385.546855647
<T|T>                                      ...      0.388681591
Number of pairs included                   ... 296
Total number of pairs                      ... 300

------------------------------------------------
                  RHF COUPLED CLUSTER ITERATIONS
------------------------------------------------

Number of PNO amplitudes to be optimized   ...       510123
Number of non-PNO amplitudes               ...     41847296
Untruncated number of regular amplitudes   ...     42412800

Iter       E(tot)           E(Corr)          Delta-E          Residual     Time
  0   -385.499507030     -1.453050544      0.048975712      0.018106619   17.37
                           *** Turning on DIIS ***
  1   -385.558519796     -1.512063310     -0.059012766      0.007832446   17.14
  2   -385.596250692     -1.549794206     -0.037730896      0.002912158   18.90
  3   -385.603377048     -1.556920562     -0.007126356      0.001237846   18.83
  4   -385.605035166     -1.558578680     -0.001658118      0.000512863   18.94
  5   -385.605353438     -1.558896952     -0.000318272      0.000235798   19.14
  6   -385.605425804     -1.558969318     -0.000072366      0.000078407   19.92
  7   -385.605437526     -1.558981040     -0.000011721      0.000034726   17.72
  8   -385.605438981     -1.558982496     -0.000001456      0.000013215   19.18
  9   -385.605437769     -1.558981283      0.000001213      0.000004943   17.07
               --- The Coupled-Cluster iterations have converged ---

----------------------
COUPLED CLUSTER ENERGY
----------------------

E(0)                                       ...   -384.044829391
E(CORR)(strong-pairs)                      ...     -1.558981283
E(CORR)(weak-pairs)                        ...     -0.001627095
E(CORR)(corrected)                         ...     -1.560608378
E(TOT)                                     ...   -385.605437769
Singles Norm <S|S>**1/2                    ...      0.069144911  
T1 diagnostic                              ...      0.009980208  

------------------
LARGEST AMPLITUDES
------------------
  13-> 32  13-> 32       0.035804
  30-> 38  30-> 38       0.035122
  12-> 32  12-> 32       0.035028
  21-> 38  21-> 38       0.030954
  17-> 42  17-> 42       0.030043
  19-> 32  19-> 32       0.029290
  21-> 32  21-> 32       0.028562
  27-> 32  27-> 32       0.028095
  23-> 32  23-> 32       0.028074
  31-> 32  31-> 32       0.027697
  24-> 32  24-> 32       0.027684
  30-> 32  30-> 32       0.027567
  22-> 32  22-> 32       0.027214
  25-> 32  25-> 32       0.027131
  26-> 32  26-> 32       0.026882
  28-> 32  28-> 32       0.026585


-------------------------------------------
DLPNO BASED TRIPLES CORRECTION
-------------------------------------------

Singles multiplier          ...  1.000000
TCutTNO                     ... 1.000e-09
TCutMP2Pairs                ... 1.000e-06
TCutDOStrong                ... 1.000e-02
TCutMKNStrong               ... 1.000e-02
TCutDOWeak                  ... 2.000e-02
TCutMKNWeak                 ... 1.000e-01

Fragment selection                          .... not used
Number of Triples that are to be computed   ...      2564

 . . . . . . . . .
10% done  
20% done  
30% done  
40% done  
50% done  
60% done  
70% done  
80% done  
90% done               (    460.796 sec)
Triples timings:
Total time for T0               ...   490.679 sec
Total time for Iterative (T)    ...     0.000 sec
Total time of overall (T)       ...   493.319 sec

Triples List generation         ...     0.000 sec
TNO generation                  ...    29.871 sec
Pair density generation         ...     0.006 sec
Look up tables                  ...     0.000 sec
Generating 3-index integrals    ...   355.445 sec
  Make 4-ind.int. from 3-ind.int...    31.032 sec
  Projecting amplitudes (D + S) ...    38.466 sec
  Downprojecting integrals      ...     0.005 sec
  Energy contr. (sum over a,b,c)...    10.329 sec
Fitting ET(->0)                 ...     0.000 sec

Everything after 3-index        ...   105.351 sec

Timing details:
 TNO integrals                  ...   373.757 sec
   Reading 3-index integrals    ...     0.662 sec
   Sorting integrals            ...    38.175 sec
       Sorting integrals 1      ...     0.003 sec
       Sorting integrals 2      ...    25.842 sec
       Sorting integrals 3      ...     1.461 sec
       Sorting integrals 4      ...     0.163 sec
       Sorting integrals 5      ...     0.404 sec
       Sorting integrals 6      ...    10.304 sec
   Calculating local VM**-1/2   ...     1.246 sec
   Orthogonal. integrals        ...     1.840 sec
   Multipl. 3-index integrals   ...   331.834 sec
   All concerning IRIab (w/TNO) ...    16.794 sec

 Calculate W0/W1                ...    25.505 sec
 W 3-ext contribution           ...    13.067 sec
 W 3-int contribution           ...     4.279 sec
 Sorting W                      ...     7.809 sec

 V exchange contribution        ...     3.365 sec

 Timings for Triples without generation
     of 3-index integrals       ...   105.345 sec
       0 weak pairs             ...   103.984 sec
       1 weak pair              ...     1.362 sec
       2 weak pairs             ...     0.000 sec
       3 weak pairs             ...     0.000 sec
  Extra time for extrapolation  ...     0.000 sec

Number of Triples   (0, 1, 2, 3 weak pairs; overall):   2484      80       0       0  (  2564)
Number of Atoms     (0, 1, 2, 3 weak pairs; overall):   18.7    18.1     0.0     0.0  (    20)
Number of PAOs      (0, 1, 2, 3 weak pairs; overall):  387.8   379.4     0.0     0.0  (   408)
Number of AuxFcns   (0, 1, 2, 3 weak pairs; overall):  456.1   331.2     0.0     0.0  (  1008)
Number of TNOs      (0, 1, 2, 3 weak pairs         ):   93.4    63.9     0.0     0.0
Aver. Number of NTNO, Atoms, PAOs, AuxFcns / Triples:   2564    92.5    18.7   387.5   452.2

Triples Correction (T)                     ...     -0.061153941
Final correlation energy                   ...     -1.621762319
E(CCSD)                                    ...   -385.605437769
E(CCSD(T))                                 ...   -385.666591709


Maximum memory used throughout the entire calculation: 7984.8 MB


------------------------------------------------------------------------------- 
                                     TIMINGS                                   
------------------------------------------------------------------------------- 


Total execution time                   ...      935.503 sec

Localization of occupied MO's          ...        0.672 sec (  0.1%)
Fock Matrix Formation                  ...        3.312 sec (  0.4%)
Global overlap, Fock, MKN matrices     ...        0.246 sec (  0.0%)
Differential overlap integrals         ...        0.155 sec (  0.0%)
Organizing maps                        ...        0.073 sec (  0.0%)
RI 3-index integral generations        ...       21.508 sec (  2.3%)
RI-PNO integral transformation         ...      199.048 sec ( 21.3%)
Initial Guess                          ...       31.643 sec (  3.4%)
DIIS Solver                            ...        2.095 sec (  0.2%)
State Vector Update                    ...        0.043 sec (  0.0%)
Sigma-vector construction              ...      183.790 sec ( 19.6%)
  <D|H|D>(0-ext)                       ...        4.830 sec (  2.6% of sigma)
  <D|H|D>(2-ext Fock)                  ...        0.018 sec (  0.0% of sigma)
  <D|H|D>(2-ext)                       ...       29.564 sec ( 16.1% of sigma)
  <D|H|D>(4-ext)                       ...       14.439 sec (  7.9% of sigma)
  <D|H|D>(4-ext-corr)                  ...       91.033 sec ( 49.5% of sigma)
  CCSD doubles correction              ...        0.298 sec (  0.2% of sigma)
  <S|H|S>                              ...        0.554 sec (  0.3% of sigma)
  <S|H|D>(1-ext)                       ...        0.604 sec (  0.3% of sigma)
  <D|H|S>(1-ext)                       ...        0.017 sec (  0.0% of sigma)
  <S|H|D>(3-ext)                       ...        0.534 sec (  0.3% of sigma)
  Fock-dressing                        ...       23.166 sec ( 12.6% of sigma)
  Singles amplitudes                   ...        0.774 sec (  0.4% of sigma)
  (ik|jl)-dressing                     ...        3.534 sec (  1.9% of sigma)
  (ij|ab),(ia|jb)-dressing             ...        2.941 sec (  1.6% of sigma)
  Pair energies                        ...        0.010 sec (  0.0% of sigma)
Total Time for computing (T)           ...      493.627 sec ( 52.8% of ALL)


-------------------------   --------------------
FINAL SINGLE POINT ENERGY      -385.666591709229
-------------------------   --------------------


                            ***************************************
                            *     ORCA property calculations      *
                            ***************************************

                                    ---------------------
                                    Active property flags
                                    ---------------------
   (+) Dipole Moment


------------------------------------------------------------------------------
                       ORCA ELECTRIC PROPERTIES CALCULATION
------------------------------------------------------------------------------

Dipole Moment Calculation                       ... on
Quadrupole Moment Calculation                   ... off
Polarizability Calculation                      ... off
GBWName                                         ... 2_methoxytetrahydropyran_ax.gbw
Electron density file                           ... 2_methoxytetrahydropyran_ax.scfp.tmp
The origin for moment calculation is the CENTER OF MASS  = ( 0.022403,  0.005045  0.023400)

-------------
DIPOLE MOMENT
-------------
                                X             Y             Z
Electronic contribution:      1.34425       0.30031       1.39151
Nuclear contribution   :     -1.43371      -0.32281      -1.49765
                        -----------------------------------------
Total Dipole Moment    :     -0.08946      -0.02251      -0.10615
                        -----------------------------------------
Magnitude (a.u.)       :      0.14063
Magnitude (Debye)      :      0.35745



--------------------
Rotational spectrum 
--------------------
 
Rotational constants in cm-1:     0.114025     0.055881     0.046537 
Rotational constants in MHz :  3418.395562  1675.283666  1395.130379 

 Dipole components along the rotational axes: 
x,y,z [a.u.] :    -0.088551    -0.029824    -0.105098 
x,y,z [Debye]:    -0.225078    -0.075808    -0.267137 

 

Timings for individual modules:

Sum of individual times         ...      957.395 sec (=  15.957 min)
GTO integral calculation        ...        0.700 sec (=   0.012 min)   0.1 %
SCF iterations                  ...       20.743 sec (=   0.346 min)   2.2 %
MDCI module                     ...      935.952 sec (=  15.599 min)  97.8 %
                             ****ORCA TERMINATED NORMALLY****
TOTAL RUN TIME: 0 days 0 hours 15 minutes 57 seconds 810 msec
2_methoxytetrahydropyran_ax.gbw -> /home1/pantazis/klk/xyz_1/Oxygen_compounds/2_methoxytetrahydropyran_ax.gbw
2_methoxytetrahydropyran_ax.job -> /home1/pantazis/klk/xyz_1/Oxygen_compounds/2_methoxytetrahydropyran_ax.job
2_methoxytetrahydropyran_ax.loc -> /home1/pantazis/klk/xyz_1/Oxygen_compounds/2_methoxytetrahydropyran_ax.loc
2_methoxytetrahydropyran_ax.nodes -> /home1/pantazis/klk/xyz_1/Oxygen_compounds/2_methoxytetrahydropyran_ax.nodes
2_methoxytetrahydropyran_ax.prop -> /home1/pantazis/klk/xyz_1/Oxygen_compounds/2_methoxytetrahydropyran_ax.prop
2_methoxytetrahydropyran_ax_property.txt -> /home1/pantazis/klk/xyz_1/Oxygen_compounds/2_methoxytetrahydropyran_ax_property.txt
2_methoxytetrahydropyran_ax.xyz -> /home1/pantazis/klk/xyz_1/Oxygen_compounds/2_methoxytetrahydropyran_ax.xyz
cp: cannot stat 2_methoxytetrahydropyran_ax.asa.inp: No such file or directory
