! Job execution by suborca V 6.07 on ZEUS !
Job started from zeus1, running /scratch/pantazis/2_methoxytetrahydropyran_eq__8f8Amx/orca/orca copied from /opt/orca on zeussn119 in /scratch/pantazis/2_methoxytetrahydropyran_eq__8f8Amx
Job execution start: Thu Jun 27 13:14:43 CEST 2019
Shared library path: /scratch/pantazis/2_methoxytetrahydropyran_eq__8f8Amx/orca:/opt/openmpi_1.10.2/lib:/opt/intel/mkl/lib/intel64:/opt/intel/lib/intel64:
PBS Job ID is: 158110.icqc
izeussn119
izeussn119
izeussn119
izeussn119
izeussn119
izeussn119
izeussn119
izeussn119

                                 *****************
                                 * O   R   C   A *
                                 *****************

           --- An Ab Initio, DFT and Semiempirical electronic structure package ---

                  #######################################################
                  #                        -***-                        #
                  #          Department of theory and spectroscopy      #
                  #               Directorship: Frank Neese             #
                  #        Max Planck Institute fuer Kohlenforschung    #
                  #                Kaiser Wilhelm Platz 1               #
                  #                 D-45470 Muelheim/Ruhr               #
                  #                      Germany                        #
                  #                                                     #
                  #                  All rights reserved                #
                  #                        -***-                        #
                  #######################################################


                         Program Version 4.1.x  -  STABLE  -
                                (SVN: $Rev: 14094$)
                ($Date: 2019-06-14 15:01:15 +0200 (Fri, 14 Jun 2019) $)

                         (BUILD: $Sun Jun 23 06:18:31 CEST 2019$)


 With contributions from (in alphabetic order):
   Daniel Aravena         : Magnetic Properties
   Michael Atanasov       : Ab Initio Ligand Field Theory
   Alexander A. Auer      : GIAO ZORA
   Ute Becker             : Parallelization
   Giovanni Bistoni       : ED, Open-shell LED
   Martin Brehm           : Molecular dynamics
   Dmytro Bykov           : SCF Hessian
   Vijay G. Chilkuri      : MRCI spin determinant printing
   Dipayan Datta          : RHF DLPNO-CCSD density
   Achintya Kumar Dutta   : EOM-CC, STEOM-CC
   Dmitry Ganyushin       : Spin-Orbit,Spin-Spin,Magnetic field MRCI
   Miquel Garcia          : C-PCM Hessian
   Yang Guo               : DLPNO-NEVPT2, CIM, IAO-localization
   Andreas Hansen         : Spin unrestricted coupled pair/coupled cluster methods
   Benjamin Helmich-Paris : CASSCF linear response (MC-RPA)
   Lee Huntington         : MR-EOM, pCC
   Robert Izsak           : Overlap fitted RIJCOSX, COSX-SCS-MP3, EOM
   Christian Kollmar      : KDIIS, OOCD, Brueckner-CCSD(T), CCSD density
   Simone Kossmann        : Meta GGA functionals, TD-DFT gradient, OOMP2, MP2 Hessian
   Martin Krupicka        : AUTO-CI
   Lucas Lang             : DCDCAS
   Dagmar Lenk            : GEPOL surface, SMD
   Dimitrios Liakos       : Extrapolation schemes; parallel MDCI
   Dimitrios Manganas     : ROCIS; embedding schemes
   Dimitrios Pantazis     : SARC Basis sets
   Taras Petrenko         : DFT Hessian,TD-DFT gradient, ASA, ECA, R-Raman, ABS, FL, XAS/XES, NRVS
   Peter Pinski           : DLPNO-MP2, DLPNO-MP2 Gradient
   Christoph Reimann      : Effective Core Potentials
   Marius Retegan         : Local ZFS, SOC
   Christoph Riplinger    : Optimizer, TS searches, QM/MM, DLPNO-CCSD(T), (RO)-DLPNO pert. Triples
   Tobias Risthaus        : Range-separated hybrids, TD-DFT gradient, RPA, STAB
   Michael Roemelt        : Restricted open shell CIS
   Masaaki Saitow         : Open-shell DLPNO
   Barbara Sandhoefer     : DKH picture change effects
   Avijit Sen             : IP-ROCIS
   Kantharuban Sivalingam : CASSCF convergence, NEVPT2, FIC-MRCI
   Bernardo de Souza      : ESD, SOC TD-DFT
   Georgi Stoychev        : AutoAux, RI-MP2 NMR
   Willem Van den Heuvel  : Paramagnetic NMR
   Boris Wezisla          : Elementary symmetry handling
   Frank Wennmohs         : Technical directorship


 We gratefully acknowledge several colleagues who have allowed us to
 interface, adapt or use parts of their codes:
   Stefan Grimme, W. Hujo, H. Kruse,             : VdW corrections, initial TS optimization,
                  C. Bannwarth                     DFT functionals, gCP, sTDA/sTD-DF
   Ed Valeev                                     : LibInt (2-el integral package), F12 methods
   Garnet Chan, S. Sharma, J. Yang, R. Olivares  : DMRG
   Ulf Ekstrom                                   : XCFun DFT Library
   Mihaly Kallay                                 : mrcc  (arbitrary order and MRCC methods)
   Andreas Klamt, Michael Diedenhofen            : otool_cosmo (COSMO solvation model)
   Jiri Pittner, Ondrej Demel                    : Mk-CCSD
   Frank Weinhold                                : gennbo (NPA and NBO analysis)
   Christopher J. Cramer and Donald G. Truhlar   : smd solvation model
   Lars Goerigk                                  : TD-DFT with DH, B97 family of functionals
   V. Asgeirsson, H. Jonsson                     : NEB implementation
   FAccTs GmbH                                   : IRC, NEB, NEB-TS, Multilevel


 Your calculation uses the libint2 library for the computation of 2-el integrals
 For citations please refer to: http://libint.valeyev.net

 This ORCA versions uses:
   CBLAS   interface :  Fast vector & matrix operations
   LAPACKE interface :  Fast linear algebra routines
   SCALAPACK package :  Parallel linear algebra routines




***************************************
The coordinates will be read from file: 2_methoxytetrahydropyran_eq.xyz
***************************************


----- Orbital basis set information -----
Your calculation utilizes the basis: cc-pVTZ 
       H, B-Ne : Obtained from the ccRepo (grant-hill.group.shef.ac.uk/ccrepo) Feb. 2017
                 T. H. Dunning, Jr., J. Chem. Phys. 90, 1007 (1989)
            He : Obtained from the ccRepo (grant-hill.group.shef.ac.uk/ccrepo) Feb. 2017
                 D. E. Woon, T. H. Dunning, Jr., J. Chem. Phys. 100, 2975 (1994)
  Li-Be, Na-Mg : Obtained from the ccRepo (grant-hill.group.shef.ac.uk/ccrepo) Feb. 2017
                 B. P. Prascher, D. E. Woon, K. A. Peterson, T. H. Dunning, Jr., A. K. Wilson, Theor. Chem. Acc. 128, 69 (2011)
         Al-Ar : Obtained from the ccRepo (grant-hill.group.shef.ac.uk/ccrepo) Feb. 2017
                 D. E. Woon, T. H. Dunning, Jr., J. Chem. Phys. 98, 1358 (1993)
            Ca : Obtained from the Peterson Research Group Website (tyr0.chem.wsu.edu/~kipeters) Feb. 2017
                 J. Koput, K. A. Peterson, J. Phys. Chem. 106, 9595 (2002)
         Sc-Zn : Obtained from the ccRepo (grant-hill.group.shef.ac.uk/ccrepo) Feb. 2017
                 N. B. Balabanov, K. A. Peterson, J. Chem. Phys. 123, 064107 (2005)
                 N. B. Balabanov, K. A. Peterson, J. Chem. Phys. 125, 074110 (2006)
         Ga-Kr : Obtained from the ccRepo (grant-hill.group.shef.ac.uk/ccrepo) Feb. 2017
                 A. K. Wilson, D. E. Woon, K. A. Peterson, T. H. Dunning, Jr., J. Chem. Phys. 110, 7667 (1999)
             Y : Obtained from the ccRepo (grant-hill.group.shef.ac.uk/ccrepo) Feb. 2017
                 K. A. Peterson, D. Figgen, M. Dolg, H. Stoll, J. Chem. Phys. 126, 124101 (2007)
        Ag, Au : Obtained from the Peterson Research Group Website (tyr0.chem.wsu.edu/~kipeters) Feb. 2017
                 K. A. Peterson, C. Puzzarini, Theor. Chem. Acc. 114, 283 (2005)

----- AuxC basis set information -----
Your calculation utilizes the auxiliary basis: cc-pVTZ/C 
  Obtained from the EMSL Basis Set Exchange (bse.pnl.gov) Feb. 2017
  H-He, B-F, Al-Ar, Ga-Kr : F. Weigend, A. Kohn, C. Hattig, J. Chem. Phys. 116, 3175 (2002)
             Li-Be, Na-Mg : C. Haettig, Phys. Chem. Chem. Phys. 7, 59 (2005)
                       Ne : C. Haettig, Phys. Chem. Chem. Phys. 7, 59 (2005)
                            F. Weigend, A. Kohn, C. Hattig, J. Chem. Phys. 116, 3175 (2002)
                    Sc-Zn : J. G. Hill, J. A. Platts, J. Chem. Phys. 128, 044104 (2008)

----- AuxJK basis set information -----
Your calculation utilizes the auxiliary basis: cc-pVTZ/JK 
  H, B-F, Al-Cl, Ga-Br : Obtained from the TURBOMOLE 7.0 basis set library

================================================================================
                                        WARNINGS
                       Please study these warnings very carefully!
================================================================================


WARNING: MDCI localization with Augmented Hessian Foster-Boys
  ===> : Switching off randomization!

WARNING: Post HF methods need fully converged wavefunctions
  ===> : Setting SCFConvForced true
         You can overwrite this default with %scf ConvForced false 


INFO   : the flag for use of LIBINT has been found!

================================================================================
                                       INPUT FILE
================================================================================
NAME = 2_methoxytetrahydropyran_eq.inp
|  1> ! RHF DLPNO-CCSD(T) cc-pVTZ RIJK cc-pVTZ/JK cc-pVTZ/C
|  2> ! KDIIS SOSCF TightSCF TightPNO
|  3> 
|  4> %pal nprocs 8 end
|  5> 
|  6> %maxcore 8000
|  7> 
|  8> %scf maxiter 300
|  9>      shift shift 0.2 erroff 0.1 end
| 10> end
| 11> 
| 12> * xyzfile 0 1 2_methoxytetrahydropyran_eq.xyz 
| 13> 
| 14> 
| 15>                          ****END OF INPUT****
================================================================================

                       ****************************
                       * Single Point Calculation *
                       ****************************

---------------------------------
CARTESIAN COORDINATES (ANGSTROEM)
---------------------------------
  C      0.562700    0.268100    0.227520
  O      0.155300   -0.992480   -0.309850
  C     -1.126560   -1.405590    0.167140
  C     -2.214290   -0.403560   -0.223930
  C     -1.842920    1.002120    0.273520
  C     -0.414920    1.370700   -0.162690
  O      1.821820    0.580200   -0.276860
  C      2.861850   -0.305660    0.132000
  H     -1.303800   -2.390990   -0.272180
  H     -1.093560   -1.522630    1.264560
  H     -3.177560   -0.724520    0.192220
  H     -2.314140   -0.399100   -1.316760
  H     -1.908660    1.027540    1.370910
  H     -2.555730    1.746800   -0.097910
  H     -0.092080    2.314070    0.291040
  H     -0.360940    1.488060   -1.251430
  H      0.612020    0.161820    1.331800
  H      3.792840    0.113500   -0.254300
  H      2.918110   -0.362450    1.229220
  H      2.711300   -1.310520   -0.274840

----------------------------
CARTESIAN COORDINATES (A.U.)
----------------------------
  NO LB      ZA    FRAG     MASS         X           Y           Z
   0 C     6.0000    0    12.011    1.063349    0.506636    0.429950
   1 O     8.0000    0    15.999    0.293474   -1.875515   -0.585532
   2 C     6.0000    0    12.011   -2.128890   -2.656180    0.315849
   3 C     6.0000    0    12.011   -4.184402   -0.762618   -0.423166
   4 C     6.0000    0    12.011   -3.482614    1.893732    0.516878
   5 C     6.0000    0    12.011   -0.784085    2.590248   -0.307440
   6 O     8.0000    0    15.999    3.442741    1.096419   -0.523190
   7 C     6.0000    0    12.011    5.408113   -0.577614    0.249444
   8 H     1.0000    0     1.008   -2.463825   -4.518316   -0.514346
   9 H     1.0000    0     1.008   -2.066529   -2.877354    2.389672
  10 H     1.0000    0     1.008   -6.004718   -1.369144    0.363243
  11 H     1.0000    0     1.008   -4.373091   -0.754190   -2.488316
  12 H     1.0000    0     1.008   -3.606845    1.941769    2.590644
  13 H     1.0000    0     1.008   -4.829630    3.300974   -0.185023
  14 H     1.0000    0     1.008   -0.174006    4.372959    0.549986
  15 H     1.0000    0     1.008   -0.682078    2.812026   -2.364860
  16 H     1.0000    0     1.008    1.156550    0.305795    2.516737
  17 H     1.0000    0     1.008    7.167429    0.214484   -0.480557
  18 H     1.0000    0     1.008    5.514429   -0.684931    2.322889
  19 H     1.0000    0     1.008    5.123614   -2.476524   -0.519372

--------------------------------
INTERNAL COORDINATES (ANGSTROEM)
--------------------------------
 C      0   0   0     0.000000000000     0.00000000     0.00000000
 O      1   0   0     1.429616456711     0.00000000     0.00000000
 C      2   1   0     1.428756239461   112.65216199     0.00000000
 C      3   2   1     1.529756980275   111.29697521    60.85665239
 C      4   3   2     1.536654952096   110.15715358   304.73891530
 C      1   2   3     1.524379043578   111.02711682   299.10360233
 O      1   2   3     1.391829288670   108.62109592   179.28934227
 C      7   1   2     1.426035357240   114.61878632   295.07909192
 H      3   2   1     1.093356867633   105.77652938   182.55439527
 H      3   2   1     1.104136775042   109.61227349   298.73385521
 H      4   3   2     1.097308177770   109.61189775   182.43209652
 H      4   3   2     1.097391144032   108.78020917    65.27646306
 H      5   4   3     1.099651188377   109.25391673   290.55036472
 H      5   4   3     1.095721973586   110.77770738   173.55480357
 H      6   1   2     1.095464985931   109.13894686   178.16891246
 H      6   1   2     1.096376758966   107.46041768   294.73102823
 H      1   2   3     1.110478374035   107.58090611    60.28042754
 H      8   7   1     1.091634176682   106.37983420   185.36119885
 H      8   7   1     1.100128183486   110.81289066   303.96494342
 H      8   7   1     1.094498838601   111.31134016    65.81289206

---------------------------
INTERNAL COORDINATES (A.U.)
---------------------------
 C      0   0   0     0.000000000000     0.00000000     0.00000000
 O      1   0   0     2.701583579731     0.00000000     0.00000000
 C      2   1   0     2.699958004713   112.65216199     0.00000000
 C      3   2   1     2.890821744174   111.29697521    60.85665239
 C      4   3   2     2.903857021795   110.15715358   304.73891530
 C      1   2   3     2.880658916651   111.02711682   299.10360233
 O      1   2   3     2.630176180757   108.62109592   179.28934227
 C      7   1   2     2.694816282473   114.61878632   295.07909192
 H      3   2   1     2.066145046468   105.77652938   182.55439527
 H      3   2   1     2.086516119220   109.61227349   298.73385521
 H      4   3   2     2.073611940497   109.61189775   182.43209652
 H      4   3   2     2.073768724011   108.78020917    65.27646306
 H      5   4   3     2.078039588874   109.25391673   290.55036472
 H      5   4   3     2.070614448998   110.77770738   173.55480357
 H      6   1   2     2.070128812709   109.13894686   178.16891246
 H      6   1   2     2.071851814041   107.46041768   294.73102823
 H      1   2   3     2.098500004569   107.58090611    60.28042754
 H      8   7   1     2.062889632357   106.37983420   185.36119885
 H      8   7   1     2.078940978997   110.81289066   303.96494342
 H      8   7   1     2.068303058852   111.31134016    65.81289206

---------------------
BASIS SET INFORMATION
---------------------
There are 3 groups of distinct atoms

 Group   1 Type C   : 18s5p2d1f contracted to 4s3p2d1f pattern {8811/311/11/1}
 Group   2 Type O   : 18s5p2d1f contracted to 4s3p2d1f pattern {8811/311/11/1}
 Group   3 Type H   : 5s2p1d contracted to 3s2p1d pattern {311/11/1}

Atom   0C    basis set group =>   1
Atom   1O    basis set group =>   2
Atom   2C    basis set group =>   1
Atom   3C    basis set group =>   1
Atom   4C    basis set group =>   1
Atom   5C    basis set group =>   1
Atom   6O    basis set group =>   2
Atom   7C    basis set group =>   1
Atom   8H    basis set group =>   3
Atom   9H    basis set group =>   3
Atom  10H    basis set group =>   3
Atom  11H    basis set group =>   3
Atom  12H    basis set group =>   3
Atom  13H    basis set group =>   3
Atom  14H    basis set group =>   3
Atom  15H    basis set group =>   3
Atom  16H    basis set group =>   3
Atom  17H    basis set group =>   3
Atom  18H    basis set group =>   3
Atom  19H    basis set group =>   3
-------------------------------
AUXILIARY BASIS SET INFORMATION
-------------------------------
There are 3 groups of distinct atoms

 Group   1 Type C   : 8s6p5d3f1g contracted to 8s6p5d3f1g pattern {11111111/111111/11111/111/1}
 Group   2 Type O   : 8s6p5d3f1g contracted to 8s6p5d3f1g pattern {11111111/111111/11111/111/1}
 Group   3 Type H   : 4s3p2d1f contracted to 4s3p2d1f pattern {1111/111/11/1}

Atom   0C    basis set group =>   1
Atom   1O    basis set group =>   2
Atom   2C    basis set group =>   1
Atom   3C    basis set group =>   1
Atom   4C    basis set group =>   1
Atom   5C    basis set group =>   1
Atom   6O    basis set group =>   2
Atom   7C    basis set group =>   1
Atom   8H    basis set group =>   3
Atom   9H    basis set group =>   3
Atom  10H    basis set group =>   3
Atom  11H    basis set group =>   3
Atom  12H    basis set group =>   3
Atom  13H    basis set group =>   3
Atom  14H    basis set group =>   3
Atom  15H    basis set group =>   3
Atom  16H    basis set group =>   3
Atom  17H    basis set group =>   3
Atom  18H    basis set group =>   3
Atom  19H    basis set group =>   3
-------------------------------
AUXILIARY BASIS SET INFORMATION
-------------------------------
There are 3 groups of distinct atoms

 Group   1 Type C   : 10s7p5d2f1g contracted to 10s7p5d2f1g pattern {1111111111/1111111/11111/11/1}
 Group   2 Type O   : 10s7p5d2f1g contracted to 10s7p5d2f1g pattern {1111111111/1111111/11111/11/1}
 Group   3 Type H   : 4s3p2d1f contracted to 4s3p2d1f pattern {1111/111/11/1}

Atom   0C    basis set group =>   1
Atom   1O    basis set group =>   2
Atom   2C    basis set group =>   1
Atom   3C    basis set group =>   1
Atom   4C    basis set group =>   1
Atom   5C    basis set group =>   1
Atom   6O    basis set group =>   2
Atom   7C    basis set group =>   1
Atom   8H    basis set group =>   3
Atom   9H    basis set group =>   3
Atom  10H    basis set group =>   3
Atom  11H    basis set group =>   3
Atom  12H    basis set group =>   3
Atom  13H    basis set group =>   3
Atom  14H    basis set group =>   3
Atom  15H    basis set group =>   3
Atom  16H    basis set group =>   3
Atom  17H    basis set group =>   3
Atom  18H    basis set group =>   3
Atom  19H    basis set group =>   3


           ************************************************************
           *        Program running with 8 parallel MPI-processes     *
           *              working on a common directory               *
           ************************************************************
------------------------------------------------------------------------------
                           ORCA GTO INTEGRAL CALCULATION
                           -- RI-GTO INTEGRALS CHOSEN --
------------------------------------------------------------------------------

                         BASIS SET STATISTICS AND STARTUP INFO

Gaussian basis set:
 # of primitive gaussian shells          ...  304
 # of primitive gaussian functions       ...  592
 # of contracted shells                  ...  152
 # of contracted basis functions         ...  408
 Highest angular momentum                ...    3
 Maximum contraction depth               ...    8
Auxiliary gaussian basis set:
 # of primitive gaussian shells          ...  320
 # of primitive gaussian functions       ...  992
 # of contracted shells                  ...  320
 # of contracted aux-basis functions     ...  992
 Highest angular momentum                ...    4
 Maximum contraction depth               ...    1
Ratio of auxiliary to basis functions    ...  2.43
Integral package used                  ... LIBINT
 One Electron integrals                  ... done
 Ordering auxiliary basis shells         ... done
 Integral threshhold             Thresh  ...  2.500e-11
 Primitive cut-off               TCut    ...  2.500e-12
 Pre-screening matrix                    ... done
 Shell pair data                         ... 
 Ordering of the shell pairs             ... done (   0.002 sec) 10681 of 11628 pairs
 Determination of significant pairs      ... done (   0.000 sec)
 Creation of shell pair data             ... done (   0.002 sec)
 Storage of shell pair data              ... done (   0.002 sec)
 Shell pair data done in (   0.007 sec)
 Computing two index integrals           ... done
 Cholesky decomposition of the V-matrix  ... done


Timings:
 Total evaluation time                   ...   2.105 sec (  0.035 min)
 One electron matrix time                ...   1.609 sec (  0.027 min) = 76.4%
 Schwartz matrix evaluation time         ...   0.272 sec (  0.005 min) = 12.9%
 Two index repulsion integral time       ...   0.121 sec (  0.002 min) =  5.7%
 Cholesky decomposition of V             ...   0.070 sec (  0.001 min) =  3.3%
 Three index repulsion integral time     ...   0.000 sec (  0.000 min) =  0.0%



           ************************************************************
           *        Program running with 8 parallel MPI-processes     *
           *              working on a common directory               *
           ************************************************************
-------------------------------------------------------------------------------
                                 ORCA SCF
-------------------------------------------------------------------------------

------------
SCF SETTINGS
------------
Hamiltonian:
 Ab initio Hamiltonian  Method          .... Hartree-Fock(GTOs)
 RI-approximation to the Coulomb term is turned on
   Number of auxiliary basis functions  .... 992
   RI-JK (J+K treated both via RI)      .... on


General Settings:
 Integral files         IntName         .... 2_methoxytetrahydropyran_eq
 Hartree-Fock type      HFTyp           .... RHF
 Total Charge           Charge          ....    0
 Multiplicity           Mult            ....    1
 Number of Electrons    NEL             ....   64
 Basis Dimension        Dim             ....  408
 Nuclear Repulsion      ENuc            ....    416.4087144071 Eh

Convergence Acceleration:
 DIIS                   CNVDIIS         .... off
 Newton-Raphson         CNVNR           .... off
 SOSCF                  CNVSOSCF        .... on
   Start iteration      SOSCFMaxIt      ....   150
   Startup grad/error   SOSCFStart      ....  0.003300
 Level Shifting         CNVShift        .... on
   Level shift para.    LevelShift      ....    0.2000
   Turn off err/grad.   ShiftErr        ....    0.1000
 Zerner damping         CNVZerner       .... off
 Static damping         CNVDamp         .... off
 Fernandez-Rico         CNVRico         .... off

SCF Procedure:
 Maximum # iterations   MaxIter         ....   300
 SCF integral mode      SCFMode         .... Direct
   Integral package                     .... LIBINT
 Reset frequency        DirectResetFreq ....    20
 Integral Threshold     Thresh          ....  2.500e-11 Eh
 Primitive CutOff       TCut            ....  2.500e-12 Eh

Convergence Tolerance:
 Convergence Check Mode ConvCheckMode   .... Total+1el-Energy
 Convergence forced     ConvForced      .... 1
 Energy Change          TolE            ....  1.000e-08 Eh
 1-El. energy change                    ....  1.000e-05 Eh
 Orbital Gradient       TolG            ....  1.000e-05
 Orbital Rotation angle TolX            ....  1.000e-05


Diagonalization of the overlap matrix:
Smallest eigenvalue                        ... 2.864e-04
Time for diagonalization                   ...    0.033 sec
Threshold for overlap eigenvalues          ... 1.000e-08
Number of eigenvalues below threshold      ... 0
Time for construction of square roots      ...    0.039 sec
Total time needed                          ...    0.073 sec

-------------------
DFT GRID GENERATION
-------------------

General Integration Accuracy     IntAcc      ...  4.340
Radial Grid Type                 RadialGrid  ... Gauss-Chebyshev
Angular Grid (max. acc.)         AngularGrid ... Lebedev-110
Angular grid pruning method      GridPruning ... 3 (G Style)
Weight generation scheme         WeightScheme... Becke
Basis function cutoff            BFCut       ...    1.0000e-11
Integration weight cutoff        WCut        ...    1.0000e-14
Grids for H and He will be reduced by one unit

# of grid points (after initial pruning)     ...  22896 (   0.0 sec)
# of grid points (after weights+screening)   ...  20877 (   0.0 sec)
nearest neighbour list constructed           ...    0.0 sec
Grid point re-assignment to atoms done       ...    0.0 sec
Grid point division into batches done        ...    0.0 sec
Reduced shell lists constructed in    0.2 sec

Total number of grid points                  ...    20877
Total number of batches                      ...      337
Average number of points per batch           ...       61
Average number of grid points per atom       ...     1044
Average number of shells per batch           ...   129.77 (85.38%)
Average number of basis functions per batch  ...   344.09 (84.34%)
Average number of large shells per batch     ...   103.95 (80.11%)
Average number of large basis fcns per batch ...   270.91 (78.73%)
Average number of aux-shells per batch       ...   129.77 (40.55%)
Average number of aux functions per batch    ...   344.09 (34.69%)
Maximum spatial batch extension              ...   3.52,  4.13,  8.24 au
Average spatial batch extension              ...   0.21,  0.22,  0.23 au

Time for grid setup =    0.184 sec

------------------------------
INITIAL GUESS: MODEL POTENTIAL
------------------------------
Loading Hartree-Fock densities                     ... done
Calculating cut-offs                               ... done
Setting up the integral package                    ... done
Initializing the effective Hamiltonian             ... done
Starting the Coulomb interaction                   ... done (   0.1 sec)
Reading the grid                                   ... done
Mapping shells                                     ... done
Starting the XC term evaluation                    ... done (   0.1 sec)
Transforming the Hamiltonian                       ... done (   0.0 sec)
Diagonalizing the Hamiltonian                      ... done (   0.0 sec)
Back transforming the eigenvectors                 ... done (   0.0 sec)
Now organizing SCF variables                       ... done
                      ------------------
                      INITIAL GUESS DONE (   0.5 sec)
                      ------------------
--------------
SCF ITERATIONS
--------------
ITER       Energy         Delta-E        Max-DP      RMS-DP      [F,P]   Gradient Norm
                             ****Turning on KDIIS(Cayley)****
  0   -383.6848339194   0.000000000000 0.00972935  0.00021585  0.1613183   0.147254612
  1   -383.7799064254  -0.095072505976 0.01796418  0.00026485  0.1479708   0.128983558
  2   -383.8677026659  -0.087796240492 0.02983709  0.00045279  0.1188054   0.104587385
  3   -383.9755104736  -0.107807807705 0.04520762  0.00071923  0.0718991   0.063837572
                      *** Initiating the SOSCF procedure ***
                           *** Shutting down KDIIS ***
                      *** Re-Reading the Fockian *** 
                      *** Removing any level shift *** 
ITER      Energy       Delta-E        Grad      Rot      Max-DP    RMS-DP
  4   -384.04351495  -0.0680044790  0.001232  0.001232  0.001667  0.000044
  5   -384.04375997  -0.0002450169  0.000519  0.000570  0.001199  0.000026
  6   -384.04378356  -0.0000235954  0.000263  0.000212  0.000587  0.000012
  7   -384.04379063  -0.0000070670  0.000040  0.000048  0.000277  0.000005
  8   -384.04379085  -0.0000002150  0.000022  0.000026  0.000117  0.000002
  9   -384.04379088  -0.0000000362  0.000009  0.000005  0.000015  0.000000
                  ***Gradient check signals convergence***
              ***Rediagonalizing the Fockian in SOSCF/NRSCF***

               *****************************************************
               *                     SUCCESS                       *
               *           SCF CONVERGED AFTER  10 CYCLES          *
               *****************************************************


----------------
TOTAL SCF ENERGY
----------------

Total Energy       :         -384.04379089 Eh          -10450.36284 eV

Components:
Nuclear Repulsion  :          416.40871441 Eh           11331.05718 eV
Electronic Energy  :         -800.45250530 Eh          -21781.42002 eV
One Electron Energy:        -1349.62710803 Eh          -36725.22068 eV
Two Electron Energy:          549.17460273 Eh           14943.80067 eV

Virial components:
Potential Energy   :         -767.38890915 Eh          -20881.71382 eV
Kinetic Energy     :          383.34511827 Eh           10431.35099 eV
Virial Ratio       :            2.00182257


---------------
SCF CONVERGENCE
---------------

  Last Energy change         ...   -5.1532e-09  Tolerance :   1.0000e-08
  Last MAX-Density change    ...    6.8358e-06  Tolerance :   1.0000e-07
  Last RMS-Density change    ...    1.4303e-07  Tolerance :   5.0000e-09
  Last Orbital Gradient      ...    2.0141e-06  Tolerance :   1.0000e-05
  Last Orbital Rotation      ...    2.1237e-06  Tolerance :   1.0000e-05

             **** THE GBW FILE WAS UPDATED (2_methoxytetrahydropyran_eq.gbw) ****
             **** DENSITY FILE WAS UPDATED (2_methoxytetrahydropyran_eq.scfp.tmp) ****
             **** ENERGY FILE WAS UPDATED (2_methoxytetrahydropyran_eq.en.tmp) ****
----------------
ORBITAL ENERGIES
----------------

  NO   OCC          E(Eh)            E(eV) 
   0   2.0000     -20.554594      -559.3189 
   1   2.0000     -20.549704      -559.1859 
   2   2.0000     -11.326561      -308.2114 
   3   2.0000     -11.275642      -306.8258 
   4   2.0000     -11.265297      -306.5443 
   5   2.0000     -11.227307      -305.5105 
   6   2.0000     -11.224241      -305.4271 
   7   2.0000     -11.219044      -305.2857 
   8   2.0000      -1.406442       -38.2712 
   9   2.0000      -1.337004       -36.3817 
  10   2.0000      -1.076535       -29.2940 
  11   2.0000      -1.021589       -27.7988 
  12   2.0000      -0.929293       -25.2873 
  13   2.0000      -0.871134       -23.7047 
  14   2.0000      -0.839563       -22.8457 
  15   2.0000      -0.778229       -21.1767 
  16   2.0000      -0.684870       -18.6363 
  17   2.0000      -0.673167       -18.3178 
  18   2.0000      -0.648417       -17.6443 
  19   2.0000      -0.624420       -16.9913 
  20   2.0000      -0.604286       -16.4434 
  21   2.0000      -0.595184       -16.1958 
  22   2.0000      -0.585409       -15.9298 
  23   2.0000      -0.543819       -14.7981 
  24   2.0000      -0.532661       -14.4945 
  25   2.0000      -0.510386       -13.8883 
  26   2.0000      -0.485414       -13.2088 
  27   2.0000      -0.481606       -13.1052 
  28   2.0000      -0.473207       -12.8766 
  29   2.0000      -0.456843       -12.4313 
  30   2.0000      -0.431521       -11.7423 
  31   2.0000      -0.405599       -11.0369 
  32   0.0000       0.141053         3.8382 
  33   0.0000       0.153656         4.1812 
  34   0.0000       0.167621         4.5612 
  35   0.0000       0.168004         4.5716 
  36   0.0000       0.194422         5.2905 
  37   0.0000       0.208909         5.6847 
  38   0.0000       0.213117         5.7992 
  39   0.0000       0.218569         5.9476 
  40   0.0000       0.227462         6.1896 
  41   0.0000       0.232582         6.3289 
  42   0.0000       0.248299         6.7566 
  43   0.0000       0.252153         6.8614 
  44   0.0000       0.280669         7.6374 
  45   0.0000       0.293058         7.9745 
  46   0.0000       0.318085         8.6555 
  47   0.0000       0.336639         9.1604 
  48   0.0000       0.357994         9.7415 
  49   0.0000       0.377216        10.2646 
  50   0.0000       0.384418        10.4605 
  51   0.0000       0.398286        10.8379 
  52   0.0000       0.402764        10.9598 
  53   0.0000       0.418821        11.3967 
  54   0.0000       0.426609        11.6086 
  55   0.0000       0.447121        12.1668 
  56   0.0000       0.461126        12.5479 
  57   0.0000       0.497835        13.5468 
  58   0.0000       0.520065        14.1517 
  59   0.0000       0.531364        14.4591 
  60   0.0000       0.545804        14.8521 
  61   0.0000       0.559349        15.2207 
  62   0.0000       0.563666        15.3381 
  63   0.0000       0.574584        15.6352 
  64   0.0000       0.584329        15.9004 
  65   0.0000       0.597207        16.2508 
  66   0.0000       0.601676        16.3724 
  67   0.0000       0.610393        16.6096 
  68   0.0000       0.627574        17.0771 
  69   0.0000       0.627920        17.0866 
  70   0.0000       0.635662        17.2972 
  71   0.0000       0.639165        17.3926 
  72   0.0000       0.648137        17.6367 
  73   0.0000       0.649854        17.6834 
  74   0.0000       0.655931        17.8488 
  75   0.0000       0.661824        18.0091 
  76   0.0000       0.667530        18.1644 
  77   0.0000       0.676886        18.4190 
  78   0.0000       0.682931        18.5835 
  79   0.0000       0.692868        18.8539 
  80   0.0000       0.713076        19.4038 
  81   0.0000       0.724993        19.7281 
  82   0.0000       0.742634        20.2081 
  83   0.0000       0.787982        21.4421 
  84   0.0000       0.794898        21.6303 
  85   0.0000       0.802109        21.8265 
  86   0.0000       0.849280        23.1101 
  87   0.0000       0.887058        24.1381 
  88   0.0000       0.910518        24.7765 
  89   0.0000       0.924725        25.1631 
  90   0.0000       0.939936        25.5770 
  91   0.0000       0.955571        26.0024 
  92   0.0000       0.964771        26.2528 
  93   0.0000       0.983085        26.7511 
  94   0.0000       0.986637        26.8478 
  95   0.0000       1.017448        27.6862 
  96   0.0000       1.033338        28.1185 
  97   0.0000       1.047000        28.4903 
  98   0.0000       1.070410        29.1273 
  99   0.0000       1.076270        29.2868 
 100   0.0000       1.100326        29.9414 
 101   0.0000       1.113105        30.2891 
 102   0.0000       1.118158        30.4266 
 103   0.0000       1.138789        30.9880 
 104   0.0000       1.140963        31.0472 
 105   0.0000       1.175919        31.9984 
 106   0.0000       1.179182        32.0872 
 107   0.0000       1.190899        32.4060 
 108   0.0000       1.208711        32.8907 
 109   0.0000       1.216904        33.1136 
 110   0.0000       1.230507        33.4838 
 111   0.0000       1.240809        33.7641 
 112   0.0000       1.257438        34.2166 
 113   0.0000       1.271826        34.6082 
 114   0.0000       1.275392        34.7052 
 115   0.0000       1.287121        35.0243 
 116   0.0000       1.302065        35.4310 
 117   0.0000       1.314817        35.7780 
 118   0.0000       1.326486        36.0955 
 119   0.0000       1.339595        36.4522 
 120   0.0000       1.353580        36.8328 
 121   0.0000       1.357797        36.9475 
 122   0.0000       1.373834        37.3839 
 123   0.0000       1.385036        37.6887 
 124   0.0000       1.402680        38.1689 
 125   0.0000       1.407760        38.3071 
 126   0.0000       1.431974        38.9660 
 127   0.0000       1.456976        39.6463 
 128   0.0000       1.463020        39.8108 
 129   0.0000       1.468776        39.9674 
 130   0.0000       1.484048        40.3830 
 131   0.0000       1.487838        40.4861 
 132   0.0000       1.501930        40.8696 
 133   0.0000       1.505301        40.9613 
 134   0.0000       1.522803        41.4376 
 135   0.0000       1.533593        41.7312 
 136   0.0000       1.539552        41.8933 
 137   0.0000       1.550212        42.1834 
 138   0.0000       1.561074        42.4790 
 139   0.0000       1.577447        42.9245 
 140   0.0000       1.579825        42.9892 
 141   0.0000       1.588482        43.2248 
 142   0.0000       1.607666        43.7468 
 143   0.0000       1.621567        44.1251 
 144   0.0000       1.670006        45.4432 
 145   0.0000       1.675341        45.5883 
 146   0.0000       1.696511        46.1644 
 147   0.0000       1.705522        46.4096 
 148   0.0000       1.724127        46.9159 
 149   0.0000       1.732642        47.1476 
 150   0.0000       1.744525        47.4710 
 151   0.0000       1.768607        48.1262 
 152   0.0000       1.788185        48.6590 
 153   0.0000       1.812196        49.3123 
 154   0.0000       1.863102        50.6976 
 155   0.0000       1.875691        51.0402 
 156   0.0000       1.883932        51.2644 
 157   0.0000       1.911049        52.0023 
 158   0.0000       1.961442        53.3736 
 159   0.0000       1.989823        54.1458 
 160   0.0000       1.999058        54.3971 
 161   0.0000       2.126701        57.8705 
 162   0.0000       2.190524        59.6072 
 163   0.0000       2.212785        60.2129 
 164   0.0000       2.247555        61.1591 
 165   0.0000       2.315116        62.9975 
 166   0.0000       2.352397        64.0120 
 167   0.0000       2.374828        64.6223 
 168   0.0000       2.394196        65.1494 
 169   0.0000       2.471979        67.2660 
 170   0.0000       2.512265        68.3622 
 171   0.0000       2.525185        68.7138 
 172   0.0000       2.572371        69.9978 
 173   0.0000       2.609683        71.0131 
 174   0.0000       2.644943        71.9726 
 175   0.0000       2.662196        72.4420 
 176   0.0000       2.676775        72.8387 
 177   0.0000       2.704426        73.5912 
 178   0.0000       2.717512        73.9472 
 179   0.0000       2.725461        74.1636 
 180   0.0000       2.760235        75.1098 
 181   0.0000       2.798056        76.1390 
 182   0.0000       2.811780        76.5124 
 183   0.0000       2.824276        76.8525 
 184   0.0000       2.827540        76.9413 
 185   0.0000       2.865652        77.9783 
 186   0.0000       2.893385        78.7330 
 187   0.0000       2.908196        79.1360 
 188   0.0000       2.926633        79.6377 
 189   0.0000       2.936463        79.9052 
 190   0.0000       2.943983        80.1098 
 191   0.0000       2.959820        80.5408 
 192   0.0000       2.972474        80.8851 
 193   0.0000       2.989573        81.3504 
 194   0.0000       2.998417        81.5911 
 195   0.0000       3.011152        81.9376 
 196   0.0000       3.024092        82.2897 
 197   0.0000       3.028551        82.4111 
 198   0.0000       3.052914        83.0740 
 199   0.0000       3.076245        83.7089 
 200   0.0000       3.087464        84.0142 
 201   0.0000       3.100979        84.3819 
 202   0.0000       3.125079        85.0377 
 203   0.0000       3.177445        86.4627 
 204   0.0000       3.187844        86.7457 
 205   0.0000       3.195648        86.9580 
 206   0.0000       3.203165        87.1626 
 207   0.0000       3.214480        87.4705 
 208   0.0000       3.226763        87.8047 
 209   0.0000       3.241164        88.1966 
 210   0.0000       3.260290        88.7170 
 211   0.0000       3.271724        89.0281 
 212   0.0000       3.280601        89.2697 
 213   0.0000       3.297107        89.7188 
 214   0.0000       3.328014        90.5599 
 215   0.0000       3.349590        91.1470 
 216   0.0000       3.358410        91.3870 
 217   0.0000       3.362423        91.4962 
 218   0.0000       3.368727        91.6677 
 219   0.0000       3.401285        92.5537 
 220   0.0000       3.407070        92.7111 
 221   0.0000       3.411080        92.8202 
 222   0.0000       3.421900        93.1146 
 223   0.0000       3.437466        93.5382 
 224   0.0000       3.438889        93.5769 
 225   0.0000       3.446078        93.7725 
 226   0.0000       3.457714        94.0892 
 227   0.0000       3.480160        94.7000 
 228   0.0000       3.483440        94.7892 
 229   0.0000       3.506171        95.4078 
 230   0.0000       3.514708        95.6401 
 231   0.0000       3.531257        96.0904 
 232   0.0000       3.537995        96.2737 
 233   0.0000       3.556921        96.7887 
 234   0.0000       3.564567        96.9968 
 235   0.0000       3.576600        97.3242 
 236   0.0000       3.582505        97.4849 
 237   0.0000       3.599030        97.9346 
 238   0.0000       3.608950        98.2045 
 239   0.0000       3.621857        98.5557 
 240   0.0000       3.650828        99.3441 
 241   0.0000       3.671651        99.9107 
 242   0.0000       3.675425       100.0134 
 243   0.0000       3.692161       100.4688 
 244   0.0000       3.703197       100.7691 
 245   0.0000       3.719184       101.2041 
 246   0.0000       3.734386       101.6178 
 247   0.0000       3.745826       101.9291 
 248   0.0000       3.754758       102.1722 
 249   0.0000       3.759126       102.2910 
 250   0.0000       3.779228       102.8380 
 251   0.0000       3.788521       103.0909 
 252   0.0000       3.805607       103.5558 
 253   0.0000       3.835224       104.3617 
 254   0.0000       3.838559       104.4525 
 255   0.0000       3.848781       104.7307 
 256   0.0000       3.879445       105.5651 
 257   0.0000       3.886426       105.7550 
 258   0.0000       3.912949       106.4767 
 259   0.0000       3.938948       107.1842 
 260   0.0000       3.946723       107.3958 
 261   0.0000       3.961343       107.7936 
 262   0.0000       3.973902       108.1354 
 263   0.0000       3.988864       108.5425 
 264   0.0000       4.006509       109.0227 
 265   0.0000       4.022075       109.4462 
 266   0.0000       4.046351       110.1068 
 267   0.0000       4.057094       110.3991 
 268   0.0000       4.059239       110.4575 
 269   0.0000       4.069558       110.7383 
 270   0.0000       4.088132       111.2437 
 271   0.0000       4.096958       111.4839 
 272   0.0000       4.106138       111.7337 
 273   0.0000       4.125652       112.2647 
 274   0.0000       4.134536       112.5064 
 275   0.0000       4.147891       112.8698 
 276   0.0000       4.152402       112.9926 
 277   0.0000       4.171797       113.5204 
 278   0.0000       4.191895       114.0673 
 279   0.0000       4.210436       114.5718 
 280   0.0000       4.214560       114.6840 
 281   0.0000       4.250893       115.6727 
 282   0.0000       4.265075       116.0586 
 283   0.0000       4.273666       116.2924 
 284   0.0000       4.292588       116.8072 
 285   0.0000       4.309630       117.2710 
 286   0.0000       4.323303       117.6431 
 287   0.0000       4.334601       117.9505 
 288   0.0000       4.349762       118.3630 
 289   0.0000       4.354774       118.4994 
 290   0.0000       4.369345       118.8959 
 291   0.0000       4.377873       119.1280 
 292   0.0000       4.399932       119.7282 
 293   0.0000       4.409680       119.9935 
 294   0.0000       4.412017       120.0571 
 295   0.0000       4.427581       120.4806 
 296   0.0000       4.444190       120.9326 
 297   0.0000       4.453877       121.1962 
 298   0.0000       4.465636       121.5161 
 299   0.0000       4.490824       122.2015 
 300   0.0000       4.500605       122.4677 
 301   0.0000       4.511905       122.7752 
 302   0.0000       4.517341       122.9231 
 303   0.0000       4.524324       123.1131 
 304   0.0000       4.557984       124.0291 
 305   0.0000       4.564649       124.2104 
 306   0.0000       4.574054       124.4663 
 307   0.0000       4.597868       125.1144 
 308   0.0000       4.613411       125.5373 
 309   0.0000       4.634650       126.1152 
 310   0.0000       4.668373       127.0329 
 311   0.0000       4.677577       127.2834 
 312   0.0000       4.714610       128.2911 
 313   0.0000       4.725005       128.5739 
 314   0.0000       4.735386       128.8564 
 315   0.0000       4.765530       129.6767 
 316   0.0000       4.801108       130.6448 
 317   0.0000       4.807600       130.8215 
 318   0.0000       4.836445       131.6064 
 319   0.0000       4.850196       131.9806 
 320   0.0000       4.877199       132.7153 
 321   0.0000       4.929286       134.1327 
 322   0.0000       4.946512       134.6014 
 323   0.0000       4.988365       135.7403 
 324   0.0000       5.005235       136.1994 
 325   0.0000       5.012670       136.4017 
 326   0.0000       5.043592       137.2431 
 327   0.0000       5.055865       137.5771 
 328   0.0000       5.056177       137.5856 
 329   0.0000       5.123673       139.4222 
 330   0.0000       5.153179       140.2251 
 331   0.0000       5.158207       140.3619 
 332   0.0000       5.192030       141.2823 
 333   0.0000       5.200883       141.5232 
 334   0.0000       5.206941       141.6881 
 335   0.0000       5.261506       143.1728 
 336   0.0000       5.271787       143.4526 
 337   0.0000       5.279935       143.6743 
 338   0.0000       5.293790       144.0513 
 339   0.0000       5.310834       144.5151 
 340   0.0000       5.325973       144.9271 
 341   0.0000       5.338934       145.2798 
 342   0.0000       5.351046       145.6094 
 343   0.0000       5.357215       145.7772 
 344   0.0000       5.365685       146.0077 
 345   0.0000       5.393877       146.7748 
 346   0.0000       5.411797       147.2625 
 347   0.0000       5.437447       147.9604 
 348   0.0000       5.497612       149.5976 
 349   0.0000       5.518940       150.1780 
 350   0.0000       5.533154       150.5648 
 351   0.0000       5.575967       151.7298 
 352   0.0000       5.590406       152.1227 
 353   0.0000       5.594222       152.2265 
 354   0.0000       5.612008       152.7105 
 355   0.0000       5.640303       153.4805 
 356   0.0000       5.653117       153.8291 
 357   0.0000       5.667706       154.2261 
 358   0.0000       5.693062       154.9161 
 359   0.0000       5.724533       155.7725 
 360   0.0000       5.770704       157.0288 
 361   0.0000       5.776373       157.1831 
 362   0.0000       5.823650       158.4696 
 363   0.0000       5.839429       158.8989 
 364   0.0000       5.868037       159.6774 
 365   0.0000       5.882269       160.0647 
 366   0.0000       5.893413       160.3679 
 367   0.0000       5.915127       160.9588 
 368   0.0000       5.934551       161.4873 
 369   0.0000       5.983952       162.8316 
 370   0.0000       6.033884       164.1903 
 371   0.0000       6.069015       165.1463 
 372   0.0000       6.101824       166.0391 
 373   0.0000       6.114162       166.3748 
 374   0.0000       6.206547       168.8887 
 375   0.0000       6.224307       169.3720 
 376   0.0000       6.293492       171.2546 
 377   0.0000       6.332871       172.3262 
 378   0.0000       6.341740       172.5675 
 379   0.0000       6.359038       173.0382 
 380   0.0000       6.415438       174.5729 
 381   0.0000       6.445908       175.4021 
 382   0.0000       6.468094       176.0058 
 383   0.0000       6.543520       178.0582 
 384   0.0000       6.704823       182.4475 
 385   0.0000       6.737062       183.3248 
 386   0.0000       6.764076       184.0599 
 387   0.0000       6.831002       185.8810 
 388   0.0000       6.873658       187.0417 
 389   0.0000       6.973320       189.7537 
 390   0.0000       7.312702       198.9887 
 391   0.0000       7.348780       199.9705 
 392   0.0000       7.355112       200.1428 
 393   0.0000       7.411683       201.6822 
 394   0.0000       7.511226       204.3909 
 395   0.0000       7.579149       206.2391 
 396   0.0000       7.823216       212.8805 
 397   0.0000       7.890338       214.7070 
 398   0.0000       7.927900       215.7291 
 399   0.0000       8.057182       219.2471 
 400   0.0000      11.301629       307.5330 
 401   0.0000      11.847503       322.3869 
 402   0.0000      12.413440       337.7869 
 403   0.0000      12.862750       350.0132 
 404   0.0000      13.136669       357.4669 
 405   0.0000      13.517343       367.8256 
 406   0.0000      13.667593       371.9141 
 407   0.0000      13.882240       377.7549 

                    ********************************
                    * MULLIKEN POPULATION ANALYSIS *
                    ********************************

-----------------------
MULLIKEN ATOMIC CHARGES
-----------------------
   0 C :    0.323014
   1 O :   -0.401141
   2 C :    0.016952
   3 C :   -0.183523
   4 C :   -0.220443
   5 C :   -0.177341
   6 O :   -0.351206
   7 C :   -0.075327
   8 H :    0.109297
   9 H :    0.064823
  10 H :    0.102056
  11 H :    0.093758
  12 H :    0.092088
  13 H :    0.112671
  14 H :    0.111137
  15 H :    0.097784
  16 H :    0.032833
  17 H :    0.106574
  18 H :    0.053520
  19 H :    0.092475
Sum of atomic charges:    0.0000000

--------------------------------
MULLIKEN REDUCED ORBITAL CHARGES
--------------------------------
  0 C s       :     3.084218  s :     3.084218
      pz      :     0.865855  p :     2.324989
      px      :     0.724692
      py      :     0.734443
      dz2     :     0.054752  d :     0.246956
      dxz     :     0.038058
      dyz     :     0.032906
      dx2y2   :     0.057526
      dxy     :     0.063715
      f0      :     0.002176  f :     0.020823
      f+1     :     0.002828
      f-1     :     0.002500
      f+2     :     0.002940
      f-2     :     0.002627
      f+3     :     0.003319
      f-3     :     0.004433
  1 O s       :     3.744179  s :     3.744179
      pz      :     1.737483  p :     4.620018
      px      :     1.435824
      py      :     1.446712
      dz2     :     0.003590  d :     0.034949
      dxz     :     0.007007
      dyz     :     0.007176
      dx2y2   :     0.012725
      dxy     :     0.004451
      f0      :     0.000284  f :     0.001995
      f+1     :     0.000187
      f-1     :     0.000188
      f+2     :     0.000391
      f-2     :     0.000194
      f+3     :     0.000368
      f-3     :     0.000383
  2 C s       :     3.176377  s :     3.176377
      pz      :     0.945571  p :     2.638076
      px      :     0.712287
      py      :     0.980218
      dz2     :     0.036296  d :     0.156714
      dxz     :     0.026328
      dyz     :     0.016803
      dx2y2   :     0.045736
      dxy     :     0.031551
      f0      :     0.001892  f :     0.011880
      f+1     :     0.002014
      f-1     :     0.000570
      f+2     :     0.001235
      f-2     :     0.001551
      f+3     :     0.002515
      f-3     :     0.002103
  3 C s       :     3.204913  s :     3.204913
      pz      :     1.004735  p :     2.866672
      px      :     0.963953
      py      :     0.897984
      dz2     :     0.031671  d :     0.105498
      dxz     :     0.012398
      dyz     :     0.015949
      dx2y2   :     0.018967
      dxy     :     0.026514
      f0      :     0.001415  f :     0.006439
      f+1     :     0.000386
      f-1     :     0.000774
      f+2     :     0.000497
      f-2     :     0.000743
      f+3     :     0.001220
      f-3     :     0.001404
  4 C s       :     3.224831  s :     3.224831
      pz      :     0.993642  p :     2.872429
      px      :     0.941195
      py      :     0.937592
      dz2     :     0.035010  d :     0.116472
      dxz     :     0.013393
      dyz     :     0.013550
      dx2y2   :     0.021256
      dxy     :     0.033262
      f0      :     0.001478  f :     0.006711
      f+1     :     0.000570
      f-1     :     0.000571
      f+2     :     0.000832
      f-2     :     0.000512
      f+3     :     0.001388
      f-3     :     0.001360
  5 C s       :     3.206249  s :     3.206249
      pz      :     1.021184  p :     2.867413
      px      :     0.883937
      py      :     0.962291
      dz2     :     0.028263  d :     0.097270
      dxz     :     0.015278
      dyz     :     0.013080
      dx2y2   :     0.013646
      dxy     :     0.027003
      f0      :     0.001384  f :     0.006409
      f+1     :     0.000770
      f-1     :     0.000440
      f+2     :     0.000453
      f-2     :     0.000694
      f+3     :     0.001475
      f-3     :     0.001193
  6 O s       :     3.722700  s :     3.722700
      pz      :     1.747801  p :     4.590187
      px      :     1.206934
      py      :     1.635451
      dz2     :     0.004178  d :     0.036145
      dxz     :     0.009241
      dyz     :     0.004185
      dx2y2   :     0.007201
      dxy     :     0.011340
      f0      :     0.000294  f :     0.002174
      f+1     :     0.000327
      f-1     :     0.000104
      f+2     :     0.000261
      f-2     :     0.000352
      f+3     :     0.000389
      f-3     :     0.000447
  7 C s       :     3.218671  s :     3.218671
      pz      :     0.964154  p :     2.732417
      px      :     0.861439
      py      :     0.906824
      dz2     :     0.023519  d :     0.114346
      dxz     :     0.019601
      dyz     :     0.014011
      dx2y2   :     0.030230
      dxy     :     0.026985
      f0      :     0.001882  f :     0.009893
      f+1     :     0.001004
      f-1     :     0.000836
      f+2     :     0.000516
      f-2     :     0.001593
      f+3     :     0.002061
      f-3     :     0.002001
  8 H s       :     0.861984  s :     0.861984
      pz      :     0.007326  p :     0.026476
      px      :     0.004595
      py      :     0.014556
      dz2     :     0.000438  d :     0.002243
      dxz     :     0.000094
      dyz     :     0.000461
      dx2y2   :     0.000626
      dxy     :     0.000623
  9 H s       :     0.907901  s :     0.907901
      pz      :     0.012073  p :     0.025073
      px      :     0.005156
      py      :     0.007844
      dz2     :     0.000801  d :     0.002204
      dxz     :     0.000628
      dyz     :     0.000729
      dx2y2   :    -0.000004
      dxy     :     0.000051
 10 H s       :     0.866034  s :     0.866034
      pz      :     0.007031  p :     0.029452
      px      :     0.012471
      py      :     0.009950
      dz2     :     0.000420  d :     0.002458
      dxz     :     0.000458
      dyz     :     0.000121
      dx2y2   :     0.000649
      dxy     :     0.000810
 11 H s       :     0.875677  s :     0.875677
      pz      :     0.011786  p :     0.028106
      px      :     0.007935
      py      :     0.008385
      dz2     :     0.000698  d :     0.002459
      dxz     :     0.000748
      dyz     :     0.000940
      dx2y2   :     0.000027
      dxy     :     0.000047
 12 H s       :     0.877628  s :     0.877628
      pz      :     0.011368  p :     0.027878
      px      :     0.008279
      py      :     0.008231
      dz2     :     0.000662  d :     0.002406
      dxz     :     0.000839
      dyz     :     0.000844
      dx2y2   :     0.000044
      dxy     :     0.000017
 13 H s       :     0.856520  s :     0.856520
      pz      :     0.006800  p :     0.028389
      px      :     0.010535
      py      :     0.011054
      dz2     :     0.000401  d :     0.002420
      dxz     :     0.000262
      dyz     :     0.000286
      dx2y2   :     0.000970
      dxy     :     0.000501
 14 H s       :     0.856549  s :     0.856549
      pz      :     0.007213  p :     0.029829
      px      :     0.010066
      py      :     0.012549
      dz2     :     0.000433  d :     0.002485
      dxz     :     0.000145
      dyz     :     0.000451
      dx2y2   :     0.000684
      dxy     :     0.000773
 15 H s       :     0.870789  s :     0.870789
      pz      :     0.011951  p :     0.028931
      px      :     0.009060
      py      :     0.007920
      dz2     :     0.000706  d :     0.002496
      dxz     :     0.000942
      dyz     :     0.000763
      dx2y2   :     0.000043
      dxy     :     0.000042
 16 H s       :     0.941035  s :     0.941035
      pz      :     0.012807  p :     0.023723
      px      :     0.005307
      py      :     0.005608
      dz2     :     0.000958  d :     0.002409
      dxz     :     0.000723
      dyz     :     0.000685
      dx2y2   :    -0.000002
      dxy     :     0.000045
 17 H s       :     0.867504  s :     0.867504
      pz      :     0.009291  p :     0.023945
      px      :     0.008469
      py      :     0.006185
      dz2     :     0.000352  d :     0.001978
      dxz     :     0.000500
      dyz     :     0.000106
      dx2y2   :     0.000548
      dxy     :     0.000471
 18 H s       :     0.921069  s :     0.921069
      pz      :     0.010915  p :     0.023408
      px      :     0.005250
      py      :     0.007243
      dz2     :     0.000875  d :     0.002003
      dxz     :     0.000522
      dyz     :     0.000597
      dx2y2   :     0.000018
      dxy     :    -0.000008
 19 H s       :     0.881518  s :     0.881518
      pz      :     0.007616  p :     0.023971
      px      :     0.005512
      py      :     0.010843
      dz2     :     0.000377  d :     0.002037
      dxz     :     0.000050
      dyz     :     0.000531
      dx2y2   :     0.000626
      dxy     :     0.000452


                     *******************************
                     * LOEWDIN POPULATION ANALYSIS *
                     *******************************

----------------------
LOEWDIN ATOMIC CHARGES
----------------------
   0 C :   -0.281626
   1 O :    0.242108
   2 C :   -0.050171
   3 C :    0.051596
   4 C :    0.057146
   5 C :    0.058433
   6 O :    0.270925
   7 C :    0.021104
   8 H :   -0.027402
   9 H :   -0.038439
  10 H :   -0.024454
  11 H :   -0.023716
  12 H :   -0.026852
  13 H :   -0.025114
  14 H :   -0.021725
  15 H :   -0.020015
  16 H :   -0.045745
  17 H :   -0.032736
  18 H :   -0.043539
  19 H :   -0.039776

-------------------------------
LOEWDIN REDUCED ORBITAL CHARGES
-------------------------------
  0 C s       :     2.698164  s :     2.698164
      pz      :     0.941872  p :     2.607786
      px      :     0.824086
      py      :     0.841828
      dz2     :     0.201112  d :     0.843599
      dxz     :     0.127571
      dyz     :     0.121365
      dx2y2   :     0.193022
      dxy     :     0.200529
      f0      :     0.010718  f :     0.132078
      f+1     :     0.016078
      f-1     :     0.013783
      f+2     :     0.023629
      f-2     :     0.018701
      f+3     :     0.020304
      f-3     :     0.028865
  1 O s       :     3.258449  s :     3.258449
      pz      :     1.626337  p :     4.400897
      px      :     1.377587
      py      :     1.396973
      dz2     :     0.013095  d :     0.093144
      dxz     :     0.015145
      dyz     :     0.014888
      dx2y2   :     0.027940
      dxy     :     0.022074
      f0      :     0.000347  f :     0.005403
      f+1     :     0.000644
      f-1     :     0.000670
      f+2     :     0.001087
      f-2     :     0.000580
      f+3     :     0.001012
      f-3     :     0.001063
  2 C s       :     2.682536  s :     2.682536
      pz      :     0.968057  p :     2.719511
      px      :     0.797068
      py      :     0.954386
      dz2     :     0.138516  d :     0.572180
      dxz     :     0.105507
      dyz     :     0.055906
      dx2y2   :     0.156499
      dxy     :     0.115751
      f0      :     0.008502  f :     0.075945
      f+1     :     0.012014
      f-1     :     0.003046
      f+2     :     0.012257
      f-2     :     0.011593
      f+3     :     0.015912
      f-3     :     0.012621
  3 C s       :     2.663825  s :     2.663825
      pz      :     0.968610  p :     2.831704
      px      :     0.944784
      py      :     0.918310
      dz2     :     0.111657  d :     0.413329
      dxz     :     0.047644
      dyz     :     0.061404
      dx2y2   :     0.091408
      dxy     :     0.101216
      f0      :     0.005829  f :     0.039547
      f+1     :     0.002563
      f-1     :     0.005496
      f+2     :     0.005138
      f-2     :     0.006443
      f+3     :     0.007013
      f-3     :     0.007064
  4 C s       :     2.659778  s :     2.659778
      pz      :     0.963791  p :     2.822669
      px      :     0.928142
      py      :     0.930736
      dz2     :     0.117177  d :     0.420659
      dxz     :     0.051379
      dyz     :     0.051291
      dx2y2   :     0.084364
      dxy     :     0.116448
      f0      :     0.005855  f :     0.039748
      f+1     :     0.003988
      f-1     :     0.004050
      f+2     :     0.006267
      f-2     :     0.005223
      f+3     :     0.007230
      f-3     :     0.007135
  5 C s       :     2.664226  s :     2.664226
      pz      :     0.971541  p :     2.833394
      px      :     0.918061
      py      :     0.943791
      dz2     :     0.104736  d :     0.404717
      dxz     :     0.059739
      dyz     :     0.050641
      dx2y2   :     0.085963
      dxy     :     0.103639
      f0      :     0.005788  f :     0.039230
      f+1     :     0.005391
      f-1     :     0.002648
      f+2     :     0.004896
      f-2     :     0.006367
      f+3     :     0.007362
      f-3     :     0.006778
  6 O s       :     3.235910  s :     3.235910
      pz      :     1.626567  p :     4.388228
      px      :     1.213705
      py      :     1.547957
      dz2     :     0.013557  d :     0.099180
      dxz     :     0.023410
      dyz     :     0.007089
      dx2y2   :     0.027759
      dxy     :     0.027365
      f0      :     0.000373  f :     0.005756
      f+1     :     0.001023
      f-1     :     0.000331
      f+2     :     0.000673
      f-2     :     0.001068
      f+3     :     0.001224
      f-3     :     0.001064
  7 C s       :     2.687435  s :     2.687435
      pz      :     0.986408  p :     2.773217
      px      :     0.859554
      py      :     0.927255
      dz2     :     0.109307  d :     0.453889
      dxz     :     0.067324
      dyz     :     0.059007
      dx2y2   :     0.118744
      dxy     :     0.099507
      f0      :     0.008515  f :     0.064355
      f+1     :     0.006172
      f-1     :     0.004653
      f+2     :     0.007153
      f-2     :     0.013456
      f+3     :     0.012881
      f-3     :     0.011524
  8 H s       :     0.856323  s :     0.856323
      pz      :     0.043015  p :     0.143734
      px      :     0.029626
      py      :     0.071093
      dz2     :     0.005170  d :     0.027346
      dxz     :     0.001175
      dyz     :     0.007327
      dx2y2   :     0.006826
      dxy     :     0.006847
  9 H s       :     0.868038  s :     0.868038
      pz      :     0.078860  p :     0.143717
      px      :     0.027525
      py      :     0.037331
      dz2     :     0.009799  d :     0.026684
      dxz     :     0.007058
      dyz     :     0.009421
      dx2y2   :     0.000073
      dxy     :     0.000334
 10 H s       :     0.844026  s :     0.844026
      pz      :     0.043584  p :     0.152521
      px      :     0.066198
      py      :     0.042739
      dz2     :     0.004991  d :     0.027906
      dxz     :     0.006854
      dyz     :     0.001602
      dx2y2   :     0.006891
      dxy     :     0.007569
 11 H s       :     0.843332  s :     0.843332
      pz      :     0.075237  p :     0.152161
      px      :     0.037991
      py      :     0.038933
      dz2     :     0.009450  d :     0.028223
      dxz     :     0.009361
      dyz     :     0.009098
      dx2y2   :     0.000072
      dxy     :     0.000243
 12 H s       :     0.846717  s :     0.846717
      pz      :     0.074587  p :     0.152148
      px      :     0.039008
      py      :     0.038552
      dz2     :     0.009352  d :     0.027988
      dxz     :     0.009143
      dyz     :     0.009243
      dx2y2   :     0.000194
      dxy     :     0.000056
 13 H s       :     0.843818  s :     0.843818
      pz      :     0.042932  p :     0.153254
      px      :     0.054452
      py      :     0.055870
      dz2     :     0.004661  d :     0.028042
      dxz     :     0.004038
      dyz     :     0.004438
      dx2y2   :     0.008460
      dxy     :     0.006445
 14 H s       :     0.841449  s :     0.841449
      pz      :     0.044395  p :     0.152075
      px      :     0.042172
      py      :     0.065508
      dz2     :     0.005304  d :     0.028201
      dxz     :     0.001769
      dyz     :     0.006806
      dx2y2   :     0.006981
      dxy     :     0.007340
 15 H s       :     0.839820  s :     0.839820
      pz      :     0.075837  p :     0.151633
      px      :     0.037934
      py      :     0.037863
      dz2     :     0.009547  d :     0.028562
      dxz     :     0.009040
      dyz     :     0.009534
      dx2y2   :     0.000199
      dxy     :     0.000243
 16 H s       :     0.881880  s :     0.881880
      pz      :     0.083960  p :     0.137448
      px      :     0.025236
      py      :     0.028251
      dz2     :     0.010973  d :     0.026417
      dxz     :     0.007396
      dyz     :     0.007542
      dx2y2   :     0.000112
      dxy     :     0.000395
 17 H s       :     0.862658  s :     0.862658
      pz      :     0.042955  p :     0.143123
      px      :     0.060957
      py      :     0.039210
      dz2     :     0.004642  d :     0.026954
      dxz     :     0.006896
      dyz     :     0.001672
      dx2y2   :     0.006675
      dxy     :     0.007069
 18 H s       :     0.874226  s :     0.874226
      pz      :     0.077624  p :     0.142909
      px      :     0.030535
      py      :     0.034751
      dz2     :     0.009473  d :     0.026404
      dxz     :     0.008054
      dyz     :     0.008625
      dx2y2   :     0.000054
      dxy     :     0.000198
 19 H s       :     0.866544  s :     0.866544
      pz      :     0.043083  p :     0.146442
      px      :     0.032679
      py      :     0.070681
      dz2     :     0.004729  d :     0.026790
      dxz     :     0.000733
      dyz     :     0.007783
      dx2y2   :     0.006535
      dxy     :     0.007010


                      *****************************
                      * MAYER POPULATION ANALYSIS *
                      *****************************

  NA   - Mulliken gross atomic population
  ZA   - Total nuclear charge
  QA   - Mulliken gross atomic charge
  VA   - Mayer's total valence
  BVA  - Mayer's bonded valence
  FA   - Mayer's free valence

  ATOM       NA         ZA         QA         VA         BVA        FA
  0 C      5.6770     6.0000     0.3230     4.0095     4.0095     0.0000
  1 O      8.4011     8.0000    -0.4011     1.9546     1.9546     0.0000
  2 C      5.9830     6.0000     0.0170     3.9355     3.9355    -0.0000
  3 C      6.1835     6.0000    -0.1835     3.8274     3.8274     0.0000
  4 C      6.2204     6.0000    -0.2204     3.8684     3.8684     0.0000
  5 C      6.1773     6.0000    -0.1773     3.8315     3.8315    -0.0000
  6 O      8.3512     8.0000    -0.3512     2.0388     2.0388    -0.0000
  7 C      6.0753     6.0000    -0.0753     3.9081     3.9081     0.0000
  8 H      0.8907     1.0000     0.1093     0.9811     0.9811    -0.0000
  9 H      0.9352     1.0000     0.0648     0.9822     0.9822    -0.0000
 10 H      0.8979     1.0000     0.1021     0.9830     0.9830     0.0000
 11 H      0.9062     1.0000     0.0938     0.9875     0.9875     0.0000
 12 H      0.9079     1.0000     0.0921     0.9836     0.9836    -0.0000
 13 H      0.8873     1.0000     0.1127     0.9778     0.9778     0.0000
 14 H      0.8889     1.0000     0.1111     0.9898     0.9898    -0.0000
 15 H      0.9022     1.0000     0.0978     1.0024     1.0024    -0.0000
 16 H      0.9672     1.0000     0.0328     0.9862     0.9862     0.0000
 17 H      0.8934     1.0000     0.1066     0.9766     0.9766     0.0000
 18 H      0.9465     1.0000     0.0535     0.9728     0.9728    -0.0000
 19 H      0.9075     1.0000     0.0925     0.9742     0.9742     0.0000

  Mayer bond orders larger than 0.1
B(  0-C ,  1-O ) :   0.9670 B(  0-C ,  5-C ) :   0.9526 B(  0-C ,  6-O ) :   1.0870 
B(  0-C , 16-H ) :   0.9810 B(  1-O ,  2-C ) :   0.9800 B(  2-C ,  3-C ) :   0.9513 
B(  2-C ,  8-H ) :   0.9899 B(  2-C ,  9-H ) :   0.9854 B(  3-C ,  4-C ) :   0.9435 
B(  3-C , 10-H ) :   0.9851 B(  3-C , 11-H ) :   0.9796 B(  4-C ,  5-C ) :   0.9450 
B(  4-C , 12-H ) :   0.9851 B(  4-C , 13-H ) :   0.9917 B(  5-C , 14-H ) :   0.9868 
B(  5-C , 15-H ) :   0.9769 B(  6-O ,  7-C ) :   0.9693 B(  7-C , 17-H ) :   0.9837 
B(  7-C , 18-H ) :   0.9721 B(  7-C , 19-H ) :   0.9708 

-------
TIMINGS
-------

Total SCF time: 0 days 0 hours 0 min 44 sec 

Total time                  ....      44.891 sec
Sum of individual times     ....      44.208 sec  ( 98.5%)

Fock matrix formation       ....      43.314 sec  ( 96.5%)
Diagonalization             ....       0.153 sec  (  0.3%)
Density matrix formation    ....       0.020 sec  (  0.0%)
Population analysis         ....       0.051 sec  (  0.1%)
Initial guess               ....       0.323 sec  (  0.7%)
Orbital Transformation      ....       0.000 sec  (  0.0%)
Orbital Orthonormalization  ....       0.000 sec  (  0.0%)
DIIS solution               ....       0.000 sec  (  0.0%)
SOSCF solution              ....       0.163 sec  (  0.4%)


           ************************************************************
           *        Program running with 8 parallel MPI-processes     *
           *              working on a common directory               *
           ************************************************************


------------------------------------------------------------------------------- 
                              ORCA-MATRIX DRIVEN CI                            
------------------------------------------------------------------------------- 


Wavefunction type
-----------------
Correlation treatment                      ...      CCSD     
Single excitations                         ... ON
Orbital optimization                       ... OFF
Calculation of Z vector                    ... OFF
Calculation of Brueckner orbitals          ... OFF
Perturbative triple excitations            ... ON
Calculation of F12 correction              ... OFF
Frozen core treatment                      ... chemical core (16 el)
Reference Wavefunction                     ... RHF
  Internal Orbitals:     8 ...   31 ( 24 MO's/ 48 electrons)
  Virtual  Orbitals:    32 ...  407 (376 MO's              )
Number of AO's                             ...    408
Number of electrons                        ...     64
Number of correlated electrons             ...     48

Algorithmic settings
--------------------
Integral transformation                    ... All integrals via the RI transformation
K(C) Formation                             ... RI-DLPNO
   PNO-Integral Storage                    ... ON DISK
   PNO occupation number cut-off           ... 1.000e-07
   Singles PNO occupation number cut-off   ... 3.000e-09
   PNO Mulliken prescreening cut-off       ... 1.000e-03
   Domain cut-off (Mulliken population)    ... 1.000e-03
   PNO Normalization                       ...    1
Maximum number of iterations               ...        50
Convergence tolerance (max. residuum)      ... 1.000e-05
Level shift for amplitude update           ... 2.000e-01
Maximum number of DIIS vectors             ...         7
DIIS turned on at iteration                ...         0
Damping before turning on DIIS             ...     0.500
Damping after turning on DIIS              ...     0.000
Pair specific amplitude update             ... OFF
Natural orbital iterations                 ... OFF
Perturbative natural orbital generation    ... OFF
Printlevel                                 ... 2

Singles Fock matrix elements calculated using PNOs.

Memory handling:
----------------
Maximum memory for working arrays          ...   8000 MB
Data storage in matrix containers          ... UNCOMPRESSED
Data type for integral storage             ... DOUBLE
In-Core Storage of quantities:
   Amplitudes+Sigma Vector      ... NO
   J+K operators                ... NO
   DIIS vectors                 ... NO
   3-external integrals         ... NO
   4-external integrals         ... NO

Localization treatment:
-----------------------
Localization option                        ...    6
Localization threshhold                    ... -1.0e+00
Using relative localization threshhold     ... 1.0e-08
Neglect threshold for strong pairs         ... 1.000e-05 Eh
Prescreening threshold for very weak pairs ... 1.000e-07 Eh

Initializing the integral package          ... done
Localizing the valence orbitals
------------------------------------------------------------------------------
                           ORCA ORBITAL LOCALIZATION
------------------------------------------------------------------------------

Input orbitals are from                  ... 2_methoxytetrahydropyran_eq.proc0.gbw
Output orbitals are to                   ... 2_methoxytetrahydropyran_eq.proc0.loc
Max. number of iterations                ... 128
Localizations seeded randomly            ... off
Convergence tolerance                    ... 1.000e-06
Using relative localization threshhold   ... 1.000e-08
Treshold for strong local MOs            ... 9.500e-01
Treshold for bond MOs                    ... 8.500e-01
Operator                                 ... 0
Orbital range for localization           ... 8 to 31
Localization criterion                   ... FOSTER-BOYS (AUGMENTED HESSIAN)
Doing the dipole integrals     ... o.k.
Initial value of the localization sum :   318.393145
ITERATION   0 : L=  379.9545511361 DL=  6.16e+01 (AVERGE_DL)=    0.4722801865 
ITERATION   1 : L=  385.1001742326 DL=  5.15e+00 (AVERGE_DL)=    0.1365414294 
ITERATION   2 : L=  385.2618226788 DL=  1.62e-01 (AVERGE_DL)=    0.0242008838 
ITERATION   3 : L=  385.2669299297 DL=  5.11e-03 (AVERGE_DL)=    0.0043016894 
ITERATION   4 : L=  385.2675099858 DL=  5.80e-04 (AVERGE_DL)=    0.0014497078 
ITERATION   5 : L=  385.2675773478 DL=  6.74e-05 (AVERGE_DL)=    0.0004940293 
ITERATION   6 : L=  385.2675847852 DL=  7.44e-06 (AVERGE_DL)=    0.0001641558 
ITERATION   7 : L=  385.2675855877 DL=  8.03e-07 (AVERGE_DL)=    0.0000539243 
LOCALIZATION SUM CONVERGED

------------------------------------------------------
AUGMENTED HESSIAN OPTIMIZATION OF FOSTER-BOYS ORBITALS
------------------------------------------------------

Spin operator:           0
Orbital window:          8 to 31
Number of iterations:    128
Gradient tolerance:      1.000e-06
Number of pairs:         276
Davidson threshold:      2000
Diagonalization method:  LAPACK
Iter:    0   L: 385.2675855877   Grad. norm: 1.783779e-03
   *** Likely close to a maximum now. ***
       Augmented Hessian eigenvalues:  2.08e-07 -1.21e+00 -1.39e+00 -3.56e+00 ... 
Iter:    1   L: 385.2675856918   Grad. norm: 1.110554e-07
LOCALIZATION HAS CONVERGED.

Eigenvalues of the Hessian:
  0 -1.211e+00
  1 -1.391e+00
  2 -3.556e+00
  3 -3.628e+00
  4 -5.299e+00
  5 -5.307e+00
  6 -5.443e+00
  7 -5.598e+00
  8 -7.499e+00
  9 -7.611e+00
    ...


------------------------------------------------------------------------------- 
                    LOCALIZED MOLECULAR ORBITAL COMPOSITIONS                   
------------------------------------------------------------------------------- 

The Mulliken populations for each LMO on each atom are computed
The LMO`s will be ordered according to atom index and type
  (A) Strongly localized MO`s have populations of >=0.950 on one atom
  (B) Two center bond orbitals have populations of >=0.850 on two atoms
  (C) Other MO`s are considered to be `delocalized`

FOUND  -   4 strongly local MO`s
       -  20 two center bond MO`s
       -   0 significantly delocalized MO`s

Rather strongly localized orbitals:
MO  11:   6O  -   0.961885
MO  10:   6O  -   0.968450
MO   9:   1O  -   0.967548
MO   8:   1O  -   0.972366
Bond-like localized orbitals:
MO  31:  19H  -   0.474804  and   7C  -   0.559399
MO  30:  18H  -   0.497595  and   7C  -   0.535293
MO  29:  17H  -   0.464804  and   7C  -   0.561963
MO  28:  16H  -   0.502503  and   0C  -   0.544571
MO  27:  15H  -   0.461215  and   5C  -   0.559772
MO  26:  14H  -   0.457415  and   5C  -   0.570930
MO  25:  13H  -   0.461492  and   4C  -   0.569769
MO  24:  12H  -   0.472630  and   4C  -   0.555692
MO  23:  11H  -   0.469256  and   3C  -   0.554137
MO  22:  10H  -   0.465995  and   3C  -   0.560724
MO  21:   9H  -   0.487365  and   2C  -   0.554211
MO  20:   8H  -   0.460692  and   2C  -   0.571229
MO  19:   7C  -   0.355464  and   6O  -   0.656478
MO  18:   6O  -   0.652575  and   0C  -   0.362763
MO  17:   5C  -   0.509960  and   4C  -   0.526280
MO  16:   5C  -   0.506386  and   0C  -   0.536469
MO  15:   4C  -   0.514220  and   3C  -   0.514819
MO  14:   3C  -   0.528379  and   2C  -   0.509207
MO  13:   2C  -   0.342503  and   1O  -   0.659778
MO  12:   1O  -   0.673047  and   0C  -   0.336951
Localized MO's were stored in: 2_methoxytetrahydropyran_eq.proc0.loc

Localizing the core orbitals
------------------------------------------------------------------------------
                           ORCA ORBITAL LOCALIZATION
------------------------------------------------------------------------------

Input orbitals are from                  ... 2_methoxytetrahydropyran_eq.proc0.loc
Output orbitals are to                   ... 2_methoxytetrahydropyran_eq.proc0.loc
Max. number of iterations                ... 128
Localizations seeded randomly            ... off
Convergence tolerance                    ... 1.000e-06
Using relative localization threshhold   ... 1.000e-08
Treshold for strong local MOs            ... 9.500e-01
Treshold for bond MOs                    ... 8.500e-01
Operator                                 ... 0
Orbital range for localization           ... 0 to 7
Localization criterion                   ... FOSTER-BOYS (AUGMENTED HESSIAN)
Doing the dipole integrals     ... o.k.
Initial value of the localization sum :   101.843204
ITERATION   0 : L=  101.8432108283 DL=  7.10e-06 (AVERGE_DL)=    0.0005037320 
ITERATION   1 : L=  101.8432108283 DL=  0.00e+00 (AVERGE_DL)=    0.0000000000 
LOCALIZATION SUM CONVERGED

------------------------------------------------------
AUGMENTED HESSIAN OPTIMIZATION OF FOSTER-BOYS ORBITALS
------------------------------------------------------

Spin operator:           0
Orbital window:          0 to 7
Number of iterations:    128
Gradient tolerance:      1.000e-06
Number of pairs:         28
Davidson threshold:      2000
Diagonalization method:  LAPACK
Iter:    0   L: 101.8432108283   Grad. norm: 1.247509e-04
   *** Likely close to a maximum now. ***
       Augmented Hessian eigenvalues:  7.68e-11 -2.77e+01 -2.90e+01 -2.92e+01 ... 
Iter:    1   L: 101.8432108283   Grad. norm: 9.074397e-17
LOCALIZATION HAS CONVERGED.

Eigenvalues of the Hessian:
  0 -2.766e+01
  1 -2.904e+01
  2 -2.915e+01
  3 -2.919e+01
  4 -3.320e+01
  5 -3.343e+01
  6 -3.373e+01
  7 -3.379e+01
  8 -7.501e+01
  9 -8.033e+01
    ...


------------------------------------------------------------------------------- 
                    LOCALIZED MOLECULAR ORBITAL COMPOSITIONS                   
------------------------------------------------------------------------------- 

The Mulliken populations for each LMO on each atom are computed
The LMO`s will be ordered according to atom index and type
  (A) Strongly localized MO`s have populations of >=0.950 on one atom
  (B) Two center bond orbitals have populations of >=0.850 on two atoms
  (C) Other MO`s are considered to be `delocalized`

FOUND  -   8 strongly local MO`s
       -   0 two center bond MO`s
       -   0 significantly delocalized MO`s

Rather strongly localized orbitals:
MO   7:   7C  -   1.000751
MO   6:   6O  -   0.999627
MO   5:   5C  -   1.001582
MO   4:   4C  -   1.001473
MO   3:   3C  -   1.001433
MO   2:   2C  -   1.001167
MO   1:   1O  -   0.999697
MO   0:   0C  -   1.000990
Localized MO's were stored in: 2_methoxytetrahydropyran_eq.proc0.loc

Warning: internal orbitals are localized - no re-canonicalization of internal orbitals

--------------------------
CLOSED-SHELL FOCK OPERATOR
[...]
--------------------------------

Orbital window:       8 to 31
Number of PAOs:     408
Basis functions:    408 (152 shells)
Aux. functions:    1008 (304 shells)

Processing maps (0.0 sec)
Average map sizes:
   Aux shells -> MOs              24.0
   Aux shells -> PAOs            408.0
   MOs        -> AO shells       148.1
   PAOs       -> AO shells       151.6

Calculating integrals (0.9 sec, 75.316 MB)
Sorting integrals (0.1 sec, 75.305 MB)
Total time for the integral transformation: 1.1 sec
--------------------------------
INITIAL GUESS AND PNO GENERATION
--------------------------------

PNO truncation parameters                   .... 
    ScaleTCutPNO       =        1.000e-02
    PAOOverlapThresh   =        1.000e-08

    TCutPairs          =        1.000e-05
    TCutPNO            =        1.000e-07
    TCutPNOSingles     =        3.000e-09
    TCutMP2Pairs       =        1.000e-06
    TCutMKN            =        1.000e-03
    TCutDO             =        5.000e-03

Pair selection                          .... not used
Type of local MP2 treatment                 .... full local PMP2
Strategy for PNO selection                  .... occupation number selection
Pair density normalization                  .... MP2 norm
Spin component scaling                      .... not used

PASS-1: Formation of initial guess LMP2 amplitudes
Initial amplitudes guess done. Entering LMP2 iteration loop:
   Max. no of iterations          ...  50
   Energy convergence tolerance   ...    1.0e-07
   Residual convergence tolerance ...    5.0e-07
   Fock matrix cutoff             ...    1.0e-05 Eh
   DIIS convergence acceleration parameters:
        Max # vectors in DIIS     ... 7
        Start iteration of DIIS   ... 0
        Levelshift                ... 2.000e-01
        Damping factor 1          ... 5.000e-01
        Damping factor 2          ... 1.000e+00
   L-MP2 PNO cut-off              ...   1.0e-09
   L-MP2 PNO cut-off (core)       ...   1.0e-11
                           *** Turning on DIIS ***
LMP2-Iter=   0:  ELMP2= -1.483699608976  DE=   3.0e-02 RMAX=   5.0e-03
LMP2-Iter=   1:  ELMP2= -1.498274079310  DE=   1.5e-02 RMAX=   2.7e-03
LMP2-Iter=   2:  ELMP2= -1.500534345957  DE=   2.3e-03 RMAX=   5.6e-04
LMP2-Iter=   3:  ELMP2= -1.500783194319  DE=   2.5e-04 RMAX=   2.0e-04
LMP2-Iter=   4:  ELMP2= -1.500795781109  DE=   1.3e-05 RMAX=   2.4e-05
LMP2-Iter=   5:  ELMP2= -1.500793810710  DE=   2.0e-06 RMAX=   7.6e-06
LMP2-Iter=   6:  ELMP2= -1.500793527463  DE=   2.8e-07 RMAX=   1.3e-06
LMP2-Iter=   7:  ELMP2= -1.500793505008  DE=   2.2e-08 RMAX=   3.5e-07
LMP2-Iter=   8:  ELMP2= -1.500793516253  DE=   1.1e-08 RMAX=   7.0e-08 => CONVERGED
PASS-2: Formation of Pair natural orbitals
   .... Finished loop over pairs

 PNO Occupation Number Statistics: 
  | Av. % of trace(Dij) retained        ...  99.264266548118
  | sigma^2 in % of trace(Dij) retained ...   8.83e-01
  | Av. % of trace(Di) retained         ...  99.999693617131
  | sigma^2 in % of trace(Di) retained  ...   8.97e-09
 Distributions of % trace(Dij) recovered:
  |       >= 99.9  ...    72 ( 24.0 % of all pairs)
  |   [90.0, 99.0) ...    75 ( 25.0 % of all pairs)
  |   [99.0, 99.9) ...   153 ( 51.0 % of all pairs)
 Distributions of % trace(Di) recovered :
  |       >= 99.9  ...    24 (100.0 % of all I-pairs )

Making pair pair interaction lists          ... done

                       ===========================
                        286 OF  300 PAIRS ARE KEPT
                       ===========================

Total time spent in the initial guess                 ...    30.314 sec
L-MP2 correlation energy (all non-screened pairs)     ...      -1.500793516253 Eh
L-MP2 PNO error correction                            ...      -0.000038993323 Eh
                                                          --------------------
Initial total L-MP2 energy (non-screened pairs)       ...      -1.500832509576 Eh

Initial PNO correlation energy                        ...      -1.499171078665 Eh
sum of pair energies estimated for screened out pairs ...       0.000000000000 Eh
sum of MP2 pair energies for pairs that were not kept ...      -0.000122112992 Eh
sum of PNO error estimates for the kept pairs         ...      -0.001581178565 Eh
                                                          --------------------
sum of all corrections                                         -0.001703291557
Initial total correlation energy                               -1.500874370222
Thresholds for map construction and integral transformation for fine MP2 and CCSD(T) calculation:
   TCutMKN   ...     1.0e-03
   TCutDO    ...     5.0e-03
   TCutPairs ...     1.0e-05
   TCutCMO   ...     1.0e-03
   TCutCPAO  ...     1.0e-03

Time for aux screen maps:            0.007
Time for maps after fine MP2:            0.023
-----------------------------
LOCAL RI TRANSFORMATION (IJV)
-----------------------------

Orbital window:       8 to 31
Basis functions:    408 (152 shells)
Aux. functions:    1008 (304 shells)

Processing maps (0.0 sec)
Average map sizes:
   Aux shells -> MOs(i)           24.0
   Aux shells -> MOs(j)           24.0
   MOs        -> AO shells       148.1

Calculating integrals (0.9 sec, 4.441 MB)
Sorting integrals (0.0 sec, 4.430 MB)
Total time for the integral transformation: 0.9 sec
--------------------------------
LOCAL RI TRANSFORMATION (VABPAO)
--------------------------------

Number of PAOs:     408
Basis functions:    408 (152 shells)
Aux. functions:    1008 (304 shells)

Processing maps (0.0 sec)
Average map sizes:
   Aux shells -> PAOs            408.0
   PAOs       -> AO shells       151.6

Calculating integrals (3.3 sec, 2407.979 MB)
Finished


-------------------------------------
Pair Pair Term precalculation with     
RI-(ij|mn) and (im|jn) transformation  
ON THE FLY                             
-------------------------------------

   IBatch   1 (of   2)              ... done (  105.254 sec)
   IBatch   2 (of   2)              ... done (   61.663 sec)
Total EXT                           ...         166.918 sec

---------------------
RI-PNO TRANSFORMATION
---------------------

Total Number of PNOs                   ... 10939
Average number of PNOs per pair        ...    38
Maximal number of PNOs per pair        ...    71
   #pairs with  1 -  5 PNOs   :    0
   #pairs with  6 - 10 PNOs   :   22
   #pairs with 11 - 15 PNOs   :   17
   #pairs with 16 - 20 PNOs   :   18
   #pairs with 21 - 25 PNOs   :   22
   #pairs with 26 - 30 PNOs   :   37
   #pairs with 31 - 35 PNOs   :   19
   #pairs with 36 - 40 PNOs   :   12
   #pairs with 41 - 45 PNOs   :   12
   #pairs with 46 - 50 PNOs   :   42
   #pairs with 51 - 55 PNOs   :   31
   #pairs with 56 - 60 PNOs   :   16
   #pairs with 61 - 65 PNOs   :   19
   #pairs with 66 - 70 PNOs   :   17
   #pairs with 71 - 75 PNOs   :    2

Generation of (ij|ab)[P] integrals            ... on
Generation of (ia|bc)[P],(ja|bc)[P] integrals ... on
Storage of 3 and 4 external integrals         ... on
Generation of ALL (ka|bc)[P] integrals        ... on
Keep RI integrals in memory                   ... off

Ibatch:  1 (of  1)
Starting 2-4 index PNO integral generation ... done

Timings:
Total PNO integral transformation time     ...         64.460 sec
Size of the 3-external file                ...       206 MB
Size of the 4-external file                ...      1454 MB
Size of the IKJL file                      ...         0 MB
Size of the all 3-external file            ...      2481 MB
Size of the 1-external file                ...         6 MB

Making pair/pair overlap matrices          ... done (    6.849 sec)
Size of the pair overlap file              ... 648 MB
Redoing the guess amplitudes               ... done (    0.032 sec)

-------------------------
FINAL STARTUP INFORMATION
-------------------------

E(0)                                       ...   -384.043790889
E(L-MP2)                                   ...     -1.500832510
E(L-MP2) including corrections             ...     -1.500874370
Initial E(tot)                             ...   -385.544665259
<T|T>                                      ...      0.388318961
Number of pairs included                   ... 286
Total number of pairs                      ... 300

------------------------------------------------
                  RHF COUPLED CLUSTER ITERATIONS
------------------------------------------------

Number of PNO amplitudes to be optimized   ...       511655
Number of non-PNO amplitudes               ...     40433536
Untruncated number of regular amplitudes   ...     42412800

Iter       E(tot)           E(Corr)          Delta-E          Residual     Time
  0   -385.497411653     -1.451917473      0.048915036      0.015672481   17.98
                           *** Turning on DIIS ***
  1   -385.556653819     -1.511159639     -0.059242166      0.007703547   22.48
  2   -385.594316984     -1.548822804     -0.037663165      0.002721694   16.13
  3   -385.601410956     -1.555916776     -0.007093972      0.001148945   16.34
  4   -385.603058059     -1.557563879     -0.001647102      0.000476141   15.19
  5   -385.603376948     -1.557882768     -0.000318889      0.000231629   15.74
  6   -385.603450409     -1.557956229     -0.000073461      0.000086412   15.76
  7   -385.603462498     -1.557968317     -0.000012089      0.000036986   15.75
  8   -385.603464239     -1.557970059     -0.000001741      0.000012070   15.74
  9   -385.603462913     -1.557968733      0.000001326      0.000003465   15.75
               --- The Coupled-Cluster iterations have converged ---

----------------------
COUPLED CLUSTER ENERGY
----------------------

E(0)                                       ...   -384.043790889
E(CORR)(strong-pairs)                      ...     -1.557968733
E(CORR)(weak-pairs)                        ...     -0.001703292
E(CORR)(corrected)                         ...     -1.559672024
E(TOT)                                     ...   -385.603462913
Singles Norm <S|S>**1/2                    ...      0.069101445  
T1 diagnostic                              ...      0.009973934  

------------------
LARGEST AMPLITUDES
------------------
  31-> 38  31-> 38       0.037050
  13-> 32  13-> 32       0.035994
  12-> 32  12-> 32       0.033730
  30-> 39  30-> 39       0.032773
  21-> 38  21-> 38       0.031952
  28-> 32  28-> 32       0.029887
  18-> 32  18-> 32       0.029657
  19-> 32  19-> 32       0.029013
  21-> 32  21-> 32       0.028756
  24-> 32  24-> 32       0.028352
  23-> 32  23-> 32       0.027923
  30-> 32  30-> 32       0.027851
  27-> 32  27-> 32       0.027548
  22-> 32  22-> 32       0.027353
  25-> 32  25-> 32       0.026889
  26-> 32  26-> 32       0.026878


-------------------------------------------
DLPNO BASED TRIPLES CORRECTION
-------------------------------------------

Singles multiplier          ...  1.000000
TCutTNO                     ... 1.000e-09
TCutMP2Pairs                ... 1.000e-06
TCutDOStrong                ... 1.000e-02
TCutMKNStrong               ... 1.000e-02
TCutDOWeak                  ... 2.000e-02
TCutMKNWeak                 ... 1.000e-01

Fragment selection                          .... not used
Number of Triples that are to be computed   ...      2509

 . . . . . . . . .
10% done  
20% done  
30% done  
40% done  
50% done  
60% done  
70% done  
80% done  
90% done               (    410.250 sec)
Triples timings:
Total time for T0               ...   437.898 sec
Total time for Iterative (T)    ...     0.000 sec
Total time of overall (T)       ...   440.090 sec

Triples List generation         ...     0.000 sec
TNO generation                  ...    27.616 sec
Pair density generation         ...     0.016 sec
Look up tables                  ...     0.011 sec
Generating 3-index integrals    ...   315.331 sec
  Make 4-ind.int. from 3-ind.int...    28.097 sec
  Projecting amplitudes (D + S) ...    33.859 sec
  Downprojecting integrals      ...     0.005 sec
  Energy contr. (sum over a,b,c)...     9.246 sec
Fitting ET(->0)                 ...     0.000 sec

Everything after 3-index        ...    94.918 sec

Timing details:
 TNO integrals                  ...   340.803 sec
   Reading 3-index integrals    ...     0.629 sec
   Sorting integrals            ...    33.898 sec
       Sorting integrals 1      ...     0.003 sec
       Sorting integrals 2      ...    23.024 sec
       Sorting integrals 3      ...     0.849 sec
       Sorting integrals 4      ...     0.078 sec
       Sorting integrals 5      ...     0.380 sec
       Sorting integrals 6      ...     9.565 sec
   Calculating local VM**-1/2   ...     1.194 sec
   Orthogonal. integrals        ...     1.780 sec
   Multipl. 3-index integrals   ...   303.301 sec
   All concerning IRIab (w/TNO) ...    14.743 sec

 Calculate W0/W1                ...    23.701 sec
 W 3-ext contribution           ...    12.553 sec
 W 3-int contribution           ...     3.865 sec
 Sorting W                      ...     6.939 sec

 V exchange contribution        ...     3.066 sec

 Timings for Triples without generation
     of 3-index integrals       ...    94.914 sec
       0 weak pairs             ...    91.379 sec
       1 weak pair              ...     3.536 sec
       2 weak pairs             ...     0.000 sec
       3 weak pairs             ...     0.000 sec
  Extra time for extrapolation  ...     0.000 sec

Number of Triples   (0, 1, 2, 3 weak pairs; overall):   2279     230       0       0  (  2509)
Number of Atoms     (0, 1, 2, 3 weak pairs; overall):   18.4    17.8     0.0     0.0  (    20)
Number of PAOs      (0, 1, 2, 3 weak pairs; overall):  382.1   375.8     0.0     0.0  (   408)
Number of AuxFcns   (0, 1, 2, 3 weak pairs; overall):  473.3   346.0     0.0     0.0  (  1008)
Number of TNOs      (0, 1, 2, 3 weak pairs         ):   95.7    64.6     0.0     0.0
Aver. Number of NTNO, Atoms, PAOs, AuxFcns / Triples:   2509    92.8    18.3   381.6   461.6

Triples Correction (T)                     ...     -0.061017462
Final correlation energy                   ...     -1.620689487
E(CCSD)                                    ...   -385.603462913
E(CCSD(T))                                 ...   -385.664480375


Maximum memory used throughout the entire calculation: 7773.7 MB


------------------------------------------------------------------------------- 
                                     TIMINGS                                   
------------------------------------------------------------------------------- 


Total execution time                   ...      895.566 sec

Localization of occupied MO's          ...        0.669 sec (  0.1%)
Fock Matrix Formation                  ...        3.264 sec (  0.4%)
Global overlap, Fock, MKN matrices     ...        0.230 sec (  0.0%)
Differential overlap integrals         ...        0.156 sec (  0.0%)
Organizing maps                        ...        0.073 sec (  0.0%)
RI 3-index integral generations        ...        6.308 sec (  0.7%)
RI-PNO integral transformation         ...      241.550 sec ( 27.0%)
Initial Guess                          ...       34.693 sec (  3.9%)
DIIS Solver                            ...        5.114 sec (  0.6%)
State Vector Update                    ...        0.041 sec (  0.0%)
Sigma-vector construction              ...      166.464 sec ( 18.6%)
  <D|H|D>(0-ext)                       ...        4.813 sec (  2.9% of sigma)
  <D|H|D>(2-ext Fock)                  ...        0.016 sec (  0.0% of sigma)
  <D|H|D>(2-ext)                       ...       27.309 sec ( 16.4% of sigma)
  <D|H|D>(4-ext)                       ...       15.679 sec (  9.4% of sigma)
  <D|H|D>(4-ext-corr)                  ...       79.626 sec ( 47.8% of sigma)
  CCSD doubles correction              ...        0.283 sec (  0.2% of sigma)
  <S|H|S>                              ...        0.578 sec (  0.3% of sigma)
  <S|H|D>(1-ext)                       ...        0.584 sec (  0.4% of sigma)
  <D|H|S>(1-ext)                       ...        0.016 sec (  0.0% of sigma)
  <S|H|D>(3-ext)                       ...        0.607 sec (  0.4% of sigma)
  Fock-dressing                        ...       27.680 sec ( 16.6% of sigma)
  Singles amplitudes                   ...        0.771 sec (  0.5% of sigma)
  (ik|jl)-dressing                     ...        3.540 sec (  2.1% of sigma)
  (ij|ab),(ia|jb)-dressing             ...        2.864 sec (  1.7% of sigma)
  Pair energies                        ...        0.009 sec (  0.0% of sigma)
Total Time for computing (T)           ...      440.209 sec ( 49.2% of ALL)


-------------------------   --------------------
FINAL SINGLE POINT ENERGY      -385.664480375199
-------------------------   --------------------


                            ***************************************
                            *     ORCA property calculations      *
                            ***************************************

                                    ---------------------
                                    Active property flags
                                    ---------------------
   (+) Dipole Moment


------------------------------------------------------------------------------
                       ORCA ELECTRIC PROPERTIES CALCULATION
------------------------------------------------------------------------------

Dipole Moment Calculation                       ... on
Quadrupole Moment Calculation                   ... off
Polarizability Calculation                      ... off
GBWName                                         ... 2_methoxytetrahydropyran_eq.gbw
Electron density file                           ... 2_methoxytetrahydropyran_eq.scfp.tmp
The origin for moment calculation is the CENTER OF MASS  = ( 0.044314, -0.002184 -0.035619)

-------------
DIPOLE MOMENT
-------------
                                X             Y             Z
Electronic contribution:      2.38225      -0.24553      -1.69131
Nuclear contribution   :     -2.83627       0.13978       2.27964
                        -----------------------------------------
Total Dipole Moment    :     -0.45402      -0.10576       0.58833
                        -----------------------------------------
Magnitude (a.u.)       :      0.75063
Magnitude (Debye)      :      1.90796



--------------------
Rotational spectrum 
--------------------
 
Rotational constants in cm-1:     0.138125     0.048359     0.038463 
Rotational constants in MHz :  4140.896098  1449.763307  1153.087351 

 Dipole components along the rotational axes: 
x,y,z [a.u.] :     0.459327    -0.094356     0.586145 
x,y,z [Debye]:     1.167517    -0.239835     1.489862 

 

Timings for individual modules:

Sum of individual times         ...      948.748 sec (=  15.812 min)
GTO integral calculation        ...        2.239 sec (=   0.037 min)   0.2 %
SCF iterations                  ...       45.025 sec (=   0.750 min)   4.7 %
MDCI module                     ...      901.484 sec (=  15.025 min)  95.0 %
                             ****ORCA TERMINATED NORMALLY****
TOTAL RUN TIME: 0 days 0 hours 15 minutes 49 seconds 616 msec
2_methoxytetrahydropyran_eq.gbw -> /home1/pantazis/klk/xyz_1/Oxygen_compounds/2_methoxytetrahydropyran_eq.gbw
2_methoxytetrahydropyran_eq.job -> /home1/pantazis/klk/xyz_1/Oxygen_compounds/2_methoxytetrahydropyran_eq.job
2_methoxytetrahydropyran_eq.loc -> /home1/pantazis/klk/xyz_1/Oxygen_compounds/2_methoxytetrahydropyran_eq.loc
2_methoxytetrahydropyran_eq.nodes -> /home1/pantazis/klk/xyz_1/Oxygen_compounds/2_methoxytetrahydropyran_eq.nodes
2_methoxytetrahydropyran_eq.prop -> /home1/pantazis/klk/xyz_1/Oxygen_compounds/2_methoxytetrahydropyran_eq.prop
2_methoxytetrahydropyran_eq_property.txt -> /home1/pantazis/klk/xyz_1/Oxygen_compounds/2_methoxytetrahydropyran_eq_property.txt
2_methoxytetrahydropyran_eq.xyz -> /home1/pantazis/klk/xyz_1/Oxygen_compounds/2_methoxytetrahydropyran_eq.xyz
cp: cannot stat 2_methoxytetrahydropyran_eq.asa.inp: No such file or directory
