! Job execution by suborca V 6.07 on ZEUS !
Job started from zeus1, running /scratch/pantazis/2_propanethiol_g__JL5pMi/orca/orca copied from /opt/orca on zeussn127 in /scratch/pantazis/2_propanethiol_g__JL5pMi
Job execution start: Thu Jun 27 11:08:19 CEST 2019
Shared library path: /scratch/pantazis/2_propanethiol_g__JL5pMi/orca:/opt/openmpi_1.10.2/lib:/opt/intel/mkl/lib/intel64:/opt/intel/lib/intel64:
PBS Job ID is: 157988.icqc
izeussn127
izeussn127
izeussn127
izeussn127
izeussn127
izeussn127
izeussn127
izeussn127

                                 *****************
                                 * O   R   C   A *
                                 *****************

           --- An Ab Initio, DFT and Semiempirical electronic structure package ---

                  #######################################################
                  #                        -***-                        #
                  #          Department of theory and spectroscopy      #
                  #               Directorship: Frank Neese             #
                  #        Max Planck Institute fuer Kohlenforschung    #
                  #                Kaiser Wilhelm Platz 1               #
                  #                 D-45470 Muelheim/Ruhr               #
                  #                      Germany                        #
                  #                                                     #
                  #                  All rights reserved                #
                  #                        -***-                        #
                  #######################################################


                         Program Version 4.1.x  -  STABLE  -
                                (SVN: $Rev: 14094$)
                ($Date: 2019-06-14 15:01:15 +0200 (Fri, 14 Jun 2019) $)

                         (BUILD: $Sun Jun 23 06:18:31 CEST 2019$)


 With contributions from (in alphabetic order):
   Daniel Aravena         : Magnetic Properties
   Michael Atanasov       : Ab Initio Ligand Field Theory
   Alexander A. Auer      : GIAO ZORA
   Ute Becker             : Parallelization
   Giovanni Bistoni       : ED, Open-shell LED
   Martin Brehm           : Molecular dynamics
   Dmytro Bykov           : SCF Hessian
   Vijay G. Chilkuri      : MRCI spin determinant printing
   Dipayan Datta          : RHF DLPNO-CCSD density
   Achintya Kumar Dutta   : EOM-CC, STEOM-CC
   Dmitry Ganyushin       : Spin-Orbit,Spin-Spin,Magnetic field MRCI
   Miquel Garcia          : C-PCM Hessian
   Yang Guo               : DLPNO-NEVPT2, CIM, IAO-localization
   Andreas Hansen         : Spin unrestricted coupled pair/coupled cluster methods
   Benjamin Helmich-Paris : CASSCF linear response (MC-RPA)
   Lee Huntington         : MR-EOM, pCC
   Robert Izsak           : Overlap fitted RIJCOSX, COSX-SCS-MP3, EOM
   Christian Kollmar      : KDIIS, OOCD, Brueckner-CCSD(T), CCSD density
   Simone Kossmann        : Meta GGA functionals, TD-DFT gradient, OOMP2, MP2 Hessian
   Martin Krupicka        : AUTO-CI
   Lucas Lang             : DCDCAS
   Dagmar Lenk            : GEPOL surface, SMD
   Dimitrios Liakos       : Extrapolation schemes; parallel MDCI
   Dimitrios Manganas     : ROCIS; embedding schemes
   Dimitrios Pantazis     : SARC Basis sets
   Taras Petrenko         : DFT Hessian,TD-DFT gradient, ASA, ECA, R-Raman, ABS, FL, XAS/XES, NRVS
   Peter Pinski           : DLPNO-MP2, DLPNO-MP2 Gradient
   Christoph Reimann      : Effective Core Potentials
   Marius Retegan         : Local ZFS, SOC
   Christoph Riplinger    : Optimizer, TS searches, QM/MM, DLPNO-CCSD(T), (RO)-DLPNO pert. Triples
   Tobias Risthaus        : Range-separated hybrids, TD-DFT gradient, RPA, STAB
   Michael Roemelt        : Restricted open shell CIS
   Masaaki Saitow         : Open-shell DLPNO
   Barbara Sandhoefer     : DKH picture change effects
   Avijit Sen             : IP-ROCIS
   Kantharuban Sivalingam : CASSCF convergence, NEVPT2, FIC-MRCI
   Bernardo de Souza      : ESD, SOC TD-DFT
   Georgi Stoychev        : AutoAux, RI-MP2 NMR
   Willem Van den Heuvel  : Paramagnetic NMR
   Boris Wezisla          : Elementary symmetry handling
   Frank Wennmohs         : Technical directorship


 We gratefully acknowledge several colleagues who have allowed us to
 interface, adapt or use parts of their codes:
   Stefan Grimme, W. Hujo, H. Kruse,             : VdW corrections, initial TS optimization,
                  C. Bannwarth                     DFT functionals, gCP, sTDA/sTD-DF
   Ed Valeev                                     : LibInt (2-el integral package), F12 methods
   Garnet Chan, S. Sharma, J. Yang, R. Olivares  : DMRG
   Ulf Ekstrom                                   : XCFun DFT Library
   Mihaly Kallay                                 : mrcc  (arbitrary order and MRCC methods)
   Andreas Klamt, Michael Diedenhofen            : otool_cosmo (COSMO solvation model)
   Jiri Pittner, Ondrej Demel                    : Mk-CCSD
   Frank Weinhold                                : gennbo (NPA and NBO analysis)
   Christopher J. Cramer and Donald G. Truhlar   : smd solvation model
   Lars Goerigk                                  : TD-DFT with DH, B97 family of functionals
   V. Asgeirsson, H. Jonsson                     : NEB implementation
   FAccTs GmbH                                   : IRC, NEB, NEB-TS, Multilevel


 Your calculation uses the libint2 library for the computation of 2-el integrals
 For citations please refer to: http://libint.valeyev.net

 This ORCA versions uses:
   CBLAS   interface :  Fast vector & matrix operations
   LAPACKE interface :  Fast linear algebra routines
   SCALAPACK package :  Parallel linear algebra routines




***************************************
The coordinates will be read from file: 2_propanethiol_g.xyz
***************************************


----- Orbital basis set information -----
Your calculation utilizes the basis: cc-pVTZ 
       H, B-Ne : Obtained from the ccRepo (grant-hill.group.shef.ac.uk/ccrepo) Feb. 2017
                 T. H. Dunning, Jr., J. Chem. Phys. 90, 1007 (1989)
            He : Obtained from the ccRepo (grant-hill.group.shef.ac.uk/ccrepo) Feb. 2017
                 D. E. Woon, T. H. Dunning, Jr., J. Chem. Phys. 100, 2975 (1994)
  Li-Be, Na-Mg : Obtained from the ccRepo (grant-hill.group.shef.ac.uk/ccrepo) Feb. 2017
                 B. P. Prascher, D. E. Woon, K. A. Peterson, T. H. Dunning, Jr., A. K. Wilson, Theor. Chem. Acc. 128, 69 (2011)
         Al-Ar : Obtained from the ccRepo (grant-hill.group.shef.ac.uk/ccrepo) Feb. 2017
                 D. E. Woon, T. H. Dunning, Jr., J. Chem. Phys. 98, 1358 (1993)
            Ca : Obtained from the Peterson Research Group Website (tyr0.chem.wsu.edu/~kipeters) Feb. 2017
                 J. Koput, K. A. Peterson, J. Phys. Chem. 106, 9595 (2002)
         Sc-Zn : Obtained from the ccRepo (grant-hill.group.shef.ac.uk/ccrepo) Feb. 2017
                 N. B. Balabanov, K. A. Peterson, J. Chem. Phys. 123, 064107 (2005)
                 N. B. Balabanov, K. A. Peterson, J. Chem. Phys. 125, 074110 (2006)
         Ga-Kr : Obtained from the ccRepo (grant-hill.group.shef.ac.uk/ccrepo) Feb. 2017
                 A. K. Wilson, D. E. Woon, K. A. Peterson, T. H. Dunning, Jr., J. Chem. Phys. 110, 7667 (1999)
             Y : Obtained from the ccRepo (grant-hill.group.shef.ac.uk/ccrepo) Feb. 2017
                 K. A. Peterson, D. Figgen, M. Dolg, H. Stoll, J. Chem. Phys. 126, 124101 (2007)
        Ag, Au : Obtained from the Peterson Research Group Website (tyr0.chem.wsu.edu/~kipeters) Feb. 2017
                 K. A. Peterson, C. Puzzarini, Theor. Chem. Acc. 114, 283 (2005)

----- AuxC basis set information -----
Your calculation utilizes the auxiliary basis: cc-pVTZ/C 
  Obtained from the EMSL Basis Set Exchange (bse.pnl.gov) Feb. 2017
  H-He, B-F, Al-Ar, Ga-Kr : F. Weigend, A. Kohn, C. Hattig, J. Chem. Phys. 116, 3175 (2002)
             Li-Be, Na-Mg : C. Haettig, Phys. Chem. Chem. Phys. 7, 59 (2005)
                       Ne : C. Haettig, Phys. Chem. Chem. Phys. 7, 59 (2005)
                            F. Weigend, A. Kohn, C. Hattig, J. Chem. Phys. 116, 3175 (2002)
                    Sc-Zn : J. G. Hill, J. A. Platts, J. Chem. Phys. 128, 044104 (2008)

----- AuxJK basis set information -----
Your calculation utilizes the auxiliary basis: cc-pVTZ/JK 
  H, B-F, Al-Cl, Ga-Br : Obtained from the TURBOMOLE 7.0 basis set library

================================================================================
                                        WARNINGS
                       Please study these warnings very carefully!
================================================================================


WARNING: MDCI localization with Augmented Hessian Foster-Boys
  ===> : Switching off randomization!

WARNING: Post HF methods need fully converged wavefunctions
  ===> : Setting SCFConvForced true
         You can overwrite this default with %scf ConvForced false 


INFO   : the flag for use of LIBINT has been found!

================================================================================
                                       INPUT FILE
================================================================================
NAME = 2_propanethiol_g.inp
|  1> ! RHF DLPNO-CCSD(T) cc-pVTZ RIJK cc-pVTZ/JK cc-pVTZ/C
|  2> ! KDIIS SOSCF TightSCF TightPNO
|  3> 
|  4> %pal nprocs 8 end
|  5> 
|  6> %maxcore 8000
|  7> 
|  8> %scf maxiter 300
|  9>      shift shift 0.2 erroff 0.1 end
| 10> end
| 11> 
| 12> * xyzfile 0 1 2_propanethiol_g.xyz 
| 13> 
| 14> 
| 15>                          ****END OF INPUT****
================================================================================

                       ****************************
                       * Single Point Calculation *
                       ****************************

---------------------------------
CARTESIAN COORDINATES (ANGSTROEM)
---------------------------------
  C     -1.092740    1.275780   -0.142000
  C     -0.417740    0.015930    0.402310
  C     -1.095460   -1.265480   -0.091460
  S      1.373370   -0.082740   -0.089900
  H      1.745340    1.113040    0.411560
  H     -2.145330    1.300620    0.168000
  H     -0.613340    2.186140    0.232260
  H     -0.443270    0.030180    1.497110
  H     -0.619690   -2.159090    0.323930
  H     -1.059300   -1.332850   -1.184490
  H     -2.148030   -1.268690    0.213100
  H     -1.054700    1.297220   -1.236060

----------------------------
CARTESIAN COORDINATES (A.U.)
----------------------------
  NO LB      ZA    FRAG     MASS         X           Y           Z
   0 C     6.0000    0    12.011   -2.064979    2.410875   -0.268341
   1 C     6.0000    0    12.011   -0.789414    0.030103    0.760256
   2 C     6.0000    0    12.011   -2.070119   -2.391411   -0.172834
   3 S    16.0000    0    32.060    2.595293   -0.156356   -0.169886
   4 H     1.0000    0     1.008    3.298215    2.103341    0.777736
   5 H     1.0000    0     1.008   -4.054086    2.457816    0.317474
   6 H     1.0000    0     1.008   -1.159045    4.131206    0.438908
   7 H     1.0000    0     1.008   -0.837659    0.057032    2.829128
   8 H     1.0000    0     1.008   -1.171044   -4.080089    0.612139
   9 H     1.0000    0     1.008   -2.001787   -2.518721   -2.238362
  10 H     1.0000    0     1.008   -4.059188   -2.397477    0.402701
  11 H     1.0000    0     1.008   -1.993094    2.451391   -2.335815

--------------------------------
INTERNAL COORDINATES (ANGSTROEM)
--------------------------------
 C      0   0   0     0.000000000000     0.00000000     0.00000000
 C      1   0   0     1.529418320343     0.00000000     0.00000000
 C      2   1   0     1.531380031018   112.28485884     0.00000000
 S      2   1   3     1.860129426975   111.99282179   120.73154523
 H      4   2   1     1.348967612992    96.89940341    55.51478138
 H      1   2   3     1.097571288664   109.96100164    59.31253266
 H      1   2   3     1.094828862060   111.71788602   178.88023890
 H      2   1   3     1.095190341174   109.55796535   238.94152317
 H      3   2   1     1.094278199134   111.62383028   181.41258808
 H      3   2   1     1.095701073925   111.00766746    60.46966113
 H      3   2   1     1.095751204699   109.75182600   301.17221916
 H      1   2   3     1.094931047509   110.87970487   299.48851571

---------------------------
INTERNAL COORDINATES (A.U.)
---------------------------
 C      0   0   0     0.000000000000     0.00000000     0.00000000
 C      1   0   0     2.890181769650     0.00000000     0.00000000
 C      2   1   0     2.893888865579   112.28485884     0.00000000
 S      2   1   3     3.515135190631   111.99282179   120.73154523
 H      4   2   1     2.549179352083    96.89940341    55.51478138
 H      1   2   3     2.074109148030   109.96100164    59.31253266
 H      1   2   3     2.068926712806   111.71788602   178.88023890
 H      2   1   3     2.069609809334   109.55796535   238.94152317
 H      3   2   1     2.067886110684   111.62383028   181.41258808
 H      3   2   1     2.070574954361   111.00766746    60.46966113
 H      3   2   1     2.070669687796   109.75182600   301.17221916
 H      1   2   3     2.069119815320   110.87970487   299.48851571

---------------------
BASIS SET INFORMATION
---------------------
There are 3 groups of distinct atoms

 Group   1 Type C   : 18s5p2d1f contracted to 4s3p2d1f pattern {8811/311/11/1}
 Group   2 Type S   : 41s16p2d1f contracted to 5s4p2d1f pattern {13131311/7711/11/1}
 Group   3 Type H   : 5s2p1d contracted to 3s2p1d pattern {311/11/1}

Atom   0C    basis set group =>   1
Atom   1C    basis set group =>   1
Atom   2C    basis set group =>   1
Atom   3S    basis set group =>   2
Atom   4H    basis set group =>   3
Atom   5H    basis set group =>   3
Atom   6H    basis set group =>   3
Atom   7H    basis set group =>   3
Atom   8H    basis set group =>   3
Atom   9H    basis set group =>   3
Atom  10H    basis set group =>   3
Atom  11H    basis set group =>   3
-------------------------------
AUXILIARY BASIS SET INFORMATION
-------------------------------
There are 3 groups of distinct atoms

 Group   1 Type C   : 8s6p5d3f1g contracted to 8s6p5d3f1g pattern {11111111/111111/11111/111/1}
 Group   2 Type S   : 10s8p7d5f2g contracted to 10s8p7d5f2g pattern {1111111111/11111111/1111111/11111/11}
 Group   3 Type H   : 4s3p2d1f contracted to 4s3p2d1f pattern {1111/111/11/1}

Atom   0C    basis set group =>   1
Atom   1C    basis set group =>   1
Atom   2C    basis set group =>   1
Atom   3S    basis set group =>   2
Atom   4H    basis set group =>   3
Atom   5H    basis set group =>   3
Atom   6H    basis set group =>   3
Atom   7H    basis set group =>   3
Atom   8H    basis set group =>   3
Atom   9H    basis set group =>   3
Atom  10H    basis set group =>   3
Atom  11H    basis set group =>   3
-------------------------------
AUXILIARY BASIS SET INFORMATION
-------------------------------
There are 3 groups of distinct atoms

 Group   1 Type C   : 10s7p5d2f1g contracted to 10s7p5d2f1g pattern {1111111111/1111111/11111/11/1}
 Group   2 Type S   : 13s11p9d3f1g contracted to 13s11p9d3f1g pattern {1111111111111/11111111111/111111111/111/1}
 Group   3 Type H   : 4s3p2d1f contracted to 4s3p2d1f pattern {1111/111/11/1}

Atom   0C    basis set group =>   1
Atom   1C    basis set group =>   1
Atom   2C    basis set group =>   1
Atom   3S    basis set group =>   2
Atom   4H    basis set group =>   3
Atom   5H    basis set group =>   3
Atom   6H    basis set group =>   3
Atom   7H    basis set group =>   3
Atom   8H    basis set group =>   3
Atom   9H    basis set group =>   3
Atom  10H    basis set group =>   3
Atom  11H    basis set group =>   3


           ************************************************************
           *        Program running with 8 parallel MPI-processes     *
           *              working on a common directory               *
           ************************************************************
------------------------------------------------------------------------------
                           ORCA GTO INTEGRAL CALCULATION
                           -- RI-GTO INTEGRALS CHOSEN --
------------------------------------------------------------------------------

                         BASIS SET STATISTICS AND STARTUP INFO

Gaussian basis set:
 # of primitive gaussian shells          ...  202
 # of primitive gaussian functions       ...  384
 # of contracted shells                  ...   90
 # of contracted basis functions         ...  236
 Highest angular momentum                ...    3
 Maximum contraction depth               ...   13
Auxiliary gaussian basis set:
 # of primitive gaussian shells          ...  192
 # of primitive gaussian functions       ...  598
 # of contracted shells                  ...  192
 # of contracted aux-basis functions     ...  598
 Highest angular momentum                ...    4
 Maximum contraction depth               ...    1
Ratio of auxiliary to basis functions    ...  2.53
Integral package used                  ... LIBINT
 One Electron integrals                  ... done
 Ordering auxiliary basis shells         ... done
 Integral threshhold             Thresh  ...  2.500e-11
 Primitive cut-off               TCut    ...  2.500e-12
 Pre-screening matrix                    ... done
 Shell pair data                         ... 
 Ordering of the shell pairs             ... done (   0.001 sec) 4039 of 4095 pairs
 Determination of significant pairs      ... done (   0.000 sec)
 Creation of shell pair data             ... done (   0.001 sec)
 Storage of shell pair data              ... done (   0.002 sec)
 Shell pair data done in (   0.004 sec)
 Computing two index integrals           ... done
 Cholesky decomposition of the V-matrix  ... done


Timings:
 Total evaluation time                   ...   0.422 sec (  0.007 min)
 One electron matrix time                ...   0.038 sec (  0.001 min) =  9.0%
 Schwartz matrix evaluation time         ...   0.277 sec (  0.005 min) = 65.6%
 Two index repulsion integral time       ...   0.042 sec (  0.001 min) =  9.9%
 Cholesky decomposition of V             ...   0.036 sec (  0.001 min) =  8.4%
 Three index repulsion integral time     ...   0.000 sec (  0.000 min) =  0.0%



           ************************************************************
           *        Program running with 8 parallel MPI-processes     *
           *              working on a common directory               *
           ************************************************************
-------------------------------------------------------------------------------
                                 ORCA SCF
-------------------------------------------------------------------------------

------------
SCF SETTINGS
------------
Hamiltonian:
 Ab initio Hamiltonian  Method          .... Hartree-Fock(GTOs)
 RI-approximation to the Coulomb term is turned on
   Number of auxiliary basis functions  .... 598
   RI-JK (J+K treated both via RI)      .... on


General Settings:
 Integral files         IntName         .... 2_propanethiol_g
 Hartree-Fock type      HFTyp           .... RHF
 Total Charge           Charge          ....    0
 Multiplicity           Mult            ....    1
 Number of Electrons    NEL             ....   42
 Basis Dimension        Dim             ....  236
 Nuclear Repulsion      ENuc            ....    169.0549172440 Eh

Convergence Acceleration:
 DIIS                   CNVDIIS         .... off
 Newton-Raphson         CNVNR           .... off
 SOSCF                  CNVSOSCF        .... on
   Start iteration      SOSCFMaxIt      ....   150
   Startup grad/error   SOSCFStart      ....  0.003300
 Level Shifting         CNVShift        .... on
   Level shift para.    LevelShift      ....    0.2000
   Turn off err/grad.   ShiftErr        ....    0.1000
 Zerner damping         CNVZerner       .... off
 Static damping         CNVDamp         .... off
 Fernandez-Rico         CNVRico         .... off

SCF Procedure:
 Maximum # iterations   MaxIter         ....   300
 SCF integral mode      SCFMode         .... Direct
   Integral package                     .... LIBINT
 Reset frequency        DirectResetFreq ....    20
 Integral Threshold     Thresh          ....  2.500e-11 Eh
 Primitive CutOff       TCut            ....  2.500e-12 Eh

Convergence Tolerance:
 Convergence Check Mode ConvCheckMode   .... Total+1el-Energy
 Convergence forced     ConvForced      .... 1
 Energy Change          TolE            ....  1.000e-08 Eh
 1-El. energy change                    ....  1.000e-05 Eh
 Orbital Gradient       TolG            ....  1.000e-05
 Orbital Rotation angle TolX            ....  1.000e-05


Diagonalization of the overlap matrix:
Smallest eigenvalue                        ... 8.836e-04
Time for diagonalization                   ...    0.012 sec
Threshold for overlap eigenvalues          ... 1.000e-08
Number of eigenvalues below threshold      ... 0
Time for construction of square roots      ...    0.049 sec
Total time needed                          ...    0.061 sec

-------------------
DFT GRID GENERATION
-------------------

General Integration Accuracy     IntAcc      ...  4.340
Radial Grid Type                 RadialGrid  ... Gauss-Chebyshev
Angular Grid (max. acc.)         AngularGrid ... Lebedev-110
Angular grid pruning method      GridPruning ... 3 (G Style)
Weight generation scheme         WeightScheme... Becke
Basis function cutoff            BFCut       ...    1.0000e-11
Integration weight cutoff        WCut        ...    1.0000e-14
Grids for H and He will be reduced by one unit

# of grid points (after initial pruning)     ...  13126 (   0.0 sec)
# of grid points (after weights+screening)   ...  12343 (   0.0 sec)
nearest neighbour list constructed           ...    0.0 sec
Grid point re-assignment to atoms done       ...    0.0 sec
Grid point division into batches done        ...    0.0 sec
Reduced shell lists constructed in    0.1 sec

Total number of grid points                  ...    12343
Total number of batches                      ...      198
Average number of points per batch           ...       62
Average number of grid points per atom       ...     1029
Average number of shells per batch           ...    84.19 (93.55%)
Average number of basis functions per batch  ...   221.12 (93.69%)
Average number of large shells per batch     ...    74.27 (88.21%)
Average number of large basis fcns per batch ...   194.73 (88.07%)
Average number of aux-shells per batch       ...    84.19 (43.85%)
Average number of aux functions per batch    ...   221.12 (36.98%)
Maximum spatial batch extension              ...   2.38,  2.21,  2.74 au
Average spatial batch extension              ...   0.19,  0.20,  0.20 au

Time for grid setup =    0.072 sec

------------------------------
INITIAL GUESS: MODEL POTENTIAL
------------------------------
Loading Hartree-Fock densities                     ... done
Calculating cut-offs                               ... done
Setting up the integral package                    ... done
Initializing the effective Hamiltonian             ... done
Starting the Coulomb interaction                   ... done (   0.0 sec)
Reading the grid                                   ... done
Mapping shells                                     ... done
Starting the XC term evaluation                    ... done (   0.0 sec)
Transforming the Hamiltonian                       ... done (   0.0 sec)
Diagonalizing the Hamiltonian                      ... done (   0.0 sec)
Back transforming the eigenvectors                 ... done (   0.0 sec)
Now organizing SCF variables                       ... done
                      ------------------
                      INITIAL GUESS DONE (   0.3 sec)
                      ------------------
--------------
SCF ITERATIONS
--------------
ITER       Energy         Delta-E        Max-DP      RMS-DP      [F,P]   Gradient Norm
                             ****Turning on KDIIS(Cayley)****
  0   -515.6225459280   0.000000000000 0.01743406  0.00030116  0.0998388   0.133714533
  1   -515.6876201872  -0.065074259214 0.03200977  0.00037941  0.0908787   0.116025912
  2   -515.7417826022  -0.054162414921 0.05263604  0.00064751  0.0730345   0.094151238
  3   -515.8088454393  -0.067062837152 0.07993133  0.00103899  0.0440456   0.057944894
                      *** Initiating the SOSCF procedure ***
                           *** Shutting down KDIIS ***
                      *** Re-Reading the Fockian *** 
                      *** Removing any level shift *** 
ITER      Energy       Delta-E        Grad      Rot      Max-DP    RMS-DP
  4   -515.85256871  -0.0437232729  0.002691  0.002691  0.002207  0.000067
  5   -515.85278295  -0.0002142353  0.000571  0.000653  0.000902  0.000030
  6   -515.85279612  -0.0000131699  0.000268  0.000249  0.000388  0.000013
  7   -515.85279968  -0.0000035607  0.000039  0.000070  0.000161  0.000004
  8   -515.85279977  -0.0000000957  0.000014  0.000026  0.000076  0.000002
  9   -515.85279979  -0.0000000112  0.000007  0.000006  0.000012  0.000000
                  ***Gradient check signals convergence***
              ***Rediagonalizing the Fockian in SOSCF/NRSCF***

               *****************************************************
               *                     SUCCESS                       *
               *           SCF CONVERGED AFTER  10 CYCLES          *
               *****************************************************


----------------
TOTAL SCF ENERGY
----------------

Total Energy       :         -515.85279979 Eh          -14037.06831 eV

Components:
Nuclear Repulsion  :          169.05491724 Eh            4600.21817 eV
Electronic Energy  :         -684.90771703 Eh          -18637.28648 eV
One Electron Energy:        -1044.03417430 Eh          -28409.61420 eV
Two Electron Energy:          359.12645727 Eh            9772.32772 eV

Virial components:
Potential Energy   :        -1031.44467417 Eh          -28067.03648 eV
Kinetic Energy     :          515.59187438 Eh           14029.96817 eV
Virial Ratio       :            2.00050607


---------------
SCF CONVERGENCE
---------------

  Last Energy change         ...   -2.2051e-09  Tolerance :   1.0000e-08
  Last MAX-Density change    ...    8.9837e-06  Tolerance :   1.0000e-07
  Last RMS-Density change    ...    1.7593e-07  Tolerance :   5.0000e-09
  Last Orbital Gradient      ...    1.1212e-06  Tolerance :   1.0000e-05
  Last Orbital Rotation      ...    2.5250e-06  Tolerance :   1.0000e-05

             **** THE GBW FILE WAS UPDATED (2_propanethiol_g.gbw) ****
             **** DENSITY FILE WAS UPDATED (2_propanethiol_g.scfp.tmp) ****
             **** ENERGY FILE WAS UPDATED (2_propanethiol_g.en.tmp) ****
----------------
ORBITAL ENERGIES
----------------

  NO   OCC          E(Eh)            E(eV) 
   0   2.0000     -91.943426     -2501.9078 
   1   2.0000     -11.271441      -306.7115 
   2   2.0000     -11.226807      -305.4969 
   3   2.0000     -11.226012      -305.4753 
   4   2.0000      -8.945383      -243.4162 
   5   2.0000      -6.626653      -180.3204 
   6   2.0000      -6.625601      -180.2918 
   7   2.0000      -6.624670      -180.2664 
   8   2.0000      -1.090576       -29.6761 
   9   2.0000      -0.941976       -25.6325 
  10   2.0000      -0.937441       -25.5091 
  11   2.0000      -0.780505       -21.2386 
  12   2.0000      -0.637259       -17.3407 
  13   2.0000      -0.604502       -16.4493 
  14   2.0000      -0.578240       -15.7347 
  15   2.0000      -0.547217       -14.8905 
  16   2.0000      -0.511315       -13.9136 
  17   2.0000      -0.499505       -13.5922 
  18   2.0000      -0.486078       -13.2269 
  19   2.0000      -0.433082       -11.7848 
  20   2.0000      -0.352953        -9.6043 
  21   0.0000       0.125392         3.4121 
  22   0.0000       0.169154         4.6029 
  23   0.0000       0.175513         4.7760 
  24   0.0000       0.180807         4.9200 
  25   0.0000       0.183372         4.9898 
  26   0.0000       0.212112         5.7719 
  27   0.0000       0.219235         5.9657 
  28   0.0000       0.240373         6.5409 
  29   0.0000       0.254720         6.9313 
  30   0.0000       0.287490         7.8230 
  31   0.0000       0.309374         8.4185 
  32   0.0000       0.364220         9.9109 
  33   0.0000       0.373739        10.1700 
  34   0.0000       0.394967        10.7476 
  35   0.0000       0.412939        11.2366 
  36   0.0000       0.430645        11.7184 
  37   0.0000       0.436893        11.8885 
  38   0.0000       0.448431        12.2024 
  39   0.0000       0.464770        12.6470 
  40   0.0000       0.475141        12.9292 
  41   0.0000       0.514063        13.9884 
  42   0.0000       0.553206        15.0535 
  43   0.0000       0.561282        15.2733 
  44   0.0000       0.581351        15.8194 
  45   0.0000       0.598685        16.2911 
  46   0.0000       0.614653        16.7256 
  47   0.0000       0.624565        16.9953 
  48   0.0000       0.639140        17.3919 
  49   0.0000       0.653394        17.7798 
  50   0.0000       0.658542        17.9198 
  51   0.0000       0.665477        18.1085 
  52   0.0000       0.673223        18.3193 
  53   0.0000       0.697929        18.9916 
  54   0.0000       0.699294        19.0288 
  55   0.0000       0.715124        19.4595 
  56   0.0000       0.811889        22.0926 
  57   0.0000       0.853204        23.2169 
  58   0.0000       0.867546        23.6071 
  59   0.0000       0.901790        24.5389 
  60   0.0000       0.927244        25.2316 
  61   0.0000       0.936662        25.4879 
  62   0.0000       0.967810        26.3355 
  63   0.0000       1.022978        27.8366 
  64   0.0000       1.038661        28.2634 
  65   0.0000       1.065098        28.9828 
  66   0.0000       1.073980        29.2245 
  67   0.0000       1.098364        29.8880 
  68   0.0000       1.109569        30.1929 
  69   0.0000       1.141599        31.0645 
  70   0.0000       1.170733        31.8573 
  71   0.0000       1.199746        32.6467 
  72   0.0000       1.213457        33.0198 
  73   0.0000       1.225747        33.3543 
  74   0.0000       1.238186        33.6928 
  75   0.0000       1.295151        35.2429 
  76   0.0000       1.305980        35.5375 
  77   0.0000       1.331700        36.2374 
  78   0.0000       1.340507        36.4770 
  79   0.0000       1.349561        36.7234 
  80   0.0000       1.392168        37.8828 
  81   0.0000       1.403689        38.1963 
  82   0.0000       1.405133        38.2356 
  83   0.0000       1.448741        39.4223 
  84   0.0000       1.456238        39.6262 
  85   0.0000       1.468665        39.9644 
  86   0.0000       1.490944        40.5706 
  87   0.0000       1.512823        41.1660 
  88   0.0000       1.545597        42.0578 
  89   0.0000       1.559852        42.4457 
  90   0.0000       1.572480        42.7894 
  91   0.0000       1.586885        43.1813 
  92   0.0000       1.637151        44.5491 
  93   0.0000       1.643732        44.7282 
  94   0.0000       1.671324        45.4790 
  95   0.0000       1.734026        47.1852 
  96   0.0000       1.739054        47.3221 
  97   0.0000       1.761807        47.9412 
  98   0.0000       1.808316        49.2068 
  99   0.0000       1.836736        49.9801 
 100   0.0000       1.889964        51.4285 
 101   0.0000       1.945008        52.9264 
 102   0.0000       1.986350        54.0513 
 103   0.0000       2.042307        55.5740 
 104   0.0000       2.079422        56.5839 
 105   0.0000       2.104726        57.2725 
 106   0.0000       2.137628        58.1678 
 107   0.0000       2.186503        59.4978 
 108   0.0000       2.190279        59.6005 
 109   0.0000       2.260018        61.4982 
 110   0.0000       2.279515        62.0288 
 111   0.0000       2.318634        63.0932 
 112   0.0000       2.400948        65.3331 
 113   0.0000       2.525531        68.7232 
 114   0.0000       2.580657        70.2233 
 115   0.0000       2.598566        70.7106 
 116   0.0000       2.627336        71.4934 
 117   0.0000       2.660648        72.3999 
 118   0.0000       2.681563        72.9690 
 119   0.0000       2.758367        75.0590 
 120   0.0000       2.801266        76.2263 
 121   0.0000       2.842049        77.3361 
 122   0.0000       2.851075        77.5817 
 123   0.0000       2.857562        77.7582 
 124   0.0000       2.879289        78.3494 
 125   0.0000       2.913501        79.2804 
 126   0.0000       2.938582        79.9629 
 127   0.0000       2.971163        80.8495 
 128   0.0000       3.015168        82.0469 
 129   0.0000       3.047873        82.9368 
 130   0.0000       3.055120        83.1340 
 131   0.0000       3.105102        84.4941 
 132   0.0000       3.121122        84.9300 
 133   0.0000       3.146496        85.6205 
 134   0.0000       3.176864        86.4469 
 135   0.0000       3.197407        87.0059 
 136   0.0000       3.236319        88.0647 
 137   0.0000       3.244805        88.2956 
 138   0.0000       3.256434        88.6121 
 139   0.0000       3.281020        89.2811 
 140   0.0000       3.360466        91.4429 
 141   0.0000       3.367941        91.6463 
 142   0.0000       3.374224        91.8173 
 143   0.0000       3.396381        92.4202 
 144   0.0000       3.408018        92.7369 
 145   0.0000       3.442992        93.6886 
 146   0.0000       3.456692        94.0614 
 147   0.0000       3.488268        94.9206 
 148   0.0000       3.493806        95.0713 
 149   0.0000       3.561518        96.9138 
 150   0.0000       3.576493        97.3213 
 151   0.0000       3.609681        98.2244 
 152   0.0000       3.622268        98.5669 
 153   0.0000       3.631041        98.8056 
 154   0.0000       3.659196        99.5718 
 155   0.0000       3.662190        99.6533 
 156   0.0000       3.676208       100.0347 
 157   0.0000       3.708537       100.9144 
 158   0.0000       3.745435       101.9185 
 159   0.0000       3.763086       102.3988 
 160   0.0000       3.770159       102.5912 
 161   0.0000       3.805962       103.5655 
 162   0.0000       3.813311       103.7655 
 163   0.0000       3.859896       105.0331 
 164   0.0000       3.895121       105.9916 
 165   0.0000       3.918274       106.6217 
 166   0.0000       3.927313       106.8676 
 167   0.0000       3.947111       107.4063 
 168   0.0000       3.991615       108.6174 
 169   0.0000       4.030159       109.6662 
 170   0.0000       4.043982       110.0423 
 171   0.0000       4.083976       111.1306 
 172   0.0000       4.106448       111.7421 
 173   0.0000       4.128086       112.3309 
 174   0.0000       4.142485       112.7227 
 175   0.0000       4.156329       113.0995 
 176   0.0000       4.161397       113.2374 
 177   0.0000       4.227022       115.0231 
 178   0.0000       4.243643       115.4754 
 179   0.0000       4.258361       115.8759 
 180   0.0000       4.267477       116.1239 
 181   0.0000       4.295603       116.8893 
 182   0.0000       4.323195       117.6401 
 183   0.0000       4.341462       118.1372 
 184   0.0000       4.355454       118.5179 
 185   0.0000       4.378274       119.1389 
 186   0.0000       4.400349       119.7396 
 187   0.0000       4.416734       120.1854 
 188   0.0000       4.428201       120.4975 
 189   0.0000       4.438375       120.7743 
 190   0.0000       4.458748       121.3287 
 191   0.0000       4.489128       122.1554 
 192   0.0000       4.492613       122.2502 
 193   0.0000       4.505681       122.6058 
 194   0.0000       4.542959       123.6202 
 195   0.0000       4.618121       125.6655 
 196   0.0000       4.643405       126.3535 
 197   0.0000       4.693577       127.7187 
 198   0.0000       4.704003       128.0024 
 199   0.0000       4.720857       128.4611 
 200   0.0000       4.763806       129.6297 
 201   0.0000       4.818072       131.1064 
 202   0.0000       4.872017       132.5743 
 203   0.0000       4.916151       133.7753 
 204   0.0000       4.953265       134.7852 
 205   0.0000       5.102730       138.8523 
 206   0.0000       5.127009       139.5130 
 207   0.0000       5.150745       140.1589 
 208   0.0000       5.160843       140.4337 
 209   0.0000       5.185404       141.1020 
 210   0.0000       5.215093       141.9099 
 211   0.0000       5.293035       144.0308 
 212   0.0000       5.299998       144.2203 
 213   0.0000       5.445734       148.1860 
 214   0.0000       5.464613       148.6997 
 215   0.0000       5.485286       149.2622 
 216   0.0000       5.522174       150.2660 
 217   0.0000       5.535165       150.6195 
 218   0.0000       5.593016       152.1937 
 219   0.0000       5.643710       153.5731 
 220   0.0000       5.678374       154.5164 
 221   0.0000       5.692447       154.8993 
 222   0.0000       5.699310       155.0861 
 223   0.0000       5.712065       155.4332 
 224   0.0000       5.773560       157.1066 
 225   0.0000       5.780663       157.2998 
 226   0.0000       5.872715       159.8047 
 227   0.0000       6.022634       163.8842 
 228   0.0000       6.110650       166.2792 
 229   0.0000       6.269271       170.5955 
 230   0.0000       6.272350       170.6793 
 231   0.0000       6.281125       170.9181 
 232   0.0000       6.310184       171.7088 
 233   0.0000      11.460880       311.8664 
 234   0.0000      14.052443       382.3864 
 235   0.0000      14.112512       384.0210 

                    ********************************
                    * MULLIKEN POPULATION ANALYSIS *
                    ********************************

-----------------------
MULLIKEN ATOMIC CHARGES
-----------------------
   0 C :   -0.270632
   1 C :   -0.059421
   2 C :   -0.288241
   3 S :   -0.199712
   4 H :    0.085544
   5 H :    0.094434
   6 H :    0.099694
   7 H :    0.123085
   8 H :    0.113247
   9 H :    0.102378
  10 H :    0.096909
  11 H :    0.102715
Sum of atomic charges:   -0.0000000

--------------------------------
MULLIKEN REDUCED ORBITAL CHARGES
--------------------------------
  0 C s       :     3.255119  s :     3.255119
      pz      :     1.007838  p :     2.922267
      px      :     0.978908
      py      :     0.935521
      dz2     :     0.027625  d :     0.088273
      dxz     :     0.007129
      dyz     :     0.012235
      dx2y2   :     0.024893
      dxy     :     0.016390
      f0      :     0.001449  f :     0.004974
      f+1     :     0.000183
      f-1     :     0.000495
      f+2     :     0.000298
      f-2     :     0.000519
      f+3     :     0.001390
      f-3     :     0.000639
  1 C s       :     3.182830  s :     3.182830
      pz      :     1.003979  p :     2.719876
      px      :     0.803781
      py      :     0.912116
      dz2     :     0.045544  d :     0.149210
      dxz     :     0.020157
      dyz     :     0.020483
      dx2y2   :     0.037569
      dxy     :     0.025457
      f0      :     0.001385  f :     0.007505
      f+1     :     0.000642
      f-1     :     0.000878
      f+2     :     0.000994
      f-2     :     0.000743
      f+3     :     0.001464
      f-3     :     0.001399
  2 C s       :     3.265307  s :     3.265307
      pz      :     1.009510  p :     2.932116
      px      :     0.984243
      py      :     0.938362
      dz2     :     0.025912  d :     0.085887
      dxz     :     0.006423
      dyz     :     0.013536
      dx2y2   :     0.023851
      dxy     :     0.016165
      f0      :     0.001425  f :     0.004931
      f+1     :     0.000187
      f-1     :     0.000495
      f+2     :     0.000284
      f-2     :     0.000507
      f+3     :     0.001378
      f-3     :     0.000655
  3 S s       :     5.811918  s :     5.811918
      pz      :     3.806278  p :    10.262216
      px      :     3.110937
      py      :     3.345001
      dz2     :     0.012498  d :     0.114967
      dxz     :     0.016769
      dyz     :     0.016792
      dx2y2   :     0.048656
      dxy     :     0.020251
      f0      :     0.001439  f :     0.010611
      f+1     :     0.001462
      f-1     :     0.000326
      f+2     :     0.002452
      f-2     :     0.000783
      f+3     :     0.002342
      f-3     :     0.001807
  4 H s       :     0.868062  s :     0.868062
      pz      :     0.016320  p :     0.044324
      px      :     0.009184
      py      :     0.018821
      dz2     :     0.000382  d :     0.002070
      dxz     :     0.000124
      dyz     :     0.000543
      dx2y2   :     0.000470
      dxy     :     0.000550
  5 H s       :     0.876348  s :     0.876348
      pz      :     0.007458  p :     0.027044
      px      :     0.011499
      py      :     0.008088
      dz2     :     0.000336  d :     0.002174
      dxz     :     0.000546
      dyz     :     0.000028
      dx2y2   :     0.000507
      dxy     :     0.000757
  6 H s       :     0.870858  s :     0.870858
      pz      :     0.007728  p :     0.027281
      px      :     0.007286
      py      :     0.012266
      dz2     :     0.000370  d :     0.002166
      dxz     :     0.000144
      dyz     :     0.000443
      dx2y2   :     0.000740
      dxy     :     0.000469
  7 H s       :     0.841381  s :     0.841381
      pz      :     0.014572  p :     0.032786
      px      :     0.008336
      py      :     0.009878
      dz2     :     0.000743  d :     0.002748
      dxz     :     0.000820
      dyz     :     0.001108
      dx2y2   :     0.000046
      dxy     :     0.000031
  8 H s       :     0.857115  s :     0.857115
      pz      :     0.007452  p :     0.027467
      px      :     0.007318
      py      :     0.012697
      dz2     :     0.000394  d :     0.002171
      dxz     :     0.000156
      dyz     :     0.000422
      dx2y2   :     0.000730
      dxy     :     0.000469
  9 H s       :     0.868933  s :     0.868933
      pz      :     0.011163  p :     0.026528
      px      :     0.007271
      py      :     0.008094
      dz2     :     0.000737  d :     0.002161
      dxz     :     0.000598
      dyz     :     0.000792
      dx2y2   :     0.000021
      dxy     :     0.000014
 10 H s       :     0.874260  s :     0.874260
      pz      :     0.007531  p :     0.026638
      px      :     0.011041
      py      :     0.008065
      dz2     :     0.000335  d :     0.002193
      dxz     :     0.000542
      dyz     :     0.000029
      dx2y2   :     0.000519
      dxy     :     0.000769
 11 H s       :     0.868848  s :     0.868848
      pz      :     0.010995  p :     0.026247
      px      :     0.007275
      py      :     0.007978
      dz2     :     0.000750  d :     0.002190
      dxz     :     0.000623
      dyz     :     0.000793
      dx2y2   :     0.000016
      dxy     :     0.000008


                     *******************************
                     * LOEWDIN POPULATION ANALYSIS *
                     *******************************

----------------------
LOEWDIN ATOMIC CHARGES
----------------------
   0 C :    0.090098
   1 C :   -0.161842
   2 C :    0.090150
   3 S :    0.334200
   4 H :   -0.155317
   5 H :   -0.026117
   6 H :   -0.029247
   7 H :   -0.039796
   8 H :   -0.025561
   9 H :   -0.025813
  10 H :   -0.025344
  11 H :   -0.025411

-------------------------------
LOEWDIN REDUCED ORBITAL CHARGES
-------------------------------
  0 C s       :     2.666489  s :     2.666489
      pz      :     0.979030  p :     2.892187
      px      :     0.972684
      py      :     0.940474
      dz2     :     0.095715  d :     0.321795
      dxz     :     0.026935
      dyz     :     0.046732
      dx2y2   :     0.090009
      dxy     :     0.062406
      f0      :     0.005220  f :     0.029430
      f+1     :     0.001903
      f-1     :     0.003446
      f+2     :     0.004339
      f-2     :     0.005134
      f+3     :     0.005856
      f-3     :     0.003532
  1 C s       :     2.711361  s :     2.711361
      pz      :     1.001146  p :     2.863817
      px      :     0.895510
      py      :     0.967161
      dz2     :     0.136769  d :     0.539551
      dxz     :     0.076300
      dyz     :     0.072885
      dx2y2   :     0.146802
      dxy     :     0.106795
      f0      :     0.005788  f :     0.047113
      f+1     :     0.004581
      f-1     :     0.006307
      f+2     :     0.007255
      f-2     :     0.005896
      f+3     :     0.006587
      f-3     :     0.010697
  2 C s       :     2.664562  s :     2.664562
      pz      :     0.979420  p :     2.895396
      px      :     0.976305
      py      :     0.939671
      dz2     :     0.094018  d :     0.320437
      dxz     :     0.025498
      dyz     :     0.049868
      dx2y2   :     0.088901
      dxy     :     0.062153
      f0      :     0.005230  f :     0.029455
      f+1     :     0.001929
      f-1     :     0.003340
      f+2     :     0.004333
      f-2     :     0.005083
      f+3     :     0.005880
      f-3     :     0.003658
  3 S s       :     5.386864  s :     5.386864
      pz      :     3.699478  p :    10.066786
      px      :     3.064260
      py      :     3.303048
      dz2     :     0.024291  d :     0.186774
      dxz     :     0.031526
      dyz     :     0.020390
      dx2y2   :     0.066882
      dxy     :     0.043685
      f0      :     0.002369  f :     0.025377
      f+1     :     0.003512
      f-1     :     0.000484
      f+2     :     0.005630
      f-2     :     0.001740
      f+3     :     0.005918
      f-3     :     0.005725
  4 H s       :     0.924882  s :     0.924882
      pz      :     0.071761  p :     0.206132
      px      :     0.034841
      py      :     0.099530
      dz2     :     0.003923  d :     0.024304
      dxz     :     0.001481
      dyz     :     0.007318
      dx2y2   :     0.006930
      dxy     :     0.004651
  5 H s       :     0.847626  s :     0.847626
      pz      :     0.041911  p :     0.150991
      px      :     0.071221
      py      :     0.037859
      dz2     :     0.003922  d :     0.027500
      dxz     :     0.008033
      dyz     :     0.000428
      dx2y2   :     0.006366
      dxy     :     0.008750
  6 H s       :     0.850364  s :     0.850364
      pz      :     0.043309  p :     0.151194
      px      :     0.044906
      py      :     0.062979
      dz2     :     0.004466  d :     0.027689
      dxz     :     0.002114
      dyz     :     0.006413
      dx2y2   :     0.007998
      dxy     :     0.006699
  7 H s       :     0.847570  s :     0.847570
      pz      :     0.082752  p :     0.163135
      px      :     0.039893
      py      :     0.040490
      dz2     :     0.010602  d :     0.029091
      dxz     :     0.008418
      dyz     :     0.009801
      dx2y2   :     0.000199
      dxy     :     0.000072
  8 H s       :     0.846396  s :     0.846396
      pz      :     0.044152  p :     0.151445
      px      :     0.045188
      py      :     0.062105
      dz2     :     0.004838  d :     0.027720
      dxz     :     0.002264
      dyz     :     0.006300
      dx2y2   :     0.007762
      dxy     :     0.006558
  9 H s       :     0.847224  s :     0.847224
      pz      :     0.074038  p :     0.150843
      px      :     0.039278
      py      :     0.037526
      dz2     :     0.009173  d :     0.027747
      dxz     :     0.009160
      dyz     :     0.009188
      dx2y2   :     0.000161
      dxy     :     0.000064
 10 H s       :     0.846002  s :     0.846002
      pz      :     0.042323  p :     0.151607
      px      :     0.071150
      py      :     0.038134
      dz2     :     0.003913  d :     0.027735
      dxz     :     0.008165
      dyz     :     0.000403
      dx2y2   :     0.006432
      dxy     :     0.008822
 11 H s       :     0.847296  s :     0.847296
      pz      :     0.074526  p :     0.150284
      px      :     0.038441
      py      :     0.037317
      dz2     :     0.009317  d :     0.027832
      dxz     :     0.009130
      dyz     :     0.009192
      dx2y2   :     0.000159
      dxy     :     0.000034


                      *****************************
                      * MAYER POPULATION ANALYSIS *
                      *****************************

  NA   - Mulliken gross atomic population
  ZA   - Total nuclear charge
  QA   - Mulliken gross atomic charge
  VA   - Mayer's total valence
  BVA  - Mayer's bonded valence
  FA   - Mayer's free valence

  ATOM       NA         ZA         QA         VA         BVA        FA
  0 C      6.2706     6.0000    -0.2706     3.8646     3.8646    -0.0000
  1 C      6.0594     6.0000    -0.0594     3.8599     3.8599    -0.0000
  2 C      6.2882     6.0000    -0.2882     3.8750     3.8750    -0.0000
  3 S     16.1997    16.0000    -0.1997     2.0148     2.0148     0.0000
  4 H      0.9145     1.0000     0.0855     1.0189     1.0189     0.0000
  5 H      0.9056     1.0000     0.0944     0.9818     0.9818     0.0000
  6 H      0.9003     1.0000     0.0997     0.9845     0.9845    -0.0000
  7 H      0.8769     1.0000     0.1231     0.9773     0.9773    -0.0000
  8 H      0.8868     1.0000     0.1132     0.9818     0.9818    -0.0000
  9 H      0.8976     1.0000     0.1024     0.9818     0.9818    -0.0000
 10 H      0.9031     1.0000     0.0969     0.9797     0.9797    -0.0000
 11 H      0.8973     1.0000     0.1027     0.9843     0.9843    -0.0000

  Mayer bond orders larger than 0.1
B(  0-C ,  1-C ) :   0.9459 B(  0-C ,  5-H ) :   0.9760 B(  0-C ,  6-H ) :   0.9837 
B(  0-C , 11-H ) :   0.9751 B(  1-C ,  2-C ) :   0.9508 B(  1-C ,  3-S ) :   0.9872 
B(  1-C ,  7-H ) :   0.9764 B(  2-C ,  8-H ) :   0.9824 B(  2-C ,  9-H ) :   0.9764 
B(  2-C , 10-H ) :   0.9776 B(  3-S ,  4-H ) :   1.0122 

-------
TIMINGS
-------

Total SCF time: 0 days 0 hours 0 min 5 sec 

Total time                  ....       5.815 sec
Sum of individual times     ....       5.576 sec  ( 95.9%)

Fock matrix formation       ....       5.232 sec  ( 90.0%)
Diagonalization             ....       0.036 sec  (  0.6%)
Density matrix formation    ....       0.006 sec  (  0.1%)
Population analysis         ....       0.012 sec  (  0.2%)
Initial guess               ....       0.182 sec  (  3.1%)
Orbital Transformation      ....       0.000 sec  (  0.0%)
Orbital Orthonormalization  ....       0.000 sec  (  0.0%)
DIIS solution               ....       0.000 sec  (  0.0%)
SOSCF solution              ....       0.036 sec  (  0.6%)


           ************************************************************
           *        Program running with 8 parallel MPI-processes     *
           *              working on a common directory               *
           ************************************************************


------------------------------------------------------------------------------- 
                              ORCA-MATRIX DRIVEN CI                            
------------------------------------------------------------------------------- 


Wavefunction type
-----------------
Correlation treatment                      ...      CCSD     
Single excitations                         ... ON
Orbital optimization                       ... OFF
Calculation of Z vector                    ... OFF
Calculation of Brueckner orbitals          ... OFF
Perturbative triple excitations            ... ON
Calculation of F12 correction              ... OFF
Frozen core treatment                      ... chemical core (16 el)
Reference Wavefunction                     ... RHF
  Internal Orbitals:     8 ...   20 ( 13 MO's/ 26 electrons)
  Virtual  Orbitals:    21 ...  235 (215 MO's              )
Number of AO's                             ...    236
Number of electrons                        ...     42
Number of correlated electrons             ...     26

Algorithmic settings
--------------------
Integral transformation                    ... All integrals via the RI transformation
K(C) Formation                             ... RI-DLPNO
   PNO-Integral Storage                    ... ON DISK
   PNO occupation number cut-off           ... 1.000e-07
   Singles PNO occupation number cut-off   ... 3.000e-09
   PNO Mulliken prescreening cut-off       ... 1.000e-03
   Domain cut-off (Mulliken population)    ... 1.000e-03
   PNO Normalization                       ...    1
Maximum number of iterations               ...        50
Convergence tolerance (max. residuum)      ... 1.000e-05
Level shift for amplitude update           ... 2.000e-01
Maximum number of DIIS vectors             ...         7
DIIS turned on at iteration                ...         0
Damping before turning on DIIS             ...     0.500
Damping after turning on DIIS              ...     0.000
Pair specific amplitude update             ... OFF
Natural orbital iterations                 ... OFF
Perturbative natural orbital generation    ... OFF
Printlevel                                 ... 2

Singles Fock matrix elements calculated using PNOs.

Memory handling:
----------------
Maximum memory for working arrays          ...   8000 MB
Data storage in matrix containers          ... UNCOMPRESSED
Data type for integral storage             ... DOUBLE
In-Core Storage of quantities:
   Amplitudes+Sigma Vector      ... NO
   J+K operators                ... NO
   DIIS vectors                 ... NO
   3-external integrals         ... NO
   4-external integrals         ... NO

Localization treatment:
-----------------------
Localization option                        ...    6
Localization threshhold                    ... -1.0e+00
Using relative localization threshhold     ... 1.0e-08
Neglect threshold for strong pairs         ... 1.000e-05 Eh
Prescreening threshold for very weak pairs ... 1.000e-07 Eh

Initializing the integral package          ... done
Localizing the valence orbitals
------------------------------------------------------------------------------
                           ORCA ORBITAL LOCALIZATION
------------------------------------------------------------------------------

Input orbitals are from                  ... 2_propanethiol_g.proc0.gbw
Output orbitals are to                   ... 2_propanethiol_g.proc0.loc
Max. number of iterations                ... 128
Localizations seeded randomly            ... off
Convergence tolerance                    ... 1.000e-06
Using relative localization threshhold   ... 1.000e-08
Treshold for strong local MOs            ... 9.500e-01
Treshold for bond MOs                    ... 8.500e-01
Operator                                 ... 0
Orbital range for localization           ... 8 to 20
Localization criterion                   ... FOSTER-BOYS (AUGMENTED HESSIAN)
Doing the dipole integrals     ... o.k.
Initial value of the localization sum :    92.693061
ITERATION   0 : L=  128.3860794226 DL=  3.57e+01 (AVERGE_DL)=    0.6764634544 
ITERATION   1 : L=  132.7763651833 DL=  4.39e+00 (AVERGE_DL)=    0.2372461061 
ITERATION   2 : L=  132.8038822071 DL=  2.75e-02 (AVERGE_DL)=    0.0187825013 
ITERATION   3 : L=  132.8045964165 DL=  7.14e-04 (AVERGE_DL)=    0.0030259759 
ITERATION   4 : L=  132.8046098550 DL=  1.34e-05 (AVERGE_DL)=    0.0004150769 
ITERATION   5 : L=  132.8046100871 DL=  2.32e-07 (AVERGE_DL)=    0.0000545433 
LOCALIZATION SUM CONVERGED

------------------------------------------------------
AUGMENTED HESSIAN OPTIMIZATION OF FOSTER-BOYS ORBITALS
------------------------------------------------------

Spin operator:           0
Orbital window:          8 to 20
Number of iterations:    128
Gradient tolerance:      1.000e-06
Number of pairs:         78
Davidson threshold:      2000
Diagonalization method:  LAPACK
Iter:    0   L: 132.8046100871   Grad. norm: 6.578575e-04
   *** Likely close to a maximum now. ***
       Augmented Hessian eigenvalues:  1.16e-08 -7.21e+00 -1.43e+01 -1.70e+01 ... 
Iter:    1   L: 132.8046100929   Grad. norm: 3.444374e-09
LOCALIZATION HAS CONVERGED.

Eigenvalues of the Hessian:
  0 -7.213e+00
  1 -1.426e+01
  2 -1.697e+01
  3 -1.710e+01
  4 -1.757e+01
  5 -1.800e+01
  6 -1.816e+01
  7 -1.822e+01
  8 -1.832e+01
  9 -1.871e+01
    ...


------------------------------------------------------------------------------- 
                    LOCALIZED MOLECULAR ORBITAL COMPOSITIONS                   
------------------------------------------------------------------------------- 

The Mulliken populations for each LMO on each atom are computed
The LMO`s will be ordered according to atom index and type
  (A) Strongly localized MO`s have populations of >=0.950 on one atom
  (B) Two center bond orbitals have populations of >=0.850 on two atoms
  (C) Other MO`s are considered to be `delocalized`

FOUND  -   2 strongly local MO`s
       -  11 two center bond MO`s
       -   0 significantly delocalized MO`s

Rather strongly localized orbitals:
MO   9:   3S  -   1.000906
MO   8:   3S  -   1.002764
Bond-like localized orbitals:
MO  20:  11H  -   0.465695  and   0C  -   0.556687
MO  19:  10H  -   0.471686  and   2C  -   0.552770
MO  18:   9H  -   0.466649  and   2C  -   0.557766
MO  17:   8H  -   0.459757  and   2C  -   0.567978
MO  16:   7H  -   0.454068  and   1C  -   0.572085
MO  15:   6H  -   0.467605  and   0C  -   0.558825
MO  14:   5H  -   0.471550  and   0C  -   0.552456
MO  13:   4H  -   0.459590  and   3S  -   0.549283
MO  12:   3S  -   0.568370  and   1C  -   0.456680
MO  11:   2C  -   0.492884  and   1C  -   0.533425
MO  10:   1C  -   0.531110  and   0C  -   0.499623
Localized MO's were stored in: 2_propanethiol_g.proc0.loc

Localizing the core orbitals
------------------------------------------------------------------------------
                           ORCA ORBITAL LOCALIZATION
------------------------------------------------------------------------------

Input orbitals are from                  ... 2_propanethiol_g.proc0.loc
Output orbitals are to                   ... 2_propanethiol_g.proc0.loc
Max. number of iterations                ... 128
Localizations seeded randomly            ... off
Convergence tolerance                    ... 1.000e-06
Using relative localization threshhold   ... 1.000e-08
Treshold for strong local MOs            ... 9.500e-01
Treshold for bond MOs                    ... 8.500e-01
Operator                                 ... 0
Orbital range for localization           ... 0 to 7
Localization criterion                   ... FOSTER-BOYS (AUGMENTED HESSIAN)
Doing the dipole integrals     ... o.k.
Initial value of the localization sum :    55.325797
ITERATION   0 : L=   55.4783047114 DL=  1.53e-01 (AVERGE_DL)=    0.0738018298 
ITERATION   1 : L=   55.5310682735 DL=  5.28e-02 (AVERGE_DL)=    0.0434098253 
ITERATION   2 : L=   55.5324623422 DL=  1.39e-03 (AVERGE_DL)=    0.0070560731 
ITERATION   3 : L=   55.5325109897 DL=  4.86e-05 (AVERGE_DL)=    0.0013181089 
ITERATION   4 : L=   55.5325139312 DL=  2.94e-06 (AVERGE_DL)=    0.0003241190 
ITERATION   5 : L=   55.5325141271 DL=  1.96e-07 (AVERGE_DL)=    0.0000836471 
LOCALIZATION SUM CONVERGED

------------------------------------------------------
AUGMENTED HESSIAN OPTIMIZATION OF FOSTER-BOYS ORBITALS
------------------------------------------------------

Spin operator:           0
Orbital window:          0 to 7
Number of iterations:    128
Gradient tolerance:      1.000e-06
Number of pairs:         28
Davidson threshold:      2000
Diagonalization method:  LAPACK
Iter:    0   L: 55.5325141271   Grad. norm: 2.170155e-04
   *** Detected a saddle point. ***
       Augmented Hessian eigenvalues:  4.99e-05  2.67e-05 -5.56e-05 -1.15e-04 ... 
Iter:    1   L: 55.5325190842   Grad. norm: 2.093384e-04
Iter:    2   L: 55.5325252775   Grad. norm: 1.844832e-04
Iter:    3   L: 55.5325315632   Grad. norm: 1.333160e-04
Iter:    4   L: 55.5325357374   Grad. norm: 7.030179e-05
Iter:    5   L: 55.5325368312   Grad. norm: 1.975205e-05
   *** Likely close to a maximum now. ***
       Augmented Hessian eigenvalues:  1.75e-09 -4.23e-05 -1.60e-04 -1.65e-04 ... 
Iter:    6   L: 55.5325368321   Grad. norm: 5.563181e-09
LOCALIZATION HAS CONVERGED.

Eigenvalues of the Hessian:
  0 -4.227e-05
  1 -1.601e-04
  2 -1.649e-04
  3 -1.373e-01
  4 -1.379e-01
  5 -1.384e-01
  6 -4.134e-01
  7 -5.497e-01
  8 -5.514e-01
  9 -5.529e-01
    ...


------------------------------------------------------------------------------- 
                    LOCALIZED MOLECULAR ORBITAL COMPOSITIONS                   
------------------------------------------------------------------------------- 

The Mulliken populations for each LMO on each atom are computed
The LMO`s will be ordered according to atom index and type
  (A) Strongly localized MO`s have populations of >=0.950 on one atom
  (B) Two center bond orbitals have populations of >=0.850 on two atoms
  (C) Other MO`s are considered to be `delocalized`

FOUND  -   8 strongly local MO`s
       -   0 two center bond MO`s
       -   0 significantly delocalized MO`s

Rather strongly localized orbitals:
MO   7:   3S  -   1.000132
MO   6:   3S  -   0.999098
MO   5:   3S  -   0.999775
MO   4:   3S  -   0.999999
MO   3:   3S  -   1.000121
MO   2:   2C  -   1.001160
MO   1:   1C  -   1.001093
MO   0:   0C  -   1.001121
Localized MO's were stored in: 2_propanethiol_g.proc0.loc

Warning: internal orbitals are localized - no re-canonicalization of internal orbitals

--------------------------
CLOSED-SHELL FOCK OPERATOR
--------------------------

RI-JK section for the Fock operator:
  RHF full Fock operator         ... done
  RHF frozen core Fock operator  ... done
Time needed for Fock operator              ...            1.023 sec
Reference energy                           ...   -515.852799787

--------------
DLPNO SETTINGS (2015 fully linear scaling implementation)
--------------

TCutMKN:           1.000e-03
TCutPAO:           1.000e-03
TCutPNO:           1.000e-07
TCutPNOSingles:    3.000e-09
TCutEN:            9.700e-01
TCutPAOExt:        1.000e-01
TCutPairs:         1.000e-05
TCutPre:           1.000e-07
TCutOSV:           1.000e-06
TCutDOij:          1.000e-05
TCutDO:            5.000e-03
TCutC:             1.000e-04
TCutCPAO:          1.000e-03
TCutCMO:           1.000e-03
TScaleDOMP2PreScr: 2.000e+00
TScaleMKNMP2PreScr:1.000e+01
TScalePNOMP2PreScr:1.000e+00
PAO overlap thresh 1.000e-08
Using PNOs for Singles Fock computation
Use new domains
Use fully linear algorithm
TCutTNO:           1.000e-09
TCutMP2Pairs:      1.000e-06
TCutDOStrong:      2.000e-03
TCutMKNStrong:     1.000e-02
TCutMKNWeak:       1.000e-01
TCutDOWeak:        4.000e-03
NTCutTNO:          1

--------------------------
Calculating differential overlap integrals ... ok
--------------------------
ELECTRON PAIR PRESCREENING
--------------------------

Dipole-based pair screening          .... used

   TCutDOij = 1.000000e-05
   TCutPre  = 1.000000e-07
   .... Finished loop over pairs
Total time spent in the prescreening                  ...     0.000 sec
sum of pair energies estimated for screened out pairs ...       0.000000000000 Eh
Thresholds for map construction and integral transformation for crude MP2:
   TCutMKN                    ...     1.0e-02
   TCutDO                     ...     1.0e-02
   TCutPairs                  ...     1.0e-05
   TCutPNO_CrudeMP2           ...     1.0e-07
   TCutPNOSingles_CrudeMP2    ...     3.0e-09
--------------------------------
LOCAL RI TRANSFORMATION (IAVPAO)
--------------------------------

Orbital window:       8 to 20
Number of PAOs:     236
Basis functions:    236 (90 shells)
Aux. functions:     605 (181 shells)

Processing maps (0.0 sec)
Average map sizes:
   Aux shells -> MOs              13.0
   Aux shells -> PAOs            236.0
   MOs        -> AO shells        89.1
   PAOs       -> AO shells        90.0

Calculating integrals (0.5 sec, 14.168 MB)
Sorting integrals (0.0 sec, 14.161 MB)
Total time for the integral transformation: 0.6 sec
--------------------------------
INITIAL GUESS AND PNO GENERATION
--------------------------------

PNO truncation parameters                   .... 
    PAOOverlapThresh   =        1.000e-08

    TCutPairs          =        1.000e-05
    TCutPNO            =        1.000e-07
    TCutPNOSingles     =        3.000e-09
    TCutMP2Pairs       =        1.000e-06
    TCutMKN            =        1.000e-02
    TCutDO             =        1.000e-02

Pair selection                          .... not used
Type of local MP2 treatment                 .... semi-local MP2
Strategy for PNO selection                  .... occupation number selection
Pair density normalization                  .... MP2 norm
Spin component scaling                      .... not used

   .... Finished loop over pairs
Making pair pair interaction lists          ... done

                       ===========================
                         91 OF   91 PAIRS ARE KEPT CCSD PAIRS
                          0 OF   91 PAIRS ARE KEPT MP2 PAIRS FOR (T)
                          0 OF   91 PAIRS ARE SKIPPED
                       ===========================

Total time spent in the initial guess                 ...     0.447 sec
SL-MP2 correlation energy (all non-screened pairs)    ...      -0.695464759855 Eh

Initial PNO correlation energy                        ...      -0.694948844669 Eh
sum of pair energies prescreened and skipped MP2 pairs...       0.000000000000 Eh
sum of pair energies of crude MP2 skipped pairs only  ...       0.000000000000 Eh
sum of MP2 pair energies for pairs that were not kept ...       0.000000000000 Eh
sum of PNO error estimates for the kept pairs         ...      -0.000515915186 Eh
                                                          --------------------
sum of all corrections                                         -0.000515915186
Initial total correlation energy                               -0.695464759855
Thresholds for map construction and integral transformation for fine MP2 and CCSD(T) calculation:
   TCutMKN   ...     1.0e-03
   TCutDO    ...     5.0e-03
   TCutPairs ...     1.0e-05
   TCutCMO   ...     1.0e-03
   TCutCPAO  ...     1.0e-03

Thresholds for map construction and integral transformation for strong Triples:
   TCutMKN   ...     1.0e-02
   TCutDO    ...     1.0e-02
   TCutCMO   ...     1.0e-03
   TCutCPAO  ...     1.0e-03

Thresholds for map construction and integral transformation for weak Triples:
   TCutMKN   ...     1.0e-01
   TCutDO    ...     2.0e-02
   TCutCMO   ...     1.0e-03
   TCutCPAO  ...     1.0e-03

--------------------------------
LOCAL RI TRANSFORMATION (IAVPAO)
--------------------------------

Orbital window:       8 to 20
Number of PAOs:     236
Basis functions:    236 (90 shells)
Aux. functions:     605 (181 shells)

Processing maps (0.0 sec)
Average map sizes:
   Aux shells -> MOs              13.0
   Aux shells -> PAOs            236.0
   MOs        -> AO shells        89.1
   PAOs       -> AO shells        90.0

Calculating integrals (0.5 sec, 14.168 MB)
Sorting integrals (0.0 sec, 14.161 MB)
Total time for the integral transformation: 0.5 sec
--------------------------------
INITIAL GUESS AND PNO GENERATION
--------------------------------

PNO truncation parameters                   .... 
    ScaleTCutPNO       =        1.000e-02
    PAOOverlapThresh   =        1.000e-08

    TCutPairs          =        1.000e-05
    TCutPNO            =        1.000e-07
    TCutPNOSingles     =        3.000e-09
    TCutMP2Pairs       =        1.000e-06
    TCutMKN            =        1.000e-03
    TCutDO             =        5.000e-03

Pair selection                          .... not used
Type of local MP2 treatment                 .... full local PMP2
Strategy for PNO selection                  .... occupation number selection
Pair density normalization                  .... MP2 norm
Spin component scaling                      .... not used

PASS-1: Formation of initial guess LMP2 amplitudes
Initial amplitudes guess done. Entering LMP2 iteration loop:
   Max. no of iterations          ...  50
   Energy convergence tolerance   ...    1.0e-07
   Residual convergence tolerance ...    5.0e-07
   Fock matrix cutoff             ...    1.0e-05 Eh
   DIIS convergence acceleration parameters:
        Max # vectors in DIIS     ... 7
        Start iteration of DIIS   ... 0
        Levelshift                ... 2.000e-01
        Damping factor 1          ... 5.000e-01
        Damping factor 2          ... 1.000e+00
   L-MP2 PNO cut-off              ...   1.0e-09
   L-MP2 PNO cut-off (core)       ...   1.0e-11
                           *** Turning on DIIS ***
LMP2-Iter=   0:  ELMP2= -0.707266511953  DE=   1.2e-02 RMAX=   5.1e-03
LMP2-Iter=   1:  ELMP2= -0.714105962841  DE=   6.8e-03 RMAX=   2.4e-03
LMP2-Iter=   2:  ELMP2= -0.715233838635  DE=   1.1e-03 RMAX=   3.9e-04
LMP2-Iter=   3:  ELMP2= -0.715347685186  DE=   1.1e-04 RMAX=   1.8e-04
LMP2-Iter=   4:  ELMP2= -0.715351969375  DE=   4.3e-06 RMAX=   2.1e-05
LMP2-Iter=   5:  ELMP2= -0.715350882895  DE=   1.1e-06 RMAX=   7.8e-06
LMP2-Iter=   6:  ELMP2= -0.715350736874  DE=   1.5e-07 RMAX=   7.6e-07
LMP2-Iter=   7:  ELMP2= -0.715350730533  DE=   6.3e-09 RMAX=   1.7e-07
LMP2-Iter=   8:  ELMP2= -0.715350732695  DE=   2.2e-09 RMAX=   2.0e-08 => CONVERGED
PASS-2: Formation of Pair natural orbitals
   .... Finished loop over pairs

 PNO Occupation Number Statistics: 
  | Av. % of trace(Dij) retained        ...  99.820947126047
  | sigma^2 in % of trace(Dij) retained ...   3.32e-02
  | Av. % of trace(Di) retained         ...  99.999786402029
  | sigma^2 in % of trace(Di) retained  ...   5.98e-09
 Distributions of % trace(Dij) recovered:
  |       >= 99.9  ...    38 ( 41.8 % of all pairs)
  |   [99.0, 99.9) ...    53 ( 58.2 % of all pairs)
 Distributions of % trace(Di) recovered :
  |       >= 99.9  ...    13 (100.0 % of all I-pairs )

Making pair pair interaction lists          ... done

                       ===========================
                         91 OF   91 PAIRS ARE KEPT
                       ===========================

Total time spent in the initial guess                 ...     3.758 sec
L-MP2 correlation energy (all non-screened pairs)     ...      -0.715350732695 Eh
L-MP2 PNO error correction                            ...      -0.000009085317 Eh
                                                          --------------------
Initial total L-MP2 energy (non-screened pairs)       ...      -0.715359818012 Eh

Initial PNO correlation energy                        ...      -0.714847716634 Eh
sum of pair energies estimated for screened out pairs ...       0.000000000000 Eh
sum of MP2 pair energies for pairs that were not kept ...       0.000000000000 Eh
sum of PNO error estimates for the kept pairs         ...      -0.000512101378 Eh
                                                          --------------------
sum of all corrections                                         -0.000512101378
Initial total correlation energy                               -0.715359818012
Thresholds for map construction and integral transformation for fine MP2 and CCSD(T) calculation:
   TCutMKN   ...     1.0e-03
   TCutDO    ...     5.0e-03
   TCutPairs ...     1.0e-05
   TCutCMO   ...     1.0e-03
   TCutCPAO  ...     1.0e-03

Time for aux screen maps:            0.002
Time for maps after fine MP2:            0.005
-----------------------------
LOCAL RI TRANSFORMATION (IJV)
-----------------------------

Orbital window:       8 to 20
Basis functions:    236 (90 shells)
Aux. functions:     605 (181 shells)

Processing maps (0.0 sec)
Average map sizes:
   Aux shells -> MOs(i)           13.0
   Aux shells -> MOs(j)           13.0
   MOs        -> AO shells        89.1

Calculating integrals (0.5 sec, 0.787 MB)
Sorting integrals (0.0 sec, 0.780 MB)
Total time for the integral transformation: 0.5 sec
--------------------------------
LOCAL RI TRANSFORMATION (VABPAO)
--------------------------------

Number of PAOs:     236
Basis functions:    236 (90 shells)
Aux. functions:     605 (181 shells)

Processing maps (0.0 sec)
Average map sizes:
   Aux shells -> PAOs            236.0
   PAOs       -> AO shells        90.0

Calculating integrals (0.9 sec, 481.455 MB)
Finished


-------------------------------------
Pair Pair Term precalculation with     
RI-(ij|mn) and (im|jn) transformation  
ON THE FLY                             
-------------------------------------

   IBatch   1 (of   1)              ... done (   13.858 sec)
Total EXT                           ...          13.858 sec

---------------------
RI-PNO TRANSFORMATION
---------------------

Total Number of PNOs                   ...  4435
Average number of PNOs per pair        ...    48
Maximal number of PNOs per pair        ...    70
   #pairs with  1 -  5 PNOs   :    0
   #pairs with  6 - 10 PNOs   :    0
   #pairs with 11 - 15 PNOs   :    0
   #pairs with 16 - 20 PNOs   :    0
   #pairs with 21 - 25 PNOs   :    2
   #pairs with 26 - 30 PNOs   :    5
   #pairs with 31 - 35 PNOs   :   13
   #pairs with 36 - 40 PNOs   :    7
   #pairs with 41 - 45 PNOs   :    4
   #pairs with 46 - 50 PNOs   :   17
   #pairs with 51 - 55 PNOs   :   15
   #pairs with 56 - 60 PNOs   :    5
   #pairs with 61 - 65 PNOs   :    9
   #pairs with 66 - 70 PNOs   :   14

Generation of (ij|ab)[P] integrals            ... on
Generation of (ia|bc)[P],(ja|bc)[P] integrals ... on
Storage of 3 and 4 external integrals         ... on
Generation of ALL (ka|bc)[P] integrals        ... on
Keep RI integrals in memory                   ... off

Ibatch:  1 (of  1)
Starting 2-4 index PNO integral generation ... done

Timings:
Total PNO integral transformation time     ...          8.057 sec
Size of the 3-external file                ...        98 MB
Size of the 4-external file                ...       713 MB
Size of the IKJL file                      ...         0 MB
Size of the all 3-external file            ...       639 MB
Size of the 1-external file                ...         1 MB

Making pair/pair overlap matrices          ... done (    0.426 sec)
Size of the pair overlap file              ... 116 MB
Redoing the guess amplitudes               ... done (    0.003 sec)

-------------------------
FINAL STARTUP INFORMATION
-------------------------

E(0)                                       ...   -515.852799787
E(L-MP2)                                   ...     -0.715359818
E(L-MP2) including corrections             ...     -0.715359818
Initial E(tot)                             ...   -516.568159605
<T|T>                                      ...      0.223633697
Number of pairs included                   ... 91
Total number of pairs                      ... 91

------------------------------------------------
                  RHF COUPLED CLUSTER ITERATIONS
------------------------------------------------

Number of PNO amplitudes to be optimized   ...       230837
Number of non-PNO amplitudes               ...      4206475
Untruncated number of regular amplitudes   ...      4206475

Iter       E(tot)           E(Corr)          Delta-E          Residual     Time
  0   -516.548281074     -0.694969185      0.020390633      0.011985385    5.68
                           *** Turning on DIIS ***
  1   -516.594317093     -0.741005204     -0.046036019      0.007494282    5.56
  2   -516.616446805     -0.763134917     -0.022129713      0.002473337    5.56
  3   -516.620207616     -0.766895727     -0.003760811      0.001390532    5.51
  4   -516.620965705     -0.767653817     -0.000758090      0.000398969    9.31
  5   -516.621108284     -0.767796395     -0.000142579      0.000160664   11.93
  6   -516.621139251     -0.767827362     -0.000030967      0.000059499   11.90
  7   -516.621143816     -0.767831927     -0.000004565      0.000030904   13.28
  8   -516.621144469     -0.767832580     -0.000000653      0.000011976    9.98
  9   -516.621144334     -0.767832445      0.000000135      0.000004648    5.97
               --- The Coupled-Cluster iterations have converged ---

----------------------
COUPLED CLUSTER ENERGY
----------------------

E(0)                                       ...   -515.852799787
E(CORR)(strong-pairs)                      ...     -0.767832445
E(CORR)(weak-pairs)                        ...     -0.000512101
E(CORR)(corrected)                         ...     -0.768344547
E(TOT)                                     ...   -516.621144334
Singles Norm <S|S>**1/2                    ...      0.045436196  
T1 diagnostic                              ...      0.008910771  

------------------
LARGEST AMPLITUDES
------------------
  12-> 21  12-> 21       0.048470
  13-> 21  13-> 21       0.037415
  16-> 27  16-> 27       0.035404
  14-> 28  14-> 28       0.034098
   9-> 21   9-> 21       0.033300
   8-> 21   8-> 21       0.032579
  19-> 28  19-> 28       0.031232
  13-> 23  13-> 23       0.030993
  18-> 21  18-> 21       0.027137
  14-> 21  14-> 21       0.026983
  20-> 21  20-> 21       0.026982
  16-> 21  16-> 21       0.026922
  15-> 21  15-> 21       0.026863
  19-> 21  19-> 21       0.026669
  17-> 21  17-> 21       0.026579
  16-> 21  16-> 27       0.026217


-------------------------------------------
DLPNO BASED TRIPLES CORRECTION
-------------------------------------------

Singles multiplier          ...  1.000000
TCutTNO                     ... 1.000e-09
TCutMP2Pairs                ... 1.000e-06
TCutDOStrong                ... 1.000e-02
TCutMKNStrong               ... 1.000e-02
TCutDOWeak                  ... 2.000e-02
TCutMKNWeak                 ... 1.000e-01

Fragment selection                          .... not used
Number of Triples that are to be computed   ...       442

 . . . . . . . . .
10% done  
20% done  
30% done  
40% done  
50% done  
60% done  
70% done  
80% done  
90% done               (     27.101 sec)
Triples timings:
Total time for T0               ...    28.694 sec
Total time for Iterative (T)    ...     0.000 sec
Total time of overall (T)       ...    31.584 sec

Triples List generation         ...     0.000 sec
TNO generation                  ...     1.588 sec
Pair density generation         ...     0.003 sec
Look up tables                  ...     0.000 sec
Generating 3-index integrals    ...    13.249 sec
  Make 4-ind.int. from 3-ind.int...     4.832 sec
  Projecting amplitudes (D + S) ...     1.609 sec
  Downprojecting integrals      ...     0.001 sec
  Energy contr. (sum over a,b,c)...     2.074 sec
Fitting ET(->0)                 ...     0.000 sec

Everything after 3-index        ...    13.852 sec

Timing details:
 TNO integrals                  ...    17.718 sec
   Reading 3-index integrals    ...     0.090 sec
   Sorting integrals            ...     3.153 sec
       Sorting integrals 1      ...     0.000 sec
       Sorting integrals 2      ...     0.848 sec
       Sorting integrals 3      ...     0.102 sec
       Sorting integrals 4      ...     0.003 sec
       Sorting integrals 5      ...     0.024 sec
       Sorting integrals 6      ...     2.175 sec
   Calculating local VM**-1/2   ...     0.060 sec
   Orthogonal. integrals        ...     0.162 sec
   Multipl. 3-index integrals   ...    14.252 sec
   All concerning IRIab (w/TNO) ...     2.308 sec

 Calculate W0/W1                ...     5.330 sec
 W 3-ext contribution           ...     2.913 sec
 W 3-int contribution           ...     0.693 sec
 Sorting W                      ...     1.646 sec

 V exchange contribution        ...     0.691 sec

 Timings for Triples without generation
     of 3-index integrals       ...    13.851 sec
       0 weak pairs             ...    13.851 sec
       1 weak pair              ...     0.000 sec
       2 weak pairs             ...     0.000 sec
       3 weak pairs             ...     0.000 sec
  Extra time for extrapolation  ...     0.000 sec

Number of Triples   (0, 1, 2, 3 weak pairs; overall):    442       0       0       0  (   442)
Number of Atoms     (0, 1, 2, 3 weak pairs; overall):   12.0     0.0     0.0     0.0  (    12)
Number of PAOs      (0, 1, 2, 3 weak pairs; overall):  235.8     0.0     0.0     0.0  (   236)
Number of AuxFcns   (0, 1, 2, 3 weak pairs; overall):  307.6     0.0     0.0     0.0  (   605)
Number of TNOs      (0, 1, 2, 3 weak pairs         ):  105.7     0.0     0.0     0.0
Aver. Number of NTNO, Atoms, PAOs, AuxFcns / Triples:    442   105.7    12.0   235.8   307.6

Triples Correction (T)                     ...     -0.030348336
Final correlation energy                   ...     -0.798692883
E(CCSD)                                    ...   -516.621144334
E(CCSD(T))                                 ...   -516.651492670


Maximum memory used throughout the entire calculation: 3282.1 MB


------------------------------------------------------------------------------- 
                                     TIMINGS                                   
------------------------------------------------------------------------------- 


Total execution time                   ...      170.592 sec

Localization of occupied MO's          ...        0.527 sec (  0.3%)
Fock Matrix Formation                  ...        1.023 sec (  0.6%)
Global overlap, Fock, MKN matrices     ...        0.143 sec (  0.1%)
Differential overlap integrals         ...        0.060 sec (  0.0%)
Organizing maps                        ...        0.016 sec (  0.0%)
RI 3-index integral generations        ...        2.511 sec (  1.5%)
RI-PNO integral transformation         ...       45.387 sec ( 26.6%)
Initial Guess                          ...        4.234 sec (  2.5%)
DIIS Solver                            ...        0.755 sec (  0.4%)
State Vector Update                    ...        0.017 sec (  0.0%)
Sigma-vector construction              ...       84.519 sec ( 49.5%)
  <D|H|D>(0-ext)                       ...        0.789 sec (  0.9% of sigma)
  <D|H|D>(2-ext Fock)                  ...        0.007 sec (  0.0% of sigma)
  <D|H|D>(2-ext)                       ...        3.088 sec (  3.7% of sigma)
  <D|H|D>(4-ext)                       ...       12.203 sec ( 14.4% of sigma)
  <D|H|D>(4-ext-corr)                  ...       56.627 sec ( 67.0% of sigma)
  CCSD doubles correction              ...        0.069 sec (  0.1% of sigma)
  <S|H|S>                              ...        0.135 sec (  0.2% of sigma)
  <S|H|D>(1-ext)                       ...        0.126 sec (  0.1% of sigma)
  <D|H|S>(1-ext)                       ...        0.004 sec (  0.0% of sigma)
  <S|H|D>(3-ext)                       ...        0.268 sec (  0.3% of sigma)
  Fock-dressing                        ...        6.684 sec (  7.9% of sigma)
  Singles amplitudes                   ...        0.151 sec (  0.2% of sigma)
  (ik|jl)-dressing                     ...        0.585 sec (  0.7% of sigma)
  (ij|ab),(ia|jb)-dressing             ...        1.151 sec (  1.4% of sigma)
  Pair energies                        ...        0.005 sec (  0.0% of sigma)
Total Time for computing (T)           ...       31.603 sec ( 18.5% of ALL)


-------------------------   --------------------
FINAL SINGLE POINT ENERGY      -516.651492670284
-------------------------   --------------------


                            ***************************************
                            *     ORCA property calculations      *
                            ***************************************

                                    ---------------------
                                    Active property flags
                                    ---------------------
   (+) Dipole Moment


------------------------------------------------------------------------------
                       ORCA ELECTRIC PROPERTIES CALCULATION
------------------------------------------------------------------------------

Dipole Moment Calculation                       ... on
Quadrupole Moment Calculation                   ... off
Polarizability Calculation                      ... off
GBWName                                         ... 2_propanethiol_g.gbw
Electron density file                           ... 2_propanethiol_g.scfp.tmp
The origin for moment calculation is the CENTER OF MASS  = ( 0.157349, -0.028826 -0.010554)

-------------
DIPOLE MOMENT
-------------
                                X             Y             Z
Electronic contribution:      6.00408      -0.91985      -0.16645
Nuclear contribution   :     -6.60875       1.21089       0.44347
                        -----------------------------------------
Total Dipole Moment    :     -0.60467       0.29104       0.27702
                        -----------------------------------------
Magnitude (a.u.)       :      0.72600
Magnitude (Debye)      :      1.84533



--------------------
Rotational spectrum 
--------------------
 
Rotational constants in cm-1:     0.260765     0.147105     0.103445 
Rotational constants in MHz :  7817.552615  4410.084293  3101.203953 

 Dipole components along the rotational axes: 
x,y,z [a.u.] :    -0.618638    -0.267475     0.269841 
x,y,z [Debye]:    -1.572453    -0.679868     0.685880 

 

Timings for individual modules:

Sum of individual times         ...      177.328 sec (=   2.955 min)
GTO integral calculation        ...        0.585 sec (=   0.010 min)   0.3 %
SCF iterations                  ...        5.931 sec (=   0.099 min)   3.3 %
MDCI module                     ...      170.812 sec (=   2.847 min)  96.3 %
                             ****ORCA TERMINATED NORMALLY****
TOTAL RUN TIME: 0 days 0 hours 2 minutes 57 seconds 619 msec
2_propanethiol_g.gbw -> /home1/pantazis/klk/xyz_1/Sulphur_compounds/2_propanethiol_g.gbw
2_propanethiol_g.job -> /home1/pantazis/klk/xyz_1/Sulphur_compounds/2_propanethiol_g.job
2_propanethiol_g.loc -> /home1/pantazis/klk/xyz_1/Sulphur_compounds/2_propanethiol_g.loc
2_propanethiol_g.nodes -> /home1/pantazis/klk/xyz_1/Sulphur_compounds/2_propanethiol_g.nodes
2_propanethiol_g.prop -> /home1/pantazis/klk/xyz_1/Sulphur_compounds/2_propanethiol_g.prop
2_propanethiol_g_property.txt -> /home1/pantazis/klk/xyz_1/Sulphur_compounds/2_propanethiol_g_property.txt
2_propanethiol_g.xyz -> /home1/pantazis/klk/xyz_1/Sulphur_compounds/2_propanethiol_g.xyz
cp: cannot stat 2_propanethiol_g.asa.inp: No such file or directory
