! Job execution by suborca V 6.07 on ZEUS !
Job started from zeus1, running /scratch/pantazis/3_3_Dimethyl_N_methylpyrrolidine_NI__NmJCVX/orca/orca copied from /opt/orca on zeussn124 in /scratch/pantazis/3_3_Dimethyl_N_methylpyrrolidine_NI__NmJCVX
Job execution start: Fri Jun 28 01:06:49 CEST 2019
Shared library path: /scratch/pantazis/3_3_Dimethyl_N_methylpyrrolidine_NI__NmJCVX/orca:/opt/openmpi_1.10.2/lib:/opt/intel/mkl/lib/intel64:/opt/intel/lib/intel64:
PBS Job ID is: 158287.icqc
izeussn124
izeussn124
izeussn124
izeussn124
izeussn124
izeussn124
izeussn124
izeussn124

                                 *****************
                                 * O   R   C   A *
                                 *****************

           --- An Ab Initio, DFT and Semiempirical electronic structure package ---

                  #######################################################
                  #                        -***-                        #
                  #          Department of theory and spectroscopy      #
                  #               Directorship: Frank Neese             #
                  #        Max Planck Institute fuer Kohlenforschung    #
                  #                Kaiser Wilhelm Platz 1               #
                  #                 D-45470 Muelheim/Ruhr               #
                  #                      Germany                        #
                  #                                                     #
                  #                  All rights reserved                #
                  #                        -***-                        #
                  #######################################################


                         Program Version 4.1.x  -  STABLE  -
                                (SVN: $Rev: 14094$)
                ($Date: 2019-06-14 15:01:15 +0200 (Fri, 14 Jun 2019) $)

                         (BUILD: $Sun Jun 23 06:18:31 CEST 2019$)


 With contributions from (in alphabetic order):
   Daniel Aravena         : Magnetic Properties
   Michael Atanasov       : Ab Initio Ligand Field Theory
   Alexander A. Auer      : GIAO ZORA
   Ute Becker             : Parallelization
   Giovanni Bistoni       : ED, Open-shell LED
   Martin Brehm           : Molecular dynamics
   Dmytro Bykov           : SCF Hessian
   Vijay G. Chilkuri      : MRCI spin determinant printing
   Dipayan Datta          : RHF DLPNO-CCSD density
   Achintya Kumar Dutta   : EOM-CC, STEOM-CC
   Dmitry Ganyushin       : Spin-Orbit,Spin-Spin,Magnetic field MRCI
   Miquel Garcia          : C-PCM Hessian
   Yang Guo               : DLPNO-NEVPT2, CIM, IAO-localization
   Andreas Hansen         : Spin unrestricted coupled pair/coupled cluster methods
   Benjamin Helmich-Paris : CASSCF linear response (MC-RPA)
   Lee Huntington         : MR-EOM, pCC
   Robert Izsak           : Overlap fitted RIJCOSX, COSX-SCS-MP3, EOM
   Christian Kollmar      : KDIIS, OOCD, Brueckner-CCSD(T), CCSD density
   Simone Kossmann        : Meta GGA functionals, TD-DFT gradient, OOMP2, MP2 Hessian
   Martin Krupicka        : AUTO-CI
   Lucas Lang             : DCDCAS
   Dagmar Lenk            : GEPOL surface, SMD
   Dimitrios Liakos       : Extrapolation schemes; parallel MDCI
   Dimitrios Manganas     : ROCIS; embedding schemes
   Dimitrios Pantazis     : SARC Basis sets
   Taras Petrenko         : DFT Hessian,TD-DFT gradient, ASA, ECA, R-Raman, ABS, FL, XAS/XES, NRVS
   Peter Pinski           : DLPNO-MP2, DLPNO-MP2 Gradient
   Christoph Reimann      : Effective Core Potentials
   Marius Retegan         : Local ZFS, SOC
   Christoph Riplinger    : Optimizer, TS searches, QM/MM, DLPNO-CCSD(T), (RO)-DLPNO pert. Triples
   Tobias Risthaus        : Range-separated hybrids, TD-DFT gradient, RPA, STAB
   Michael Roemelt        : Restricted open shell CIS
   Masaaki Saitow         : Open-shell DLPNO
   Barbara Sandhoefer     : DKH picture change effects
   Avijit Sen             : IP-ROCIS
   Kantharuban Sivalingam : CASSCF convergence, NEVPT2, FIC-MRCI
   Bernardo de Souza      : ESD, SOC TD-DFT
   Georgi Stoychev        : AutoAux, RI-MP2 NMR
   Willem Van den Heuvel  : Paramagnetic NMR
   Boris Wezisla          : Elementary symmetry handling
   Frank Wennmohs         : Technical directorship


 We gratefully acknowledge several colleagues who have allowed us to
 interface, adapt or use parts of their codes:
   Stefan Grimme, W. Hujo, H. Kruse,             : VdW corrections, initial TS optimization,
                  C. Bannwarth                     DFT functionals, gCP, sTDA/sTD-DF
   Ed Valeev                                     : LibInt (2-el integral package), F12 methods
   Garnet Chan, S. Sharma, J. Yang, R. Olivares  : DMRG
   Ulf Ekstrom                                   : XCFun DFT Library
   Mihaly Kallay                                 : mrcc  (arbitrary order and MRCC methods)
   Andreas Klamt, Michael Diedenhofen            : otool_cosmo (COSMO solvation model)
   Jiri Pittner, Ondrej Demel                    : Mk-CCSD
   Frank Weinhold                                : gennbo (NPA and NBO analysis)
   Christopher J. Cramer and Donald G. Truhlar   : smd solvation model
   Lars Goerigk                                  : TD-DFT with DH, B97 family of functionals
   V. Asgeirsson, H. Jonsson                     : NEB implementation
   FAccTs GmbH                                   : IRC, NEB, NEB-TS, Multilevel


 Your calculation uses the libint2 library for the computation of 2-el integrals
 For citations please refer to: http://libint.valeyev.net

 This ORCA versions uses:
   CBLAS   interface :  Fast vector & matrix operations
   LAPACKE interface :  Fast linear algebra routines
   SCALAPACK package :  Parallel linear algebra routines




***************************************
The coordinates will be read from file: 3_3_Dimethyl_N_methylpyrrolidine_NI.xyz
***************************************


----- Orbital basis set information -----
Your calculation utilizes the basis: cc-pVTZ 
       H, B-Ne : Obtained from the ccRepo (grant-hill.group.shef.ac.uk/ccrepo) Feb. 2017
                 T. H. Dunning, Jr., J. Chem. Phys. 90, 1007 (1989)
            He : Obtained from the ccRepo (grant-hill.group.shef.ac.uk/ccrepo) Feb. 2017
                 D. E. Woon, T. H. Dunning, Jr., J. Chem. Phys. 100, 2975 (1994)
  Li-Be, Na-Mg : Obtained from the ccRepo (grant-hill.group.shef.ac.uk/ccrepo) Feb. 2017
                 B. P. Prascher, D. E. Woon, K. A. Peterson, T. H. Dunning, Jr., A. K. Wilson, Theor. Chem. Acc. 128, 69 (2011)
         Al-Ar : Obtained from the ccRepo (grant-hill.group.shef.ac.uk/ccrepo) Feb. 2017
                 D. E. Woon, T. H. Dunning, Jr., J. Chem. Phys. 98, 1358 (1993)
            Ca : Obtained from the Peterson Research Group Website (tyr0.chem.wsu.edu/~kipeters) Feb. 2017
                 J. Koput, K. A. Peterson, J. Phys. Chem. 106, 9595 (2002)
         Sc-Zn : Obtained from the ccRepo (grant-hill.group.shef.ac.uk/ccrepo) Feb. 2017
                 N. B. Balabanov, K. A. Peterson, J. Chem. Phys. 123, 064107 (2005)
                 N. B. Balabanov, K. A. Peterson, J. Chem. Phys. 125, 074110 (2006)
         Ga-Kr : Obtained from the ccRepo (grant-hill.group.shef.ac.uk/ccrepo) Feb. 2017
                 A. K. Wilson, D. E. Woon, K. A. Peterson, T. H. Dunning, Jr., J. Chem. Phys. 110, 7667 (1999)
             Y : Obtained from the ccRepo (grant-hill.group.shef.ac.uk/ccrepo) Feb. 2017
                 K. A. Peterson, D. Figgen, M. Dolg, H. Stoll, J. Chem. Phys. 126, 124101 (2007)
        Ag, Au : Obtained from the Peterson Research Group Website (tyr0.chem.wsu.edu/~kipeters) Feb. 2017
                 K. A. Peterson, C. Puzzarini, Theor. Chem. Acc. 114, 283 (2005)

----- AuxC basis set information -----
Your calculation utilizes the auxiliary basis: cc-pVTZ/C 
  Obtained from the EMSL Basis Set Exchange (bse.pnl.gov) Feb. 2017
  H-He, B-F, Al-Ar, Ga-Kr : F. Weigend, A. Kohn, C. Hattig, J. Chem. Phys. 116, 3175 (2002)
             Li-Be, Na-Mg : C. Haettig, Phys. Chem. Chem. Phys. 7, 59 (2005)
                       Ne : C. Haettig, Phys. Chem. Chem. Phys. 7, 59 (2005)
                            F. Weigend, A. Kohn, C. Hattig, J. Chem. Phys. 116, 3175 (2002)
                    Sc-Zn : J. G. Hill, J. A. Platts, J. Chem. Phys. 128, 044104 (2008)

----- AuxJK basis set information -----
Your calculation utilizes the auxiliary basis: cc-pVTZ/JK 
  H, B-F, Al-Cl, Ga-Br : Obtained from the TURBOMOLE 7.0 basis set library

================================================================================
                                        WARNINGS
                       Please study these warnings very carefully!
================================================================================


WARNING: MDCI localization with Augmented Hessian Foster-Boys
  ===> : Switching off randomization!

WARNING: Post HF methods need fully converged wavefunctions
  ===> : Setting SCFConvForced true
         You can overwrite this default with %scf ConvForced false 


INFO   : the flag for use of LIBINT has been found!

================================================================================
                                       INPUT FILE
================================================================================
NAME = 3_3_Dimethyl_N_methylpyrrolidine_NI.inp
|  1> ! RHF DLPNO-CCSD(T) cc-pVTZ RIJK cc-pVTZ/JK cc-pVTZ/C
|  2> ! KDIIS SOSCF TightSCF TightPNO
|  3> 
|  4> %pal nprocs 8 end
|  5> 
|  6> %maxcore 8000
|  7> 
|  8> %scf maxiter 300
|  9>      shift shift 0.2 erroff 0.1 end
| 10> end
| 11> 
| 12> * xyzfile 0 1 3_3_Dimethyl_N_methylpyrrolidine_NI.xyz 
| 13> 
| 14> 
| 15>                          ****END OF INPUT****
================================================================================

                       ****************************
                       * Single Point Calculation *
                       ****************************

---------------------------------
CARTESIAN COORDINATES (ANGSTROEM)
---------------------------------
  C     -1.020750   -0.092930   -0.005890
  C     -0.506800    1.312780   -0.383580
  C      0.984300    1.275770   -0.011260
  C      0.194290   -0.976600   -0.352120
  N      1.317920   -0.117940   -0.104210
  C      2.654210   -0.615680    0.041940
  H     -1.063690    2.133650    0.125970
  H     -0.603270    1.461760   -1.485360
  C     -2.275050   -0.493930   -0.796890
  C     -1.322630   -0.162700    1.504600
  H      1.153850    1.618270    1.036130
  H      1.605030    1.885180   -0.709200
  H      0.203600   -1.254620   -1.431420
  H      0.242040   -1.900780    0.268750
  H      2.858270   -1.388940   -0.732910
  H      3.395850    0.206750   -0.073780
  H      2.770000   -1.067030    1.053160
  H     -2.098640   -0.454440   -1.895910
  H     -3.123970    0.190170   -0.568890
  H     -2.589110   -1.532560   -0.545350
  H     -2.138630    0.542400    1.783230
  H     -0.432980    0.091290    2.124010
  H     -1.649250   -1.185770    1.800230

----------------------------
CARTESIAN COORDINATES (A.U.)
----------------------------
  NO LB      ZA    FRAG     MASS         X           Y           Z
   0 C     6.0000    0    12.011   -1.928938   -0.175612   -0.011130
   1 C     6.0000    0    12.011   -0.957713    2.480795   -0.724861
   2 C     6.0000    0    12.011    1.860057    2.410856   -0.021278
   3 C     6.0000    0    12.011    0.367155   -1.845507   -0.665410
   4 N     7.0000    0    14.007    2.490508   -0.222874   -0.196928
   5 C     6.0000    0    12.011    5.015730   -1.163467    0.079255
   6 H     1.0000    0     1.008   -2.010083    4.032014    0.238049
   7 H     1.0000    0     1.008   -1.140015    2.762326   -2.806924
   8 C     6.0000    0    12.011   -4.299221   -0.933392   -1.505904
   9 C     6.0000    0    12.011   -2.499408   -0.307458    2.843282
  10 H     1.0000    0     1.008    2.180460    3.058087    1.958002
  11 H     1.0000    0     1.008    3.033067    3.562474   -1.340194
  12 H     1.0000    0     1.008    0.384748   -2.370888   -2.704992
  13 H     1.0000    0     1.008    0.457389   -3.591954    0.507864
  14 H     1.0000    0     1.008    5.401348   -2.624716   -1.384999
  15 H     1.0000    0     1.008    6.417226    0.390701   -0.139424
  16 H     1.0000    0     1.008    5.234541   -2.016394    1.990184
  17 H     1.0000    0     1.008   -3.965855   -0.858767   -3.582751
  18 H     1.0000    0     1.008   -5.903448    0.359369   -1.075046
  19 H     1.0000    0     1.008   -4.892709   -2.896119   -1.030562
  20 H     1.0000    0     1.008   -4.041425    1.024987    3.369816
  21 H     1.0000    0     1.008   -0.818214    0.172513    4.013797
  22 H     1.0000    0     1.008   -3.116631   -2.240781    3.401942

--------------------------------
INTERNAL COORDINATES (ANGSTROEM)
--------------------------------
 C      0   0   0     0.000000000000     0.00000000     0.00000000
 C      1   0   0     1.543636920620     0.00000000     0.00000000
 C      2   1   0     1.537325968199   103.99018696     0.00000000
 C      1   2   3     1.541774978199   101.80634159   324.50030138
 N      4   1   2     1.435723072392   103.60393629    31.51262830
 C      5   4   1     1.433448950678   122.65052980   163.31124217
 H      2   1   3     1.115166010736   113.09515185   236.99044573
 H      2   1   3     1.115984170900   109.53291190   116.42638162
 C      1   2   3     1.536147938839   112.55609819   204.15328772
 C      1   2   3     1.541940150395   110.24738894    81.65606442
 H      3   2   1     1.114934645887   111.56880457   269.26027425
 H      3   2   1     1.115260742876   112.03204476   145.95969232
 H      4   1   2     1.114571795130   111.53130075   275.52408495
 H      4   1   2     1.114391444601   112.58017048   152.09262635
 H      6   5   4     1.113536723103   109.93849498    43.30147458
 H      6   5   4     1.113468505572   110.72287453   163.26995301
 H      6   5   4     1.113413685474   109.28728234   283.27090775
 H      9   1   2     1.113788538548   111.68566619    56.93500856
 H      9   1   2     1.113841091180   110.89070681   297.04040264
 H      9   1   2     1.113848433181   110.93787074   176.83365036
 H     10   1   2     1.113847694660   111.08989631    63.11242221
 H     10   1   2     1.113398756376   112.22340638   302.64856578
 H     10   1   2     1.113889557452   111.03611391   182.65443257

---------------------------
INTERNAL COORDINATES (A.U.)
---------------------------
 C      0   0   0     0.000000000000     0.00000000     0.00000000
 C      1   0   0     2.917051030181     0.00000000     0.00000000
 C      2   1   0     2.905125058462   103.99018696     0.00000000
 C      1   2   3     2.913532468928   101.80634159   324.50030138
 N      4   1   2     2.713123410974   103.60393629    31.51262830
 C      5   4   1     2.708825943738   122.65052980   163.31124217
 H      2   1   3     2.107358354148   113.09515185   236.99044573
 H      2   1   3     2.108904452793   109.53291190   116.42638162
 C      1   2   3     2.902898905594   112.55609819   204.15328772
 C      1   2   3     2.913844599144   110.24738894    81.65606442
 H      3   2   1     2.106921137948   111.56880457   269.26027425
 H      3   2   1     2.107537371949   112.03204476   145.95969232
 H      4   1   2     2.106235449389   111.53130075   275.52408495
 H      4   1   2     2.105894636281   112.58017048   152.09262635
 H      6   5   4     2.104279446730   109.93849498    43.30147458
 H      6   5   4     2.104150534277   110.72287453   163.26995301
 H      6   5   4     2.104046939305   109.28728234   283.27090775
 H      9   1   2     2.104755308955   111.68566619    56.93500856
 H      9   1   2     2.104854619037   110.89070681   297.04040264
 H      9   1   2     2.104868493410   110.93787074   176.83365036
 H     10   1   2     2.104867097807   111.08989631    63.11242221
 H     10   1   2     2.104018727399   112.22340638   302.64856578
 H     10   1   2     2.104946207019   111.03611391   182.65443257

---------------------
BASIS SET INFORMATION
---------------------
There are 3 groups of distinct atoms

 Group   1 Type C   : 18s5p2d1f contracted to 4s3p2d1f pattern {8811/311/11/1}
 Group   2 Type N   : 18s5p2d1f contracted to 4s3p2d1f pattern {8811/311/11/1}
 Group   3 Type H   : 5s2p1d contracted to 3s2p1d pattern {311/11/1}

Atom   0C    basis set group =>   1
Atom   1C    basis set group =>   1
Atom   2C    basis set group =>   1
Atom   3C    basis set group =>   1
Atom   4N    basis set group =>   2
Atom   5C    basis set group =>   1
Atom   6H    basis set group =>   3
Atom   7H    basis set group =>   3
Atom   8C    basis set group =>   1
Atom   9C    basis set group =>   1
Atom  10H    basis set group =>   3
Atom  11H    basis set group =>   3
Atom  12H    basis set group =>   3
Atom  13H    basis set group =>   3
Atom  14H    basis set group =>   3
Atom  15H    basis set group =>   3
Atom  16H    basis set group =>   3
Atom  17H    basis set group =>   3
Atom  18H    basis set group =>   3
Atom  19H    basis set group =>   3
Atom  20H    basis set group =>   3
Atom  21H    basis set group =>   3
Atom  22H    basis set group =>   3
-------------------------------
AUXILIARY BASIS SET INFORMATION
-------------------------------
There are 3 groups of distinct atoms

 Group   1 Type C   : 8s6p5d3f1g contracted to 8s6p5d3f1g pattern {11111111/111111/11111/111/1}
 Group   2 Type N   : 8s6p5d3f1g contracted to 8s6p5d3f1g pattern {11111111/111111/11111/111/1}
 Group   3 Type H   : 4s3p2d1f contracted to 4s3p2d1f pattern {1111/111/11/1}

Atom   0C    basis set group =>   1
Atom   1C    basis set group =>   1
Atom   2C    basis set group =>   1
Atom   3C    basis set group =>   1
Atom   4N    basis set group =>   2
Atom   5C    basis set group =>   1
Atom   6H    basis set group =>   3
Atom   7H    basis set group =>   3
Atom   8C    basis set group =>   1
Atom   9C    basis set group =>   1
Atom  10H    basis set group =>   3
Atom  11H    basis set group =>   3
Atom  12H    basis set group =>   3
Atom  13H    basis set group =>   3
Atom  14H    basis set group =>   3
Atom  15H    basis set group =>   3
Atom  16H    basis set group =>   3
Atom  17H    basis set group =>   3
Atom  18H    basis set group =>   3
Atom  19H    basis set group =>   3
Atom  20H    basis set group =>   3
Atom  21H    basis set group =>   3
Atom  22H    basis set group =>   3
-------------------------------
AUXILIARY BASIS SET INFORMATION
-------------------------------
There are 3 groups of distinct atoms

 Group   1 Type C   : 10s7p5d2f1g contracted to 10s7p5d2f1g pattern {1111111111/1111111/11111/11/1}
 Group   2 Type N   : 10s7p5d2f1g contracted to 10s7p5d2f1g pattern {1111111111/1111111/11111/11/1}
 Group   3 Type H   : 4s3p2d1f contracted to 4s3p2d1f pattern {1111/111/11/1}

Atom   0C    basis set group =>   1
Atom   1C    basis set group =>   1
Atom   2C    basis set group =>   1
Atom   3C    basis set group =>   1
Atom   4N    basis set group =>   2
Atom   5C    basis set group =>   1
Atom   6H    basis set group =>   3
Atom   7H    basis set group =>   3
Atom   8C    basis set group =>   1
Atom   9C    basis set group =>   1
Atom  10H    basis set group =>   3
Atom  11H    basis set group =>   3
Atom  12H    basis set group =>   3
Atom  13H    basis set group =>   3
Atom  14H    basis set group =>   3
Atom  15H    basis set group =>   3
Atom  16H    basis set group =>   3
Atom  17H    basis set group =>   3
Atom  18H    basis set group =>   3
Atom  19H    basis set group =>   3
Atom  20H    basis set group =>   3
Atom  21H    basis set group =>   3
Atom  22H    basis set group =>   3


           ************************************************************
           *        Program running with 8 parallel MPI-processes     *
           *              working on a common directory               *
           ************************************************************
------------------------------------------------------------------------------
                           ORCA GTO INTEGRAL CALCULATION
                           -- RI-GTO INTEGRALS CHOSEN --
------------------------------------------------------------------------------

                         BASIS SET STATISTICS AND STARTUP INFO

Gaussian basis set:
 # of primitive gaussian shells          ...  328
 # of primitive gaussian functions       ...  640
 # of contracted shells                  ...  170
 # of contracted basis functions         ...  450
 Highest angular momentum                ...    3
 Maximum contraction depth               ...    8
Auxiliary gaussian basis set:
 # of primitive gaussian shells          ...  350
 # of primitive gaussian functions       ... 1082
 # of contracted shells                  ...  350
 # of contracted aux-basis functions     ... 1082
 Highest angular momentum                ...    4
 Maximum contraction depth               ...    1
Ratio of auxiliary to basis functions    ...  2.40
Integral package used                  ... LIBINT
 One Electron integrals                  ... done
 Ordering auxiliary basis shells         ... done
 Integral threshhold             Thresh  ...  2.500e-11
 Primitive cut-off               TCut    ...  2.500e-12
 Pre-screening matrix                    ... done
 Shell pair data                         ... 
 Ordering of the shell pairs             ... done (   0.003 sec) 13586 of 14535 pairs
 Determination of significant pairs      ... done (   0.000 sec)
 Creation of shell pair data             ... done (   0.003 sec)
 Storage of shell pair data              ... done (   0.003 sec)
 Shell pair data done in (   0.009 sec)
 Computing two index integrals           ... done
 Cholesky decomposition of the V-matrix  ... done


Timings:
 Total evaluation time                   ...   0.810 sec (  0.014 min)
 One electron matrix time                ...   0.219 sec (  0.004 min) = 27.0%
 Schwartz matrix evaluation time         ...   0.321 sec (  0.005 min) = 39.6%
 Two index repulsion integral time       ...   0.103 sec (  0.002 min) = 12.7%
 Cholesky decomposition of V             ...   0.133 sec (  0.002 min) = 16.4%
 Three index repulsion integral time     ...   0.000 sec (  0.000 min) =  0.0%



           ************************************************************
           *        Program running with 8 parallel MPI-processes     *
           *              working on a common directory               *
           ************************************************************
-------------------------------------------------------------------------------
                                 ORCA SCF
-------------------------------------------------------------------------------

------------
SCF SETTINGS
------------
Hamiltonian:
 Ab initio Hamiltonian  Method          .... Hartree-Fock(GTOs)
 RI-approximation to the Coulomb term is turned on
   Number of auxiliary basis functions  .... 1082
   RI-JK (J+K treated both via RI)      .... on


General Settings:
 Integral files         IntName         .... 3_3_Dimethyl_N_methylpyrrolidine_NI
 Hartree-Fock type      HFTyp           .... RHF
 Total Charge           Charge          ....    0
 Multiplicity           Mult            ....    1
 Number of Electrons    NEL             ....   64
 Basis Dimension        Dim             ....  450
 Nuclear Repulsion      ENuc            ....    417.3590827020 Eh

Convergence Acceleration:
 DIIS                   CNVDIIS         .... off
 Newton-Raphson         CNVNR           .... off
 SOSCF                  CNVSOSCF        .... on
   Start iteration      SOSCFMaxIt      ....   150
   Startup grad/error   SOSCFStart      ....  0.003300
 Level Shifting         CNVShift        .... on
   Level shift para.    LevelShift      ....    0.2000
   Turn off err/grad.   ShiftErr        ....    0.1000
 Zerner damping         CNVZerner       .... off
 Static damping         CNVDamp         .... off
 Fernandez-Rico         CNVRico         .... off

SCF Procedure:
 Maximum # iterations   MaxIter         ....   300
 SCF integral mode      SCFMode         .... Direct
   Integral package                     .... LIBINT
 Reset frequency        DirectResetFreq ....    20
 Integral Threshold     Thresh          ....  2.500e-11 Eh
 Primitive CutOff       TCut            ....  2.500e-12 Eh

Convergence Tolerance:
 Convergence Check Mode ConvCheckMode   .... Total+1el-Energy
 Convergence forced     ConvForced      .... 1
 Energy Change          TolE            ....  1.000e-08 Eh
 1-El. energy change                    ....  1.000e-05 Eh
 Orbital Gradient       TolG            ....  1.000e-05
 Orbital Rotation angle TolX            ....  1.000e-05


Diagonalization of the overlap matrix:
Smallest eigenvalue                        ... 1.959e-04
Time for diagonalization                   ...    0.045 sec
Threshold for overlap eigenvalues          ... 1.000e-08
Number of eigenvalues below threshold      ... 0
Time for construction of square roots      ...    0.060 sec
Total time needed                          ...    0.106 sec

-------------------
DFT GRID GENERATION
-------------------

General Integration Accuracy     IntAcc      ...  4.340
Radial Grid Type                 RadialGrid  ... Gauss-Chebyshev
Angular Grid (max. acc.)         AngularGrid ... Lebedev-110
Angular grid pruning method      GridPruning ... 3 (G Style)
Weight generation scheme         WeightScheme... Becke
Basis function cutoff            BFCut       ...    1.0000e-11
Integration weight cutoff        WCut        ...    1.0000e-14
Grids for H and He will be reduced by one unit

# of grid points (after initial pruning)     ...  25204 (   0.0 sec)
# of grid points (after weights+screening)   ...  22783 (   0.0 sec)
nearest neighbour list constructed           ...    0.0 sec
Grid point re-assignment to atoms done       ...    0.0 sec
Grid point division into batches done        ...    0.0 sec
Reduced shell lists constructed in    0.3 sec

Total number of grid points                  ...    22783
Total number of batches                      ...      368
Average number of points per batch           ...       61
Average number of grid points per atom       ...      991
Average number of shells per batch           ...   144.30 (84.88%)
Average number of basis functions per batch  ...   376.04 (83.57%)
Average number of large shells per batch     ...   115.13 (79.78%)
Average number of large basis fcns per batch ...   295.77 (78.65%)
Average number of aux-shells per batch       ...   144.30 (41.23%)
Average number of aux functions per batch    ...   376.04 (34.75%)
Maximum spatial batch extension              ...   2.55,  2.26,  2.48 au
Average spatial batch extension              ...   0.20,  0.19,  0.18 au

Time for grid setup =    0.301 sec

------------------------------
INITIAL GUESS: MODEL POTENTIAL
------------------------------
Loading Hartree-Fock densities                     ... done
Calculating cut-offs                               ... done
Setting up the integral package                    ... done
Initializing the effective Hamiltonian             ... done
Starting the Coulomb interaction                   ... done (   0.1 sec)
Reading the grid                                   ... done
Mapping shells                                     ... done
Starting the XC term evaluation                    ... done (   0.1 sec)
Transforming the Hamiltonian                       ... done (   0.0 sec)
Diagonalizing the Hamiltonian                      ... done (   0.0 sec)
Back transforming the eigenvectors                 ... done (   0.0 sec)
Now organizing SCF variables                       ... done
                      ------------------
                      INITIAL GUESS DONE (   0.7 sec)
                      ------------------
--------------
SCF ITERATIONS
--------------
ITER       Energy         Delta-E        Max-DP      RMS-DP      [F,P]   Gradient Norm
                             ****Turning on KDIIS(Cayley)****
  0   -327.8854115695   0.000000000000 0.01583412  0.00023372  0.1280808   0.148911765
  1   -328.0163829981  -0.130971428591 0.01844351  0.00026051  0.1177104   0.128810769
  2   -328.1230323378  -0.106649339697 0.03042561  0.00044753  0.0943834   0.104704254
  3   -328.2537821276  -0.130749789797 0.04684208  0.00072127  0.0574761   0.064783372
                      *** Initiating the SOSCF procedure ***
                           *** Shutting down KDIIS ***
                      *** Re-Reading the Fockian *** 
                      *** Removing any level shift *** 
ITER      Energy       Delta-E        Grad      Rot      Max-DP    RMS-DP
  4   -328.34031741  -0.0865352795  0.002389  0.002389  0.002906  0.000072
  5   -328.34092029  -0.0006028854  0.000874  0.001596  0.001890  0.000039
  6   -328.34097520  -0.0000549106  0.000475  0.000364  0.001017  0.000019
  7   -328.34099416  -0.0000189600  0.000093  0.000220  0.000487  0.000008
  8   -328.34099477  -0.0000006090  0.000030  0.000078  0.000168  0.000003
  9   -328.34099493  -0.0000001574  0.000013  0.000023  0.000067  0.000001
 10   -328.34099494  -0.0000000074  0.000004  0.000013  0.000037  0.000001
                  ***Gradient check signals convergence***
              ***Rediagonalizing the Fockian in SOSCF/NRSCF***

               *****************************************************
               *                     SUCCESS                       *
               *           SCF CONVERGED AFTER  11 CYCLES          *
               *****************************************************


----------------
TOTAL SCF ENERGY
----------------

Total Energy       :         -328.34099494 Eh           -8934.61270 eV

Components:
Nuclear Repulsion  :          417.35908270 Eh           11356.91801 eV
Electronic Energy  :         -745.70007764 Eh          -20291.53071 eV
One Electron Energy:        -1271.32158914 Eh          -34594.41919 eV
Two Electron Energy:          525.62151150 Eh           14302.88847 eV

Virial components:
Potential Energy   :         -655.89250834 Eh          -17847.74251 eV
Kinetic Energy     :          327.55151340 Eh            8913.12981 eV
Virial Ratio       :            2.00241025


---------------
SCF CONVERGENCE
---------------

  Last Energy change         ...   -1.1381e-09  Tolerance :   1.0000e-08
  Last MAX-Density change    ...    4.1757e-06  Tolerance :   1.0000e-07
  Last RMS-Density change    ...    7.1831e-08  Tolerance :   5.0000e-09
  Last Orbital Gradient      ...    1.2156e-06  Tolerance :   1.0000e-05
  Last Orbital Rotation      ...    2.7040e-06  Tolerance :   1.0000e-05

             **** THE GBW FILE WAS UPDATED (3_3_Dimethyl_N_methylpyrrolidine_NI.gbw) ****
             **** DENSITY FILE WAS UPDATED (3_3_Dimethyl_N_methylpyrrolidine_NI.scfp.tmp) ****
             **** ENERGY FILE WAS UPDATED (3_3_Dimethyl_N_methylpyrrolidine_NI.en.tmp) ****
----------------
ORBITAL ENERGIES
----------------

  NO   OCC          E(Eh)            E(eV) 
   0   2.0000     -15.515851      -422.2078 
   1   2.0000     -11.245545      -306.0068 
   2   2.0000     -11.245260      -305.9991 
   3   2.0000     -11.242965      -305.9366 
   4   2.0000     -11.233575      -305.6811 
   5   2.0000     -11.220669      -305.3299 
   6   2.0000     -11.217529      -305.2445 
   7   2.0000     -11.216570      -305.2184 
   8   2.0000      -1.231926       -33.5224 
   9   2.0000      -1.084275       -29.5046 
  10   2.0000      -0.991602       -26.9829 
  11   2.0000      -0.939139       -25.5553 
  12   2.0000      -0.921267       -25.0690 
  13   2.0000      -0.872492       -23.7417 
  14   2.0000      -0.766032       -20.8448 
  15   2.0000      -0.735481       -20.0134 
  16   2.0000      -0.655620       -17.8403 
  17   2.0000      -0.641556       -17.4576 
  18   2.0000      -0.603334       -16.4175 
  19   2.0000      -0.593472       -16.1492 
  20   2.0000      -0.569025       -15.4840 
  21   2.0000      -0.564495       -15.3607 
  22   2.0000      -0.553706       -15.0671 
  23   2.0000      -0.528842       -14.3905 
  24   2.0000      -0.510331       -13.8868 
  25   2.0000      -0.504612       -13.7312 
  26   2.0000      -0.492895       -13.4124 
  27   2.0000      -0.491557       -13.3759 
  28   2.0000      -0.452393       -12.3102 
  29   2.0000      -0.448328       -12.1996 
  30   2.0000      -0.440431       -11.9847 
  31   2.0000      -0.308550        -8.3961 
  32   0.0000       0.131273         3.5721 
  33   0.0000       0.153990         4.1903 
  34   0.0000       0.173371         4.7177 
  35   0.0000       0.176023         4.7898 
  36   0.0000       0.189327         5.1519 
  37   0.0000       0.195402         5.3172 
  38   0.0000       0.201730         5.4894 
  39   0.0000       0.209012         5.6875 
  40   0.0000       0.219617         5.9761 
  41   0.0000       0.228378         6.2145 
  42   0.0000       0.236533         6.4364 
  43   0.0000       0.248464         6.7610 
  44   0.0000       0.262858         7.1527 
  45   0.0000       0.268748         7.3130 
  46   0.0000       0.277732         7.5575 
  47   0.0000       0.281486         7.6596 
  48   0.0000       0.292787         7.9671 
  49   0.0000       0.313642         8.5346 
  50   0.0000       0.321913         8.7597 
  51   0.0000       0.339488         9.2379 
  52   0.0000       0.359957         9.7949 
  53   0.0000       0.374037        10.1781 
  54   0.0000       0.385585        10.4923 
  55   0.0000       0.395298        10.7566 
  56   0.0000       0.416646        11.3375 
  57   0.0000       0.433154        11.7867 
  58   0.0000       0.454940        12.3795 
  59   0.0000       0.466202        12.6860 
  60   0.0000       0.488007        13.2793 
  61   0.0000       0.489661        13.3244 
  62   0.0000       0.502279        13.6677 
  63   0.0000       0.527545        14.3552 
  64   0.0000       0.535014        14.5585 
  65   0.0000       0.539521        14.6811 
  66   0.0000       0.569742        15.5035 
  67   0.0000       0.575328        15.6555 
  68   0.0000       0.583794        15.8858 
  69   0.0000       0.596522        16.2322 
  70   0.0000       0.601667        16.3722 
  71   0.0000       0.613049        16.6819 
  72   0.0000       0.613438        16.6925 
  73   0.0000       0.620505        16.8848 
  74   0.0000       0.627617        17.0783 
  75   0.0000       0.631788        17.1918 
  76   0.0000       0.636086        17.3088 
  77   0.0000       0.641761        17.4632 
  78   0.0000       0.656007        17.8509 
  79   0.0000       0.660500        17.9731 
  80   0.0000       0.665609        18.1122 
  81   0.0000       0.675397        18.3785 
  82   0.0000       0.683857        18.6087 
  83   0.0000       0.686535        18.6816 
  84   0.0000       0.690361        18.7857 
  85   0.0000       0.708317        19.2743 
  86   0.0000       0.718476        19.5507 
  87   0.0000       0.721192        19.6246 
  88   0.0000       0.740950        20.1623 
  89   0.0000       0.753667        20.5083 
  90   0.0000       0.758876        20.6501 
  91   0.0000       0.764031        20.7903 
  92   0.0000       0.802316        21.8321 
  93   0.0000       0.817519        22.2458 
  94   0.0000       0.844791        22.9879 
  95   0.0000       0.874752        23.8032 
  96   0.0000       0.900381        24.5006 
  97   0.0000       0.904193        24.6044 
  98   0.0000       0.941824        25.6283 
  99   0.0000       0.944117        25.6907 
 100   0.0000       0.974843        26.5268 
 101   0.0000       1.000160        27.2157 
 102   0.0000       1.025396        27.9024 
 103   0.0000       1.032431        28.0939 
 104   0.0000       1.039383        28.2831 
 105   0.0000       1.060765        28.8649 
 106   0.0000       1.069371        29.0991 
 107   0.0000       1.086007        29.5517 
 108   0.0000       1.089460        29.6457 
 109   0.0000       1.107408        30.1341 
 110   0.0000       1.126952        30.6659 
 111   0.0000       1.127473        30.6801 
 112   0.0000       1.139410        31.0049 
 113   0.0000       1.147459        31.2239 
 114   0.0000       1.150929        31.3184 
 115   0.0000       1.163306        31.6552 
 116   0.0000       1.170500        31.8509 
 117   0.0000       1.178637        32.0723 
 118   0.0000       1.190904        32.4061 
 119   0.0000       1.210058        32.9274 
 120   0.0000       1.217390        33.1269 
 121   0.0000       1.231786        33.5186 
 122   0.0000       1.239451        33.7272 
 123   0.0000       1.248973        33.9863 
 124   0.0000       1.268961        34.5302 
 125   0.0000       1.282090        34.8874 
 126   0.0000       1.305610        35.5275 
 127   0.0000       1.319079        35.8940 
 128   0.0000       1.328847        36.1598 
 129   0.0000       1.338826        36.4313 
 130   0.0000       1.345792        36.6209 
 131   0.0000       1.372743        37.3542 
 132   0.0000       1.378744        37.5175 
 133   0.0000       1.392603        37.8946 
 134   0.0000       1.397464        38.0269 
 135   0.0000       1.405069        38.2339 
 136   0.0000       1.413743        38.4699 
 137   0.0000       1.430030        38.9131 
 138   0.0000       1.439792        39.1787 
 139   0.0000       1.445547        39.3353 
 140   0.0000       1.459520        39.7156 
 141   0.0000       1.473277        40.0899 
 142   0.0000       1.474680        40.1281 
 143   0.0000       1.481586        40.3160 
 144   0.0000       1.486336        40.4453 
 145   0.0000       1.500667        40.8352 
 146   0.0000       1.520671        41.3796 
 147   0.0000       1.521519        41.4026 
 148   0.0000       1.529444        41.6183 
 149   0.0000       1.531211        41.6664 
 150   0.0000       1.537021        41.8245 
 151   0.0000       1.554933        42.3119 
 152   0.0000       1.560554        42.4648 
 153   0.0000       1.570747        42.7422 
 154   0.0000       1.578844        42.9625 
 155   0.0000       1.590248        43.2729 
 156   0.0000       1.593086        43.3501 
 157   0.0000       1.609987        43.8100 
 158   0.0000       1.637489        44.5583 
 159   0.0000       1.646200        44.7954 
 160   0.0000       1.653996        45.0075 
 161   0.0000       1.659873        45.1675 
 162   0.0000       1.678674        45.6790 
 163   0.0000       1.682582        45.7854 
 164   0.0000       1.713926        46.6383 
 165   0.0000       1.718403        46.7601 
 166   0.0000       1.736400        47.2498 
 167   0.0000       1.761494        47.9327 
 168   0.0000       1.770286        48.1719 
 169   0.0000       1.776927        48.3526 
 170   0.0000       1.796030        48.8725 
 171   0.0000       1.811259        49.2869 
 172   0.0000       1.818778        49.4915 
 173   0.0000       1.844468        50.1905 
 174   0.0000       1.856833        50.5270 
 175   0.0000       1.897916        51.6449 
 176   0.0000       1.938906        52.7603 
 177   0.0000       1.958807        53.3019 
 178   0.0000       1.970480        53.6195 
 179   0.0000       2.036280        55.4100 
 180   0.0000       2.067999        56.2731 
 181   0.0000       2.079542        56.5872 
 182   0.0000       2.094177        56.9854 
 183   0.0000       2.132029        58.0155 
 184   0.0000       2.223959        60.5170 
 185   0.0000       2.239469        60.9390 
 186   0.0000       2.276389        61.9437 
 187   0.0000       2.528163        68.7948 
 188   0.0000       2.565143        69.8011 
 189   0.0000       2.584755        70.3348 
 190   0.0000       2.595377        70.6238 
 191   0.0000       2.612462        71.0887 
 192   0.0000       2.655988        72.2731 
 193   0.0000       2.688099        73.1469 
 194   0.0000       2.696867        73.3855 
 195   0.0000       2.738047        74.5060 
 196   0.0000       2.770003        75.3756 
 197   0.0000       2.780332        75.6567 
 198   0.0000       2.796435        76.0949 
 199   0.0000       2.825348        76.8816 
 200   0.0000       2.841003        77.3076 
 201   0.0000       2.866796        78.0095 
 202   0.0000       2.875114        78.2358 
 203   0.0000       2.888864        78.6100 
 204   0.0000       2.895545        78.7918 
 205   0.0000       2.915258        79.3282 
 206   0.0000       2.925519        79.6074 
 207   0.0000       2.936983        79.9194 
 208   0.0000       2.968106        80.7663 
 209   0.0000       2.976354        80.9907 
 210   0.0000       2.983822        81.1939 
 211   0.0000       2.985293        81.2339 
 212   0.0000       3.001368        81.6714 
 213   0.0000       3.021477        82.2186 
 214   0.0000       3.026487        82.3549 
 215   0.0000       3.035835        82.6093 
 216   0.0000       3.050959        83.0208 
 217   0.0000       3.080534        83.8256 
 218   0.0000       3.102225        84.4158 
 219   0.0000       3.108973        84.5995 
 220   0.0000       3.112089        84.6842 
 221   0.0000       3.122089        84.9564 
 222   0.0000       3.127355        85.0997 
 223   0.0000       3.144455        85.5650 
 224   0.0000       3.166172        86.1559 
 225   0.0000       3.180523        86.5464 
 226   0.0000       3.189070        86.7790 
 227   0.0000       3.209018        87.3218 
 228   0.0000       3.215061        87.4863 
 229   0.0000       3.237682        88.1018 
 230   0.0000       3.247375        88.3656 
 231   0.0000       3.253663        88.5367 
 232   0.0000       3.261248        88.7431 
 233   0.0000       3.273754        89.0834 
 234   0.0000       3.293628        89.6242 
 235   0.0000       3.307204        89.9936 
 236   0.0000       3.326525        90.5193 
 237   0.0000       3.331405        90.6521 
 238   0.0000       3.336771        90.7981 
 239   0.0000       3.345201        91.0276 
 240   0.0000       3.357853        91.3718 
 241   0.0000       3.366723        91.6132 
 242   0.0000       3.371885        91.7537 
 243   0.0000       3.378474        91.9330 
 244   0.0000       3.384099        92.0860 
 245   0.0000       3.406072        92.6839 
 246   0.0000       3.414871        92.9234 
 247   0.0000       3.418179        93.0134 
 248   0.0000       3.431608        93.3788 
 249   0.0000       3.444652        93.7337 
 250   0.0000       3.453337        93.9701 
 251   0.0000       3.460437        94.1633 
 252   0.0000       3.467259        94.3489 
 253   0.0000       3.479102        94.6712 
 254   0.0000       3.486502        94.8725 
 255   0.0000       3.501643        95.2845 
 256   0.0000       3.509701        95.5038 
 257   0.0000       3.526405        95.9584 
 258   0.0000       3.534676        96.1834 
 259   0.0000       3.541667        96.3737 
 260   0.0000       3.562863        96.9504 
 261   0.0000       3.578034        97.3633 
 262   0.0000       3.588980        97.6611 
 263   0.0000       3.603023        98.0432 
 264   0.0000       3.618368        98.4608 
 265   0.0000       3.624771        98.6350 
 266   0.0000       3.633126        98.8624 
 267   0.0000       3.648582        99.2830 
 268   0.0000       3.661727        99.6406 
 269   0.0000       3.664126        99.7059 
 270   0.0000       3.676788       100.0505 
 271   0.0000       3.689228       100.3890 
 272   0.0000       3.700849       100.7052 
 273   0.0000       3.707020       100.8731 
 274   0.0000       3.713981       101.0626 
 275   0.0000       3.722039       101.2818 
 276   0.0000       3.729320       101.4799 
 277   0.0000       3.750397       102.0535 
 278   0.0000       3.758773       102.2814 
 279   0.0000       3.780457       102.8715 
 280   0.0000       3.789708       103.1232 
 281   0.0000       3.792836       103.2083 
 282   0.0000       3.807243       103.6004 
 283   0.0000       3.814495       103.7977 
 284   0.0000       3.824503       104.0700 
 285   0.0000       3.837289       104.4179 
 286   0.0000       3.843023       104.5740 
 287   0.0000       3.858240       104.9881 
 288   0.0000       3.863543       105.1323 
 289   0.0000       3.865321       105.1807 
 290   0.0000       3.900451       106.1367 
 291   0.0000       3.904965       106.2595 
 292   0.0000       3.920828       106.6912 
 293   0.0000       3.944951       107.3476 
 294   0.0000       3.951155       107.5164 
 295   0.0000       3.970792       108.0507 
 296   0.0000       3.977823       108.2421 
 297   0.0000       3.986356       108.4743 
 298   0.0000       4.025989       109.5527 
 299   0.0000       4.029303       109.6429 
 300   0.0000       4.047804       110.1464 
 301   0.0000       4.054933       110.3403 
 302   0.0000       4.065637       110.6316 
 303   0.0000       4.074711       110.8785 
 304   0.0000       4.091486       111.3350 
 305   0.0000       4.093226       111.3824 
 306   0.0000       4.102762       111.6418 
 307   0.0000       4.119968       112.1100 
 308   0.0000       4.130439       112.3950 
 309   0.0000       4.140471       112.6679 
 310   0.0000       4.151246       112.9611 
 311   0.0000       4.169164       113.4487 
 312   0.0000       4.180197       113.7490 
 313   0.0000       4.196833       114.2016 
 314   0.0000       4.209805       114.5546 
 315   0.0000       4.235095       115.2428 
 316   0.0000       4.243818       115.4802 
 317   0.0000       4.263030       116.0029 
 318   0.0000       4.274146       116.3054 
 319   0.0000       4.293465       116.8311 
 320   0.0000       4.300140       117.0128 
 321   0.0000       4.311683       117.3269 
 322   0.0000       4.322345       117.6170 
 323   0.0000       4.341072       118.1266 
 324   0.0000       4.354051       118.4798 
 325   0.0000       4.354662       118.4964 
 326   0.0000       4.382593       119.2564 
 327   0.0000       4.384798       119.3164 
 328   0.0000       4.391130       119.4887 
 329   0.0000       4.394190       119.5720 
 330   0.0000       4.423070       120.3578 
 331   0.0000       4.424794       120.4048 
 332   0.0000       4.435489       120.6958 
 333   0.0000       4.444220       120.9334 
 334   0.0000       4.456245       121.2606 
 335   0.0000       4.476445       121.8103 
 336   0.0000       4.479379       121.8901 
 337   0.0000       4.487773       122.1185 
 338   0.0000       4.497116       122.3727 
 339   0.0000       4.502024       122.5063 
 340   0.0000       4.522986       123.0767 
 341   0.0000       4.527550       123.2009 
 342   0.0000       4.532150       123.3261 
 343   0.0000       4.544436       123.6604 
 344   0.0000       4.555777       123.9690 
 345   0.0000       4.560892       124.1082 
 346   0.0000       4.574229       124.4711 
 347   0.0000       4.588864       124.8693 
 348   0.0000       4.605064       125.3102 
 349   0.0000       4.618940       125.6877 
 350   0.0000       4.628627       125.9513 
 351   0.0000       4.635343       126.1341 
 352   0.0000       4.660581       126.8209 
 353   0.0000       4.673026       127.1595 
 354   0.0000       4.689373       127.6043 
 355   0.0000       4.712582       128.2359 
 356   0.0000       4.734072       128.8207 
 357   0.0000       4.753298       129.3438 
 358   0.0000       4.759628       129.5161 
 359   0.0000       4.769166       129.7756 
 360   0.0000       4.784364       130.1892 
 361   0.0000       4.801063       130.6436 
 362   0.0000       4.858921       132.2180 
 363   0.0000       4.868535       132.4796 
 364   0.0000       4.896278       133.2345 
 365   0.0000       4.900582       133.3516 
 366   0.0000       4.943950       134.5317 
 367   0.0000       4.976170       135.4085 
 368   0.0000       4.980155       135.5169 
 369   0.0000       5.006424       136.2317 
 370   0.0000       5.029324       136.8549 
 371   0.0000       5.036720       137.0561 
 372   0.0000       5.062105       137.7469 
 373   0.0000       5.067666       137.8982 
 374   0.0000       5.090298       138.5141 
 375   0.0000       5.102978       138.8591 
 376   0.0000       5.144674       139.9937 
 377   0.0000       5.148820       140.1065 
 378   0.0000       5.160861       140.4342 
 379   0.0000       5.171016       140.7105 
 380   0.0000       5.204330       141.6170 
 381   0.0000       5.208077       141.7190 
 382   0.0000       5.242762       142.6628 
 383   0.0000       5.262092       143.1888 
 384   0.0000       5.270475       143.4169 
 385   0.0000       5.288210       143.8995 
 386   0.0000       5.311909       144.5444 
 387   0.0000       5.317365       144.6929 
 388   0.0000       5.327701       144.9741 
 389   0.0000       5.359281       145.8335 
 390   0.0000       5.378569       146.3583 
 391   0.0000       5.389379       146.6525 
 392   0.0000       5.415778       147.3708 
 393   0.0000       5.417914       147.4289 
 394   0.0000       5.441705       148.0763 
 395   0.0000       5.471503       148.8872 
 396   0.0000       5.476658       149.0274 
 397   0.0000       5.503012       149.7446 
 398   0.0000       5.517166       150.1297 
 399   0.0000       5.521392       150.2447 
 400   0.0000       5.534623       150.6047 
 401   0.0000       5.552426       151.0892 
 402   0.0000       5.565172       151.4360 
 403   0.0000       5.569136       151.5439 
 404   0.0000       5.585250       151.9824 
 405   0.0000       5.587403       152.0410 
 406   0.0000       5.603399       152.4763 
 407   0.0000       5.613284       152.7452 
 408   0.0000       5.639993       153.4720 
 409   0.0000       5.669155       154.2655 
 410   0.0000       5.678056       154.5078 
 411   0.0000       5.691119       154.8632 
 412   0.0000       5.696120       154.9993 
 413   0.0000       5.707707       155.3146 
 414   0.0000       5.748816       156.4332 
 415   0.0000       5.754468       156.5870 
 416   0.0000       5.774371       157.1286 
 417   0.0000       5.795185       157.6950 
 418   0.0000       5.823893       158.4762 
 419   0.0000       5.860190       159.4639 
 420   0.0000       5.871841       159.7809 
 421   0.0000       5.887877       160.2173 
 422   0.0000       5.903859       160.6522 
 423   0.0000       5.938259       161.5882 
 424   0.0000       5.950066       161.9095 
 425   0.0000       6.011051       163.5690 
 426   0.0000       6.073636       165.2720 
 427   0.0000       6.131259       166.8400 
 428   0.0000       6.219163       169.2320 
 429   0.0000       6.271383       170.6530 
 430   0.0000       6.294588       171.2844 
 431   0.0000       6.308111       171.6524 
 432   0.0000       6.318126       171.9249 
 433   0.0000       6.326693       172.1581 
 434   0.0000       6.335307       172.3925 
 435   0.0000       6.356633       172.9728 
 436   0.0000       6.412777       174.5005 
 437   0.0000       6.420782       174.7184 
 438   0.0000       6.431312       175.0049 
 439   0.0000       6.487317       176.5289 
 440   0.0000       6.511429       177.1850 
 441   0.0000       6.560772       178.5277 
 442   0.0000      10.906212       296.7731 
 443   0.0000      11.613890       316.0300 
 444   0.0000      12.814326       348.6955 
 445   0.0000      13.778625       374.9355 
 446   0.0000      13.795142       375.3849 
 447   0.0000      14.047603       382.2547 
 448   0.0000      14.124413       384.3448 
 449   0.0000      14.128867       384.4660 

                    ********************************
                    * MULLIKEN POPULATION ANALYSIS *
                    ********************************

-----------------------
MULLIKEN ATOMIC CHARGES
-----------------------
   0 C :    0.018013
   1 C :   -0.174780
   2 C :   -0.098740
   3 C :   -0.051280
   4 N :   -0.190788
   5 C :   -0.170388
   6 H :    0.096977
   7 H :    0.089959
   8 C :   -0.290912
   9 C :   -0.307874
  10 H :    0.061524
  11 H :    0.077084
  12 H :    0.065476
  13 H :    0.071395
  14 H :    0.075628
  15 H :    0.085167
  16 H :    0.070502
  17 H :    0.092076
  18 H :    0.094728
  19 H :    0.094043
  20 H :    0.093686
  21 H :    0.103692
  22 H :    0.094814
Sum of atomic charges:    0.0000000

--------------------------------
MULLIKEN REDUCED ORBITAL CHARGES
--------------------------------
  0 C s       :     3.151205  s :     3.151205
      pz      :     0.883155  p :     2.670379
      px      :     0.882709
      py      :     0.904516
      dz2     :     0.036420  d :     0.150053
      dxz     :     0.029109
      dyz     :     0.022440
      dx2y2   :     0.027155
      dxy     :     0.034930
      f0      :     0.001851  f :     0.010350
      f+1     :     0.001750
      f-1     :     0.001258
      f+2     :     0.000940
      f-2     :     0.001110
      f+3     :     0.001679
      f-3     :     0.001761
  1 C s       :     3.208198  s :     3.208198
      pz      :     1.007633  p :     2.849980
      px      :     0.907871
      py      :     0.934476
      dz2     :     0.029535  d :     0.109455
      dxz     :     0.015624
      dyz     :     0.017021
      dx2y2   :     0.024149
      dxy     :     0.023126
      f0      :     0.001410  f :     0.007147
      f+1     :     0.000651
      f-1     :     0.000674
      f+2     :     0.000830
      f-2     :     0.000560
      f+3     :     0.001699
      f-3     :     0.001322
  2 C s       :     3.225101  s :     3.225101
      pz      :     0.975449  p :     2.716925
      px      :     0.934902
      py      :     0.806574
      dz2     :     0.021625  d :     0.146368
      dxz     :     0.018906
      dyz     :     0.045616
      dx2y2   :     0.031201
      dxy     :     0.029021
      f0      :     0.001658  f :     0.010346
      f+1     :     0.000826
      f-1     :     0.001318
      f+2     :     0.001783
      f-2     :     0.000586
      f+3     :     0.002052
      f-3     :     0.002123
  3 C s       :     3.200955  s :     3.200955
      pz      :     0.971335  p :     2.688028
      px      :     0.798973
      py      :     0.917720
      dz2     :     0.028751  d :     0.151544
      dxz     :     0.027305
      dyz     :     0.032464
      dx2y2   :     0.031392
      dxy     :     0.031632
      f0      :     0.001861  f :     0.010753
      f+1     :     0.001148
      f-1     :     0.001066
      f+2     :     0.000531
      f-2     :     0.001908
      f+3     :     0.002087
      f-3     :     0.002153
  4 N s       :     3.352236  s :     3.352236
      pz      :     1.734383  p :     3.762130
      px      :     1.011434
      py      :     1.016313
      dz2     :     0.004179  d :     0.071115
      dxz     :     0.008937
      dyz     :     0.008947
      dx2y2   :     0.024340
      dxy     :     0.024712
      f0      :     0.000659  f :     0.005307
      f+1     :     0.000907
      f-1     :     0.000876
      f+2     :     0.000334
      f-2     :     0.000389
      f+3     :     0.001070
      f-3     :     0.001071
  5 C s       :     3.247735  s :     3.247735
      pz      :     0.990852  p :     2.798024
      px      :     0.815854
      py      :     0.991318
      dz2     :     0.016591  d :     0.116479
      dxz     :     0.029352
      dyz     :     0.020811
      dx2y2   :     0.020251
      dxy     :     0.029475
      f0      :     0.001254  f :     0.008151
      f+1     :     0.000846
      f-1     :     0.001283
      f+2     :     0.001032
      f-2     :     0.000761
      f+3     :     0.001535
      f-3     :     0.001440
  6 H s       :     0.871595  s :     0.871595
      pz      :     0.007317  p :     0.029084
      px      :     0.009706
      py      :     0.012060
      dz2     :     0.000439  d :     0.002344
      dxz     :     0.000238
      dyz     :     0.000391
      dx2y2   :     0.000782
      dxy     :     0.000493
  7 H s       :     0.878233  s :     0.878233
      pz      :     0.012442  p :     0.029396
      px      :     0.008299
      py      :     0.008655
      dz2     :     0.000681  d :     0.002412
      dxz     :     0.000811
      dyz     :     0.000807
      dx2y2   :     0.000083
      dxy     :     0.000030
  8 C s       :     3.265595  s :     3.265595
      pz      :     0.979369  p :     2.928415
      px      :     0.943743
      py      :     1.005303
      dz2     :     0.031651  d :     0.091661
      dxz     :     0.012118
      dyz     :     0.005816
      dx2y2   :     0.016913
      dxy     :     0.025164
      f0      :     0.001271  f :     0.005242
      f+1     :     0.000982
      f-1     :     0.000169
      f+2     :     0.000549
      f-2     :     0.000467
      f+3     :     0.000819
      f-3     :     0.000984
  9 C s       :     3.272554  s :     3.272554
      pz      :     0.914125  p :     2.938114
      px      :     1.010503
      py      :     1.013485
      dz2     :     0.019117  d :     0.091994
      dxz     :     0.027038
      dyz     :     0.016752
      dx2y2   :     0.011779
      dxy     :     0.017309
      f0      :     0.001664  f :     0.005212
      f+1     :     0.001103
      f-1     :     0.000733
      f+2     :     0.000256
      f-2     :     0.000262
      f+3     :     0.000547
      f-3     :     0.000647
 10 H s       :     0.913753  s :     0.913753
      pz      :     0.010146  p :     0.022349
      px      :     0.007699
      py      :     0.004504
      dz2     :     0.000712  d :     0.002374
      dxz     :     0.000710
      dyz     :     0.000688
      dx2y2   :     0.000196
      dxy     :     0.000067
 11 H s       :     0.896020  s :     0.896020
      pz      :     0.007842  p :     0.024549
      px      :     0.010612
      py      :     0.006095
      dz2     :     0.000496  d :     0.002347
      dxz     :     0.000388
      dyz     :     0.000443
      dx2y2   :     0.000643
      dxy     :     0.000378
 12 H s       :     0.907907  s :     0.907907
      pz      :     0.011210  p :     0.024205
      px      :     0.006631
      py      :     0.006364
      dz2     :     0.000725  d :     0.002413
      dxz     :     0.000770
      dyz     :     0.000741
      dx2y2   :     0.000025
      dxy     :     0.000152
 13 H s       :     0.901270  s :     0.901270
      pz      :     0.006975  p :     0.025026
      px      :     0.006901
      py      :     0.011150
      dz2     :     0.000460  d :     0.002308
      dxz     :     0.000155
      dyz     :     0.000580
      dx2y2   :     0.000403
      dxy     :     0.000711
 14 H s       :     0.899038  s :     0.899038
      pz      :     0.008750  p :     0.023217
      px      :     0.005315
      py      :     0.009152
      dz2     :     0.000481  d :     0.002117
      dxz     :     0.000296
      dyz     :     0.000626
      dx2y2   :     0.000282
      dxy     :     0.000430
 15 H s       :     0.887024  s :     0.887024
      pz      :     0.008190  p :     0.025721
      px      :     0.008859
      py      :     0.008672
      dz2     :     0.000266  d :     0.002088
      dxz     :     0.000211
      dyz     :     0.000324
      dx2y2   :     0.000660
      dxy     :     0.000628
 16 H s       :     0.905717  s :     0.905717
      pz      :     0.009729  p :     0.021631
      px      :     0.005006
      py      :     0.006896
      dz2     :     0.000706  d :     0.002150
      dxz     :     0.000546
      dyz     :     0.000630
      dx2y2   :     0.000093
      dxy     :     0.000176
 17 H s       :     0.879270  s :     0.879270
      pz      :     0.012136  p :     0.026550
      px      :     0.007124
      py      :     0.007289
      dz2     :     0.000808  d :     0.002105
      dxz     :     0.000718
      dyz     :     0.000540
      dx2y2   :     0.000012
      dxy     :     0.000027
 18 H s       :     0.876780  s :     0.876780
      pz      :     0.007183  p :     0.026389
      px      :     0.011322
      py      :     0.007884
      dz2     :     0.000267  d :     0.002102
      dxz     :     0.000382
      dyz     :     0.000207
      dx2y2   :     0.000738
      dxy     :     0.000508
 19 H s       :     0.877285  s :     0.877285
      pz      :     0.007217  p :     0.026571
      px      :     0.008712
      py      :     0.010642
      dz2     :     0.000279  d :     0.002101
      dxz     :     0.000075
      dyz     :     0.000512
      dx2y2   :     0.000501
      dxy     :     0.000735
 20 H s       :     0.877814  s :     0.877814
      pz      :     0.008988  p :     0.026398
      px      :     0.009402
      py      :     0.008008
      dz2     :     0.000277  d :     0.002102
      dxz     :     0.000501
      dyz     :     0.000306
      dx2y2   :     0.000540
      dxy     :     0.000478
 21 H s       :     0.866540  s :     0.866540
      pz      :     0.011332  p :     0.027678
      px      :     0.009044
      py      :     0.007303
      dz2     :     0.000611  d :     0.002089
      dxz     :     0.000571
      dyz     :     0.000167
      dx2y2   :     0.000349
      dxy     :     0.000391
 22 H s       :     0.876864  s :     0.876864
      pz      :     0.009063  p :     0.026232
      px      :     0.007921
      py      :     0.009249
      dz2     :     0.000290  d :     0.002090
      dxz     :     0.000128
      dyz     :     0.000673
      dx2y2   :     0.000461
      dxy     :     0.000538


                     *******************************
                     * LOEWDIN POPULATION ANALYSIS *
                     *******************************

----------------------
LOEWDIN ATOMIC CHARGES
----------------------
   0 C :   -0.114568
   1 C :    0.068005
   2 C :   -0.027784
   3 C :   -0.013494
   4 N :    0.261295
   5 C :    0.020883
   6 H :   -0.019762
   7 H :   -0.017214
   8 C :    0.102397
   9 C :    0.106096
  10 H :   -0.042217
  11 H :   -0.032956
  12 H :   -0.036379
  13 H :   -0.026576
  14 H :   -0.030998
  15 H :   -0.022826
  16 H :   -0.041105
  17 H :   -0.023544
  18 H :   -0.021540
  19 H :   -0.021508
  20 H :   -0.023121
  21 H :   -0.019849
  22 H :   -0.023235

-------------------------------
LOEWDIN REDUCED ORBITAL CHARGES
-------------------------------
  0 C s       :     2.663955  s :     2.663955
      pz      :     0.932336  p :     2.783117
      px      :     0.926608
      py      :     0.924172
      dz2     :     0.140021  d :     0.603834
      dxz     :     0.120477
      dyz     :     0.097020
      dx2y2   :     0.112353
      dxy     :     0.133964
      f0      :     0.008010  f :     0.063662
      f+1     :     0.010991
      f-1     :     0.009489
      f+2     :     0.006902
      f-2     :     0.008480
      f+3     :     0.010254
      f-3     :     0.009535
  1 C s       :     2.667687  s :     2.667687
      pz      :     0.963781  p :     2.810382
      px      :     0.920280
      py      :     0.926321
      dz2     :     0.101962  d :     0.412741
      dxz     :     0.057530
      dyz     :     0.059411
      dx2y2   :     0.095519
      dxy     :     0.098318
      f0      :     0.005873  f :     0.041185
      f+1     :     0.004089
      f-1     :     0.003396
      f+2     :     0.006250
      f-2     :     0.005206
      f+3     :     0.007503
      f-3     :     0.008867
  2 C s       :     2.670131  s :     2.670131
      pz      :     0.975911  p :     2.753167
      px      :     0.932416
      py      :     0.844839
      dz2     :     0.087642  d :     0.540387
      dxz     :     0.069205
      dyz     :     0.159553
      dx2y2   :     0.116009
      dxy     :     0.107979
      f0      :     0.009140  f :     0.064099
      f+1     :     0.005000
      f-1     :     0.006362
      f+2     :     0.011301
      f-2     :     0.006953
      f+3     :     0.011233
      f-3     :     0.014111
  3 C s       :     2.667444  s :     2.667444
      pz      :     0.967912  p :     2.741078
      px      :     0.856435
      py      :     0.916731
      dz2     :     0.108958  d :     0.540423
      dxz     :     0.086969
      dyz     :     0.117837
      dx2y2   :     0.108272
      dxy     :     0.118388
      f0      :     0.008922  f :     0.064549
      f+1     :     0.007467
      f-1     :     0.004297
      f+2     :     0.005975
      f-2     :     0.012950
      f+3     :     0.013294
      f-3     :     0.011643
  4 N s       :     2.840091  s :     2.840091
      pz      :     1.480208  p :     3.601132
      px      :     1.060168
      py      :     1.060756
      dz2     :     0.019016  d :     0.278687
      dxz     :     0.035408
      dyz     :     0.035649
      dx2y2   :     0.093330
      dxy     :     0.095285
      f0      :     0.002438  f :     0.018795
      f+1     :     0.001914
      f-1     :     0.001713
      f+2     :     0.001857
      f-2     :     0.002007
      f+3     :     0.005476
      f-3     :     0.003390
  5 C s       :     2.677354  s :     2.677354
      pz      :     0.988434  p :     2.823768
      px      :     0.861328
      py      :     0.974006
      dz2     :     0.070646  d :     0.427260
      dxz     :     0.095778
      dyz     :     0.086471
      dx2y2   :     0.069579
      dxy     :     0.104788
      f0      :     0.006868  f :     0.050734
      f+1     :     0.006670
      f-1     :     0.004120
      f+2     :     0.009906
      f-2     :     0.005282
      f+3     :     0.009594
      f-3     :     0.008294
  6 H s       :     0.849861  s :     0.849861
      pz      :     0.043338  p :     0.143976
      px      :     0.045149
      py      :     0.055489
      dz2     :     0.005200  d :     0.025925
      dxz     :     0.003068
      dyz     :     0.005143
      dx2y2   :     0.006833
      dxy     :     0.005681
  7 H s       :     0.845911  s :     0.845911
      pz      :     0.072433  p :     0.144917
      px      :     0.036289
      py      :     0.036195
      dz2     :     0.009005  d :     0.026386
      dxz     :     0.008260
      dyz     :     0.008488
      dx2y2   :     0.000453
      dxy     :     0.000180
  8 C s       :     2.671629  s :     2.671629
      pz      :     0.961654  p :     2.879170
      px      :     0.944137
      py      :     0.973378
      dz2     :     0.107781  d :     0.318299
      dxz     :     0.047888
      dyz     :     0.018856
      dx2y2   :     0.059442
      dxy     :     0.084331
      f0      :     0.004449  f :     0.028506
      f+1     :     0.004663
      f-1     :     0.002164
      f+2     :     0.004714
      f-2     :     0.004262
      f+3     :     0.003856
      f-3     :     0.004398
  9 C s       :     2.671421  s :     2.671421
      pz      :     0.926195  p :     2.876235
      px      :     0.972168
      py      :     0.977872
      dz2     :     0.077525  d :     0.317869
      dxz     :     0.086107
      dyz     :     0.057637
      dx2y2   :     0.039471
      dxy     :     0.057130
      f0      :     0.005872  f :     0.028378
      f+1     :     0.004923
      f-1     :     0.005550
      f+2     :     0.004033
      f-2     :     0.003377
      f+3     :     0.002145
      f-3     :     0.002479
 10 H s       :     0.871509  s :     0.871509
      pz      :     0.071817  p :     0.144961
      px      :     0.036721
      py      :     0.036423
      dz2     :     0.008810  d :     0.025747
      dxz     :     0.007503
      dyz     :     0.007170
      dx2y2   :     0.001498
      dxy     :     0.000766
 11 H s       :     0.866686  s :     0.866686
      pz      :     0.051048  p :     0.140770
      px      :     0.047295
      py      :     0.042427
      dz2     :     0.006457  d :     0.025499
      dxz     :     0.004576
      dyz     :     0.004760
      dx2y2   :     0.005381
      dxy     :     0.004326
 12 H s       :     0.866284  s :     0.866284
      pz      :     0.074196  p :     0.144012
      px      :     0.032130
      py      :     0.037686
      dz2     :     0.009135  d :     0.026084
      dxz     :     0.007232
      dyz     :     0.008346
      dx2y2   :     0.000349
      dxy     :     0.001022
 13 H s       :     0.861284  s :     0.861284
      pz      :     0.047610  p :     0.139549
      px      :     0.031088
      py      :     0.060851
      dz2     :     0.005906  d :     0.025743
      dxz     :     0.001909
      dyz     :     0.006974
      dx2y2   :     0.004918
      dxy     :     0.006035
 14 H s       :     0.865338  s :     0.865338
      pz      :     0.054746  p :     0.140260
      px      :     0.031087
      py      :     0.054428
      dz2     :     0.007095  d :     0.025400
      dxz     :     0.003528
      dyz     :     0.006494
      dx2y2   :     0.003856
      dxy     :     0.004428
 15 H s       :     0.858994  s :     0.858994
      pz      :     0.037586  p :     0.138489
      px      :     0.046379
      py      :     0.054524
      dz2     :     0.002483  d :     0.025343
      dxz     :     0.003314
      dyz     :     0.005177
      dx2y2   :     0.007488
      dxy     :     0.006882
 16 H s       :     0.872268  s :     0.872268
      pz      :     0.068178  p :     0.143340
      px      :     0.032078
      py      :     0.043084
      dz2     :     0.008623  d :     0.025497
      dxz     :     0.006025
      dyz     :     0.007761
      dx2y2   :     0.001341
      dxy     :     0.001747
 17 H s       :     0.853405  s :     0.853405
      pz      :     0.071097  p :     0.144131
      px      :     0.036059
      py      :     0.036975
      dz2     :     0.009104  d :     0.026007
      dxz     :     0.008165
      dyz     :     0.008096
      dx2y2   :     0.000226
      dxy     :     0.000416
 18 H s       :     0.851450  s :     0.851450
      pz      :     0.037799  p :     0.144174
      px      :     0.057100
      py      :     0.049276
      dz2     :     0.003197  d :     0.025915
      dxz     :     0.005051
      dyz     :     0.002956
      dx2y2   :     0.008386
      dxy     :     0.006326
 19 H s       :     0.851426  s :     0.851426
      pz      :     0.037956  p :     0.144178
      px      :     0.039580
      py      :     0.066642
      dz2     :     0.003336  d :     0.025904
      dxz     :     0.001041
      dyz     :     0.006945
      dx2y2   :     0.006553
      dxy     :     0.008029
 20 H s       :     0.852708  s :     0.852708
      pz      :     0.037856  p :     0.144413
      px      :     0.055834
      py      :     0.050724
      dz2     :     0.003145  d :     0.026000
      dxz     :     0.005040
      dyz     :     0.003476
      dx2y2   :     0.008353
      dxy     :     0.005986
 21 H s       :     0.847426  s :     0.847426
      pz      :     0.047273  p :     0.146416
      px      :     0.059531
      py      :     0.039611
      dz2     :     0.005862  d :     0.026007
      dxz     :     0.006721
      dyz     :     0.002443
      dx2y2   :     0.004981
      dxy     :     0.006000
 22 H s       :     0.852610  s :     0.852610
      pz      :     0.038333  p :     0.144607
      px      :     0.040464
      py      :     0.065810
      dz2     :     0.003244  d :     0.026018
      dxz     :     0.001236
      dyz     :     0.007307
      dx2y2   :     0.006464
      dxy     :     0.007768


                      *****************************
                      * MAYER POPULATION ANALYSIS *
                      *****************************

  NA   - Mulliken gross atomic population
  ZA   - Total nuclear charge
  QA   - Mulliken gross atomic charge
  VA   - Mayer's total valence
  BVA  - Mayer's bonded valence
  FA   - Mayer's free valence

  ATOM       NA         ZA         QA         VA         BVA        FA
  0 C      5.9820     6.0000     0.0180     3.8086     3.8086     0.0000
  1 C      6.1748     6.0000    -0.1748     3.8709     3.8709     0.0000
  2 C      6.0987     6.0000    -0.0987     3.9531     3.9531    -0.0000
  3 C      6.0513     6.0000    -0.0513     3.9306     3.9306     0.0000
  4 N      7.1908     7.0000    -0.1908     2.9657     2.9657    -0.0000
  5 C      6.1704     6.0000    -0.1704     3.9340     3.9340     0.0000
  6 H      0.9030     1.0000     0.0970     0.9891     0.9891     0.0000
  7 H      0.9100     1.0000     0.0900     0.9866     0.9866    -0.0000
  8 C      6.2909     6.0000    -0.2909     3.8797     3.8797     0.0000
  9 C      6.3079     6.0000    -0.3079     3.8815     3.8815     0.0000
 10 H      0.9385     1.0000     0.0615     0.9586     0.9586    -0.0000
 11 H      0.9229     1.0000     0.0771     0.9702     0.9702    -0.0000
 12 H      0.9345     1.0000     0.0655     0.9719     0.9719    -0.0000
 13 H      0.9286     1.0000     0.0714     0.9719     0.9719    -0.0000
 14 H      0.9244     1.0000     0.0756     0.9682     0.9682     0.0000
 15 H      0.9148     1.0000     0.0852     0.9796     0.9796     0.0000
 16 H      0.9295     1.0000     0.0705     0.9624     0.9624    -0.0000
 17 H      0.9079     1.0000     0.0921     0.9845     0.9845     0.0000
 18 H      0.9053     1.0000     0.0947     0.9822     0.9822     0.0000
 19 H      0.9060     1.0000     0.0940     0.9823     0.9823     0.0000
 20 H      0.9063     1.0000     0.0937     0.9840     0.9840     0.0000
 21 H      0.8963     1.0000     0.1037     0.9796     0.9796     0.0000
 22 H      0.9052     1.0000     0.0948     0.9840     0.9840    -0.0000

  Mayer bond orders larger than 0.1
B(  0-C ,  1-C ) :   0.9502 B(  0-C ,  3-C ) :   0.9599 B(  0-C ,  8-C ) :   0.9592 
B(  0-C ,  9-C ) :   0.9474 B(  1-C ,  2-C ) :   0.9689 B(  1-C ,  6-H ) :   0.9904 
B(  1-C ,  7-H ) :   0.9907 B(  2-C ,  4-N ) :   1.0212 B(  2-C , 10-H ) :   0.9716 
B(  2-C , 11-H ) :   0.9790 B(  3-C ,  4-N ) :   1.0203 B(  3-C , 12-H ) :   0.9799 
B(  3-C , 13-H ) :   0.9708 B(  4-N ,  5-C ) :   0.9992 B(  5-C , 14-H ) :   0.9756 
B(  5-C , 15-H ) :   0.9826 B(  5-C , 16-H ) :   0.9706 B(  8-C , 17-H ) :   0.9832 
B(  8-C , 18-H ) :   0.9841 B(  8-C , 19-H ) :   0.9842 B(  9-C , 20-H ) :   0.9851 
B(  9-C , 21-H ) :   0.9823 B(  9-C , 22-H ) :   0.9857 

-------
TIMINGS
-------

Total SCF time: 0 days 0 hours 0 min 42 sec 

Total time                  ....      42.525 sec
Sum of individual times     ....      42.077 sec  ( 98.9%)

Fock matrix formation       ....      40.721 sec  ( 95.8%)
Diagonalization             ....       0.227 sec  (  0.5%)
Density matrix formation    ....       0.026 sec  (  0.1%)
Population analysis         ....       0.103 sec  (  0.2%)
Initial guess               ....       0.411 sec  (  1.0%)
Orbital Transformation      ....       0.000 sec  (  0.0%)
Orbital Orthonormalization  ....       0.000 sec  (  0.0%)
DIIS solution               ....       0.000 sec  (  0.0%)
SOSCF solution              ....       0.287 sec  (  0.7%)


           ************************************************************
           *        Program running with 8 parallel MPI-processes     *
           *              working on a common directory               *
           ************************************************************


------------------------------------------------------------------------------- 
                              ORCA-MATRIX DRIVEN CI                            
------------------------------------------------------------------------------- 


Wavefunction type
-----------------
Correlation treatment                      ...      CCSD     
Single excitations                         ... ON
Orbital optimization                       ... OFF
Calculation of Z vector                    ... OFF
Calculation of Brueckner orbitals          ... OFF
Perturbative triple excitations            ... ON
Calculation of F12 correction              ... OFF
Frozen core treatment                      ... chemical core (16 el)
Reference Wavefunction                     ... RHF
  Internal Orbitals:     8 ...   31 ( 24 MO's/ 48 electrons)
  Virtual  Orbitals:    32 ...  449 (418 MO's              )
Number of AO's                             ...    450
Number of electrons                        ...     64
Number of correlated electrons             ...     48

Algorithmic settings
--------------------
Integral transformation                    ... All integrals via the RI transformation
K(C) Formation                             ... RI-DLPNO
   PNO-Integral Storage                    ... ON DISK
   PNO occupation number cut-off           ... 1.000e-07
   Singles PNO occupation number cut-off   ... 3.000e-09
   PNO Mulliken prescreening cut-off       ... 1.000e-03
   Domain cut-off (Mulliken population)    ... 1.000e-03
   PNO Normalization                       ...    1
Maximum number of iterations               ...        50
Convergence tolerance (max. residuum)      ... 1.000e-05
Level shift for amplitude update           ... 2.000e-01
Maximum number of DIIS vectors             ...         7
DIIS turned on at iteration                ...         0
Damping before turning on DIIS             ...     0.500
Damping after turning on DIIS              ...     0.000
Pair specific amplitude update             ... OFF
Natural orbital iterations                 ... OFF
Perturbative natural orbital generation    ... OFF
Printlevel                                 ... 2

Singles Fock matrix elements calculated using PNOs.

Memory handling:
----------------
Maximum memory for working arrays          ...   8000 MB
Data storage in matrix containers          ... UNCOMPRESSED
Data type for integral storage             ... DOUBLE
In-Core Storage of quantities:
   Amplitudes+Sigma Vector      ... NO
   J+K operators                ... NO
   DIIS vectors                 ... NO
   3-external integrals         ... NO
   4-external integrals         ... NO

Localization treatment:
-----------------------
Localization option                        ...    6
Localization threshhold                    ... -1.0e+00
Using relative localization threshhold     ... 1.0e-08
Neglect threshold for strong pairs         ... 1.000e-05 Eh
Prescreening threshold for very weak pairs ... 1.000e-07 Eh

Initializing the integral package          ... done
Localizing the valence orbitals
------------------------------------------------------------------------------
                           ORCA ORBITAL LOCALIZATION
------------------------------------------------------------------------------

Input orbitals are from                  ... 3_3_Dimethyl_N_methylpyrrolidine_NI.proc0.gbw
Output orbitals are to                   ... 3_3_Dimethyl_N_methylpyrrolidine_NI.proc0.loc
Max. number of iterations                ... 128
Localizations seeded randomly            ... off
Convergence tolerance                    ... 1.000e-06
Using relative localization threshhold   ... 1.000e-08
Treshold for strong local MOs            ... 9.500e-01
Treshold for bond MOs                    ... 8.500e-01
Operator                                 ... 0
Orbital range for localization           ... 8 to 31
Localization criterion                   ... FOSTER-BOYS (AUGMENTED HESSIAN)
Doing the dipole integrals     ... o.k.
Initial value of the localization sum :   303.914715
ITERATION   0 : L=  374.8238352636 DL=  7.09e+01 (AVERGE_DL)=    0.5068699055 
ITERATION   1 : L=  384.0749849468 DL=  9.25e+00 (AVERGE_DL)=    0.1830810156 
ITERATION   2 : L=  384.2706798742 DL=  1.96e-01 (AVERGE_DL)=    0.0266277974 
ITERATION   3 : L=  384.2715035833 DL=  8.24e-04 (AVERGE_DL)=    0.0017275570 
ITERATION   4 : L=  384.2716624837 DL=  1.59e-04 (AVERGE_DL)=    0.0007587662 
ITERATION   5 : L=  384.2717129349 DL=  5.05e-05 (AVERGE_DL)=    0.0004275442 
ITERATION   6 : L=  384.2717293453 DL=  1.64e-05 (AVERGE_DL)=    0.0002438403 
ITERATION   7 : L=  384.2717347180 DL=  5.37e-06 (AVERGE_DL)=    0.0001395216 
ITERATION   8 : L=  384.2717364813 DL=  1.76e-06 (AVERGE_DL)=    0.0000799289 
ITERATION   9 : L=  384.2717370617 DL=  5.80e-07 (AVERGE_DL)=    0.0000458574 
LOCALIZATION SUM CONVERGED

------------------------------------------------------
AUGMENTED HESSIAN OPTIMIZATION OF FOSTER-BOYS ORBITALS
------------------------------------------------------

Spin operator:           0
Orbital window:          8 to 31
Number of iterations:    128
Gradient tolerance:      1.000e-06
Number of pairs:         276
[...]
Number of PAOs:     450
Basis functions:    450 (170 shells)
Aux. functions:    1098 (334 shells)

Processing maps (0.0 sec)
Average map sizes:
   Aux shells -> MOs              24.0
   Aux shells -> PAOs            450.0
   MOs        -> AO shells       162.2
   PAOs       -> AO shells       169.6

Calculating integrals (1.4 sec, 90.485 MB)
Sorting integrals (0.2 sec, 90.473 MB)
Total time for the integral transformation: 1.6 sec
--------------------------------
INITIAL GUESS AND PNO GENERATION
--------------------------------

PNO truncation parameters                   .... 
    ScaleTCutPNO       =        1.000e-02
    PAOOverlapThresh   =        1.000e-08

    TCutPairs          =        1.000e-05
    TCutPNO            =        1.000e-07
    TCutPNOSingles     =        3.000e-09
    TCutMP2Pairs       =        1.000e-06
    TCutMKN            =        1.000e-03
    TCutDO             =        5.000e-03

Pair selection                          .... not used
Type of local MP2 treatment                 .... full local PMP2
Strategy for PNO selection                  .... occupation number selection
Pair density normalization                  .... MP2 norm
Spin component scaling                      .... not used

PASS-1: Formation of initial guess LMP2 amplitudes
Initial amplitudes guess done. Entering LMP2 iteration loop:
   Max. no of iterations          ...  50
   Energy convergence tolerance   ...    1.0e-07
   Residual convergence tolerance ...    5.0e-07
   Fock matrix cutoff             ...    1.0e-05 Eh
   DIIS convergence acceleration parameters:
        Max # vectors in DIIS     ... 7
        Start iteration of DIIS   ... 0
        Levelshift                ... 2.000e-01
        Damping factor 1          ... 5.000e-01
        Damping factor 2          ... 1.000e+00
   L-MP2 PNO cut-off              ...   1.0e-09
   L-MP2 PNO cut-off (core)       ...   1.0e-11
                           *** Turning on DIIS ***
LMP2-Iter=   0:  ELMP2= -1.417528923046  DE=   2.4e-02 RMAX=   3.5e-03
LMP2-Iter=   1:  ELMP2= -1.429879976819  DE=   1.2e-02 RMAX=   1.3e-03
LMP2-Iter=   2:  ELMP2= -1.431672482816  DE=   1.8e-03 RMAX=   1.8e-04
LMP2-Iter=   3:  ELMP2= -1.431813316626  DE=   1.4e-04 RMAX=   5.5e-05
LMP2-Iter=   4:  ELMP2= -1.431815341317  DE=   2.0e-06 RMAX=   1.0e-05
LMP2-Iter=   5:  ELMP2= -1.431814099609  DE=   1.2e-06 RMAX=   2.5e-06
LMP2-Iter=   6:  ELMP2= -1.431814027315  DE=   7.2e-08 RMAX=   5.4e-07
LMP2-Iter=   7:  ELMP2= -1.431814034522  DE=   7.2e-09 RMAX=   1.0e-07
LMP2-Iter=   8:  ELMP2= -1.431814036172  DE=   1.6e-09 RMAX=   1.8e-08 => CONVERGED
PASS-2: Formation of Pair natural orbitals
   .... Finished loop over pairs

 PNO Occupation Number Statistics: 
  | Av. % of trace(Dij) retained        ...  99.325645278791
  | sigma^2 in % of trace(Dij) retained ...   7.44e-01
  | Av. % of trace(Di) retained         ...  99.999677267920
  | sigma^2 in % of trace(Di) retained  ...   1.85e-08
 Distributions of % trace(Dij) recovered:
  |       >= 99.9  ...    78 ( 26.0 % of all pairs)
  |   [90.0, 99.0) ...    57 ( 19.0 % of all pairs)
  |   [99.0, 99.9) ...   165 ( 55.0 % of all pairs)
 Distributions of % trace(Di) recovered :
  |       >= 99.9  ...    24 (100.0 % of all I-pairs )

Making pair pair interaction lists          ... done

                       ===========================
                        292 OF  300 PAIRS ARE KEPT
                       ===========================

Total time spent in the initial guess                 ...    41.615 sec
L-MP2 correlation energy (all non-screened pairs)     ...      -1.431814036172 Eh
L-MP2 PNO error correction                            ...      -0.000043665269 Eh
                                                          --------------------
Initial total L-MP2 energy (non-screened pairs)       ...      -1.431857701441 Eh

Initial PNO correlation energy                        ...      -1.430143648976 Eh
sum of pair energies estimated for screened out pairs ...       0.000000000000 Eh
sum of MP2 pair energies for pairs that were not kept ...      -0.000077902179 Eh
sum of PNO error estimates for the kept pairs         ...      -0.001676482790 Eh
                                                          --------------------
sum of all corrections                                         -0.001754384969
Initial total correlation energy                               -1.431898033945
Thresholds for map construction and integral transformation for fine MP2 and CCSD(T) calculation:
   TCutMKN   ...     1.0e-03
   TCutDO    ...     5.0e-03
   TCutPairs ...     1.0e-05
   TCutCMO   ...     1.0e-03
   TCutCPAO  ...     1.0e-03

Time for aux screen maps:            0.008
Time for maps after fine MP2:            0.024
-----------------------------
LOCAL RI TRANSFORMATION (IJV)
-----------------------------

Orbital window:       8 to 31
Basis functions:    450 (170 shells)
Aux. functions:    1098 (334 shells)

Processing maps (0.0 sec)
Average map sizes:
   Aux shells -> MOs(i)           24.0
   Aux shells -> MOs(j)           24.0
   MOs        -> AO shells       162.2

Calculating integrals (1.1 sec, 4.838 MB)
Sorting integrals (0.0 sec, 4.825 MB)
Total time for the integral transformation: 1.1 sec
--------------------------------
LOCAL RI TRANSFORMATION (VABPAO)
--------------------------------

Number of PAOs:     450
Basis functions:    450 (170 shells)
Aux. functions:    1098 (334 shells)

Processing maps (0.0 sec)
Average map sizes:
   Aux shells -> PAOs            450.0
   PAOs       -> AO shells       169.6

Calculating integrals (5.0 sec, 3194.985 MB)
Finished


-------------------------------------
Pair Pair Term precalculation with     
RI-(ij|mn) and (im|jn) transformation  
ON THE FLY                             
-------------------------------------

   IBatch   1 (of   3)              ... done (   81.000 sec)
   IBatch   2 (of   3)              ... done (   72.737 sec)
   IBatch   3 (of   3)              ... done (   36.311 sec)
Total EXT                           ...         190.049 sec

---------------------
RI-PNO TRANSFORMATION
---------------------

Total Number of PNOs                   ... 12032
Average number of PNOs per pair        ...    41
Maximal number of PNOs per pair        ...    74
   #pairs with  1 -  5 PNOs   :    0
   #pairs with  6 - 10 PNOs   :   10
   #pairs with 11 - 15 PNOs   :   21
   #pairs with 16 - 20 PNOs   :   16
   #pairs with 21 - 25 PNOs   :    9
   #pairs with 26 - 30 PNOs   :   43
   #pairs with 31 - 35 PNOs   :   29
   #pairs with 36 - 40 PNOs   :   18
   #pairs with 41 - 45 PNOs   :    8
   #pairs with 46 - 50 PNOs   :   33
   #pairs with 51 - 55 PNOs   :   38
   #pairs with 56 - 60 PNOs   :    3
   #pairs with 61 - 65 PNOs   :   25
   #pairs with 66 - 70 PNOs   :   31
   #pairs with 71 - 75 PNOs   :    8

Generation of (ij|ab)[P] integrals            ... on
Generation of (ia|bc)[P],(ja|bc)[P] integrals ... on
Storage of 3 and 4 external integrals         ... on
Generation of ALL (ka|bc)[P] integrals        ... on
Keep RI integrals in memory                   ... off

Ibatch:  1 (of  1)
Starting 2-4 index PNO integral generation ... done

Timings:
Total PNO integral transformation time     ...        102.018 sec
Size of the 3-external file                ...       252 MB
Size of the 4-external file                ...      1874 MB
Size of the IKJL file                      ...         0 MB
Size of the all 3-external file            ...      3034 MB
Size of the 1-external file                ...         6 MB

Making pair/pair overlap matrices          ... done (    9.766 sec)
Size of the pair overlap file              ... 779 MB
Redoing the guess amplitudes               ... done (    0.025 sec)

-------------------------
FINAL STARTUP INFORMATION
-------------------------

E(0)                                       ...   -328.340994938
E(L-MP2)                                   ...     -1.431857701
E(L-MP2) including corrections             ...     -1.431898034
Initial E(tot)                             ...   -329.772892972
<T|T>                                      ...      0.408457505
Number of pairs included                   ... 292
Total number of pairs                      ... 300

------------------------------------------------
                  RHF COUPLED CLUSTER ITERATIONS
------------------------------------------------

Number of PNO amplitudes to be optimized   ...       594324
Number of non-PNO amplitudes               ...     51019408
Untruncated number of regular amplitudes   ...     52417200

Iter       E(tot)           E(Corr)          Delta-E          Residual     Time
  0   -329.734238912     -1.391489589      0.040368112      0.012891236   23.46
                           *** Turning on DIIS ***
  1   -329.799657065     -1.456907742     -0.065418153      0.004505956   23.74
  2   -329.837412793     -1.494663469     -0.037755727      0.001213717   23.73
  3   -329.844120311     -1.501370988     -0.006707518      0.000458690   23.81
  4   -329.845376311     -1.502626988     -0.001256000      0.000193653   23.78
  5   -329.845573203     -1.502823880     -0.000196892      0.000078449   23.86
  6   -329.845612123     -1.502862800     -0.000038919      0.000040867   23.80
  7   -329.845617133     -1.502867810     -0.000005010      0.000019198   23.79
  8   -329.845618565     -1.502869242     -0.000001432      0.000008280   23.80
               --- The Coupled-Cluster iterations have converged ---

----------------------
COUPLED CLUSTER ENERGY
----------------------

E(0)                                       ...   -328.340994938
E(CORR)(strong-pairs)                      ...     -1.502869242
E(CORR)(weak-pairs)                        ...     -0.001754385
E(CORR)(corrected)                         ...     -1.504623626
E(TOT)                                     ...   -329.845618565
Singles Norm <S|S>**1/2                    ...      0.061383472  
T1 diagnostic                              ...      0.008859941  

------------------
LARGEST AMPLITUDES
------------------
  19-> 32  19-> 32       0.030142
  16-> 32  16-> 32       0.029542
  30-> 32  30-> 32       0.029421
  21-> 32  21-> 32       0.029337
  25-> 32  25-> 32       0.028865
  20-> 32  20-> 32       0.028842
  22-> 32  22-> 32       0.028837
  21-> 39  21-> 39       0.028692
  18-> 42  18-> 42       0.028672
  28-> 32  28-> 32       0.028603
  29-> 32  29-> 32       0.028573
  15-> 32  15-> 32       0.028569
  31-> 32  31-> 32       0.028560
  26-> 32  26-> 32       0.028513
  27-> 32  27-> 32       0.028459
  23-> 32  23-> 32       0.028170


-------------------------------------------
DLPNO BASED TRIPLES CORRECTION
-------------------------------------------

Singles multiplier          ...  1.000000
TCutTNO                     ... 1.000e-09
TCutMP2Pairs                ... 1.000e-06
TCutDOStrong                ... 1.000e-02
TCutMKNStrong               ... 1.000e-02
TCutDOWeak                  ... 2.000e-02
TCutMKNWeak                 ... 1.000e-01

Fragment selection                          .... not used
Number of Triples that are to be computed   ...      2546

 . . . . . . . . .
10% done  
20% done  
30% done  
40% done  
50% done  
60% done  
70% done  
80% done  
90% done               (    604.344 sec)
Triples timings:
Total time for T0               ...   642.079 sec
Total time for Iterative (T)    ...     0.000 sec
Total time of overall (T)       ...   784.967 sec

Triples List generation         ...     0.000 sec
TNO generation                  ...    37.714 sec
Pair density generation         ...     0.007 sec
Look up tables                  ...     0.000 sec
Generating 3-index integrals    ...   474.774 sec
  Make 4-ind.int. from 3-ind.int...    36.079 sec
  Projecting amplitudes (D + S) ...    46.378 sec
  Downprojecting integrals      ...     0.006 sec
  Energy contr. (sum over a,b,c)...    13.320 sec
Fitting ET(->0)                 ...     0.000 sec

Everything after 3-index        ...   129.571 sec

Timing details:
 TNO integrals                  ...   495.913 sec
   Reading 3-index integrals    ...    24.102 sec
   Sorting integrals            ...    43.244 sec
       Sorting integrals 1      ...     0.003 sec
       Sorting integrals 2      ...    26.749 sec
       Sorting integrals 3      ...     1.745 sec
       Sorting integrals 4      ...     0.078 sec
       Sorting integrals 5      ...     0.597 sec
       Sorting integrals 6      ...    14.072 sec
   Calculating local VM**-1/2   ...     0.897 sec
   Orthogonal. integrals        ...     1.618 sec
   Multipl. 3-index integrals   ...   426.051 sec
   All concerning IRIab (w/TNO) ...    18.501 sec

 Calculate W0/W1                ...    33.771 sec
 W 3-ext contribution           ...    17.926 sec
 W 3-int contribution           ...     5.318 sec
 Sorting W                      ...    10.064 sec

 V exchange contribution        ...     4.239 sec

 Timings for Triples without generation
     of 3-index integrals       ...   129.565 sec
       0 weak pairs             ...   126.458 sec
       1 weak pair              ...     3.107 sec
       2 weak pairs             ...     0.000 sec
       3 weak pairs             ...     0.000 sec
  Extra time for extrapolation  ...     0.000 sec

Number of Triples   (0, 1, 2, 3 weak pairs; overall):   2398     148       0       0  (  2546)
Number of Atoms     (0, 1, 2, 3 weak pairs; overall):   21.2    18.5     0.0     0.0  (    23)
Number of PAOs      (0, 1, 2, 3 weak pairs; overall):  422.6   381.9     0.0     0.0  (   450)
Number of AuxFcns   (0, 1, 2, 3 weak pairs; overall):  411.8   342.5     0.0     0.0  (  1098)
Number of TNOs      (0, 1, 2, 3 weak pairs         ):  103.4    66.5     0.0     0.0
Aver. Number of NTNO, Atoms, PAOs, AuxFcns / Triples:   2546   101.2    21.1   420.2   407.7

Triples Correction (T)                     ...     -0.060866948
Final correlation energy                   ...     -1.565490574
E(CCSD)                                    ...   -329.845618565
E(CCSD(T))                                 ...   -329.906485513


Maximum memory used throughout the entire calculation: 7824.4 MB


------------------------------------------------------------------------------- 
                                     TIMINGS                                   
------------------------------------------------------------------------------- 


Total execution time                   ...     1368.718 sec

Localization of occupied MO's          ...        0.789 sec (  0.1%)
Fock Matrix Formation                  ...        4.983 sec (  0.4%)
Global overlap, Fock, MKN matrices     ...        0.279 sec (  0.0%)
Differential overlap integrals         ...        0.233 sec (  0.0%)
Organizing maps                        ...        0.079 sec (  0.0%)
RI 3-index integral generations        ...        9.308 sec (  0.7%)
RI-PNO integral transformation         ...      303.655 sec ( 22.2%)
Initial Guess                          ...       47.551 sec (  3.5%)
DIIS Solver                            ...        2.574 sec (  0.2%)
State Vector Update                    ...        0.040 sec (  0.0%)
Sigma-vector construction              ...      213.422 sec ( 15.6%)
  <D|H|D>(0-ext)                       ...        5.070 sec (  2.4% of sigma)
  <D|H|D>(2-ext Fock)                  ...        0.017 sec (  0.0% of sigma)
  <D|H|D>(2-ext)                       ...       33.619 sec ( 15.8% of sigma)
  <D|H|D>(4-ext)                       ...       17.578 sec (  8.2% of sigma)
  <D|H|D>(4-ext-corr)                  ...      111.128 sec ( 52.1% of sigma)
  CCSD doubles correction              ...        0.296 sec (  0.1% of sigma)
  <S|H|S>                              ...        1.206 sec (  0.6% of sigma)
  <S|H|D>(1-ext)                       ...        0.591 sec (  0.3% of sigma)
  <D|H|S>(1-ext)                       ...        0.016 sec (  0.0% of sigma)
  <S|H|D>(3-ext)                       ...        0.640 sec (  0.3% of sigma)
  Fock-dressing                        ...       25.429 sec ( 11.9% of sigma)
  Singles amplitudes                   ...        0.819 sec (  0.4% of sigma)
  (ik|jl)-dressing                     ...        3.760 sec (  1.8% of sigma)
  (ij|ab),(ia|jb)-dressing             ...        3.361 sec (  1.6% of sigma)
  Pair energies                        ...        0.010 sec (  0.0% of sigma)
Total Time for computing (T)           ...      785.521 sec ( 57.4% of ALL)


-------------------------   --------------------
FINAL SINGLE POINT ENERGY      -329.906485512547
-------------------------   --------------------


                            ***************************************
                            *     ORCA property calculations      *
                            ***************************************

                                    ---------------------
                                    Active property flags
                                    ---------------------
   (+) Dipole Moment


------------------------------------------------------------------------------
                       ORCA ELECTRIC PROPERTIES CALCULATION
------------------------------------------------------------------------------

Dipole Moment Calculation                       ... on
Quadrupole Moment Calculation                   ... off
Polarizability Calculation                      ... off
GBWName                                         ... 3_3_Dimethyl_N_methylpyrrolidine_NI.gbw
Electron density file                           ... 3_3_Dimethyl_N_methylpyrrolidine_NI.scfp.tmp
The origin for moment calculation is the CENTER OF MASS  = ( 0.024273,  0.010873 -0.012411)

-------------
DIPOLE MOMENT
-------------
                                X             Y             Z
Electronic contribution:      1.51414       0.73482      -0.81576
Nuclear contribution   :     -1.55353      -0.69585       0.79426
                        -----------------------------------------
Total Dipole Moment    :     -0.03940       0.03897      -0.02150
                        -----------------------------------------
Magnitude (a.u.)       :      0.05944
Magnitude (Debye)      :      0.15109



--------------------
Rotational spectrum 
--------------------
 
Rotational constants in cm-1:     0.114985     0.049197     0.045937 
Rotational constants in MHz :  3447.164852  1474.898916  1377.145317 

 Dipole components along the rotational axes: 
x,y,z [a.u.] :    -0.039314    -0.039182    -0.021269 
x,y,z [Debye]:    -0.099929    -0.099593    -0.054063 

 

Timings for individual modules:

Sum of individual times         ...     1419.217 sec (=  23.654 min)
GTO integral calculation        ...        0.952 sec (=   0.016 min)   0.1 %
SCF iterations                  ...       42.667 sec (=   0.711 min)   3.0 %
MDCI module                     ...     1375.597 sec (=  22.927 min)  96.9 %
                             ****ORCA TERMINATED NORMALLY****
TOTAL RUN TIME: 0 days 0 hours 23 minutes 40 seconds 112 msec
3_3_Dimethyl_N_methylpyrrolidine_NI.gbw -> /home1/pantazis/klk/xyz/Energy_barrier/3_3_Dimethyl_N_methylpyrrolidine_NI.gbw
3_3_Dimethyl_N_methylpyrrolidine_NI.job -> /home1/pantazis/klk/xyz/Energy_barrier/3_3_Dimethyl_N_methylpyrrolidine_NI.job
3_3_Dimethyl_N_methylpyrrolidine_NI.loc -> /home1/pantazis/klk/xyz/Energy_barrier/3_3_Dimethyl_N_methylpyrrolidine_NI.loc
3_3_Dimethyl_N_methylpyrrolidine_NI.nodes -> /home1/pantazis/klk/xyz/Energy_barrier/3_3_Dimethyl_N_methylpyrrolidine_NI.nodes
3_3_Dimethyl_N_methylpyrrolidine_NI.prop -> /home1/pantazis/klk/xyz/Energy_barrier/3_3_Dimethyl_N_methylpyrrolidine_NI.prop
3_3_Dimethyl_N_methylpyrrolidine_NI_property.txt -> /home1/pantazis/klk/xyz/Energy_barrier/3_3_Dimethyl_N_methylpyrrolidine_NI_property.txt
3_3_Dimethyl_N_methylpyrrolidine_NI.xyz -> /home1/pantazis/klk/xyz/Energy_barrier/3_3_Dimethyl_N_methylpyrrolidine_NI.xyz
cp: cannot stat 3_3_Dimethyl_N_methylpyrrolidine_NI.asa.inp: No such file or directory
