! Job execution by suborca V 6.07 on ZEUS !
Job started from zeus1, running /scratch/pantazis/3_methylthiane_eq__BS4lIc/orca/orca copied from /opt/orca on zeussn126 in /scratch/pantazis/3_methylthiane_eq__BS4lIc
Job execution start: Thu Jun 27 11:08:19 CEST 2019
Shared library path: /scratch/pantazis/3_methylthiane_eq__BS4lIc/orca:/opt/openmpi_1.10.2/lib:/opt/intel/mkl/lib/intel64:/opt/intel/lib/intel64:
PBS Job ID is: 157990.icqc
izeussn126
izeussn126
izeussn126
izeussn126
izeussn126
izeussn126
izeussn126
izeussn126

                                 *****************
                                 * O   R   C   A *
                                 *****************

           --- An Ab Initio, DFT and Semiempirical electronic structure package ---

                  #######################################################
                  #                        -***-                        #
                  #          Department of theory and spectroscopy      #
                  #               Directorship: Frank Neese             #
                  #        Max Planck Institute fuer Kohlenforschung    #
                  #                Kaiser Wilhelm Platz 1               #
                  #                 D-45470 Muelheim/Ruhr               #
                  #                      Germany                        #
                  #                                                     #
                  #                  All rights reserved                #
                  #                        -***-                        #
                  #######################################################


                         Program Version 4.1.x  -  STABLE  -
                                (SVN: $Rev: 14094$)
                ($Date: 2019-06-14 15:01:15 +0200 (Fri, 14 Jun 2019) $)

                         (BUILD: $Sun Jun 23 06:18:31 CEST 2019$)


 With contributions from (in alphabetic order):
   Daniel Aravena         : Magnetic Properties
   Michael Atanasov       : Ab Initio Ligand Field Theory
   Alexander A. Auer      : GIAO ZORA
   Ute Becker             : Parallelization
   Giovanni Bistoni       : ED, Open-shell LED
   Martin Brehm           : Molecular dynamics
   Dmytro Bykov           : SCF Hessian
   Vijay G. Chilkuri      : MRCI spin determinant printing
   Dipayan Datta          : RHF DLPNO-CCSD density
   Achintya Kumar Dutta   : EOM-CC, STEOM-CC
   Dmitry Ganyushin       : Spin-Orbit,Spin-Spin,Magnetic field MRCI
   Miquel Garcia          : C-PCM Hessian
   Yang Guo               : DLPNO-NEVPT2, CIM, IAO-localization
   Andreas Hansen         : Spin unrestricted coupled pair/coupled cluster methods
   Benjamin Helmich-Paris : CASSCF linear response (MC-RPA)
   Lee Huntington         : MR-EOM, pCC
   Robert Izsak           : Overlap fitted RIJCOSX, COSX-SCS-MP3, EOM
   Christian Kollmar      : KDIIS, OOCD, Brueckner-CCSD(T), CCSD density
   Simone Kossmann        : Meta GGA functionals, TD-DFT gradient, OOMP2, MP2 Hessian
   Martin Krupicka        : AUTO-CI
   Lucas Lang             : DCDCAS
   Dagmar Lenk            : GEPOL surface, SMD
   Dimitrios Liakos       : Extrapolation schemes; parallel MDCI
   Dimitrios Manganas     : ROCIS; embedding schemes
   Dimitrios Pantazis     : SARC Basis sets
   Taras Petrenko         : DFT Hessian,TD-DFT gradient, ASA, ECA, R-Raman, ABS, FL, XAS/XES, NRVS
   Peter Pinski           : DLPNO-MP2, DLPNO-MP2 Gradient
   Christoph Reimann      : Effective Core Potentials
   Marius Retegan         : Local ZFS, SOC
   Christoph Riplinger    : Optimizer, TS searches, QM/MM, DLPNO-CCSD(T), (RO)-DLPNO pert. Triples
   Tobias Risthaus        : Range-separated hybrids, TD-DFT gradient, RPA, STAB
   Michael Roemelt        : Restricted open shell CIS
   Masaaki Saitow         : Open-shell DLPNO
   Barbara Sandhoefer     : DKH picture change effects
   Avijit Sen             : IP-ROCIS
   Kantharuban Sivalingam : CASSCF convergence, NEVPT2, FIC-MRCI
   Bernardo de Souza      : ESD, SOC TD-DFT
   Georgi Stoychev        : AutoAux, RI-MP2 NMR
   Willem Van den Heuvel  : Paramagnetic NMR
   Boris Wezisla          : Elementary symmetry handling
   Frank Wennmohs         : Technical directorship


 We gratefully acknowledge several colleagues who have allowed us to
 interface, adapt or use parts of their codes:
   Stefan Grimme, W. Hujo, H. Kruse,             : VdW corrections, initial TS optimization,
                  C. Bannwarth                     DFT functionals, gCP, sTDA/sTD-DF
   Ed Valeev                                     : LibInt (2-el integral package), F12 methods
   Garnet Chan, S. Sharma, J. Yang, R. Olivares  : DMRG
   Ulf Ekstrom                                   : XCFun DFT Library
   Mihaly Kallay                                 : mrcc  (arbitrary order and MRCC methods)
   Andreas Klamt, Michael Diedenhofen            : otool_cosmo (COSMO solvation model)
   Jiri Pittner, Ondrej Demel                    : Mk-CCSD
   Frank Weinhold                                : gennbo (NPA and NBO analysis)
   Christopher J. Cramer and Donald G. Truhlar   : smd solvation model
   Lars Goerigk                                  : TD-DFT with DH, B97 family of functionals
   V. Asgeirsson, H. Jonsson                     : NEB implementation
   FAccTs GmbH                                   : IRC, NEB, NEB-TS, Multilevel


 Your calculation uses the libint2 library for the computation of 2-el integrals
 For citations please refer to: http://libint.valeyev.net

 This ORCA versions uses:
   CBLAS   interface :  Fast vector & matrix operations
   LAPACKE interface :  Fast linear algebra routines
   SCALAPACK package :  Parallel linear algebra routines




***************************************
The coordinates will be read from file: 3_methylthiane_eq.xyz
***************************************


----- Orbital basis set information -----
Your calculation utilizes the basis: cc-pVTZ 
       H, B-Ne : Obtained from the ccRepo (grant-hill.group.shef.ac.uk/ccrepo) Feb. 2017
                 T. H. Dunning, Jr., J. Chem. Phys. 90, 1007 (1989)
            He : Obtained from the ccRepo (grant-hill.group.shef.ac.uk/ccrepo) Feb. 2017
                 D. E. Woon, T. H. Dunning, Jr., J. Chem. Phys. 100, 2975 (1994)
  Li-Be, Na-Mg : Obtained from the ccRepo (grant-hill.group.shef.ac.uk/ccrepo) Feb. 2017
                 B. P. Prascher, D. E. Woon, K. A. Peterson, T. H. Dunning, Jr., A. K. Wilson, Theor. Chem. Acc. 128, 69 (2011)
         Al-Ar : Obtained from the ccRepo (grant-hill.group.shef.ac.uk/ccrepo) Feb. 2017
                 D. E. Woon, T. H. Dunning, Jr., J. Chem. Phys. 98, 1358 (1993)
            Ca : Obtained from the Peterson Research Group Website (tyr0.chem.wsu.edu/~kipeters) Feb. 2017
                 J. Koput, K. A. Peterson, J. Phys. Chem. 106, 9595 (2002)
         Sc-Zn : Obtained from the ccRepo (grant-hill.group.shef.ac.uk/ccrepo) Feb. 2017
                 N. B. Balabanov, K. A. Peterson, J. Chem. Phys. 123, 064107 (2005)
                 N. B. Balabanov, K. A. Peterson, J. Chem. Phys. 125, 074110 (2006)
         Ga-Kr : Obtained from the ccRepo (grant-hill.group.shef.ac.uk/ccrepo) Feb. 2017
                 A. K. Wilson, D. E. Woon, K. A. Peterson, T. H. Dunning, Jr., J. Chem. Phys. 110, 7667 (1999)
             Y : Obtained from the ccRepo (grant-hill.group.shef.ac.uk/ccrepo) Feb. 2017
                 K. A. Peterson, D. Figgen, M. Dolg, H. Stoll, J. Chem. Phys. 126, 124101 (2007)
        Ag, Au : Obtained from the Peterson Research Group Website (tyr0.chem.wsu.edu/~kipeters) Feb. 2017
                 K. A. Peterson, C. Puzzarini, Theor. Chem. Acc. 114, 283 (2005)

----- AuxC basis set information -----
Your calculation utilizes the auxiliary basis: cc-pVTZ/C 
  Obtained from the EMSL Basis Set Exchange (bse.pnl.gov) Feb. 2017
  H-He, B-F, Al-Ar, Ga-Kr : F. Weigend, A. Kohn, C. Hattig, J. Chem. Phys. 116, 3175 (2002)
             Li-Be, Na-Mg : C. Haettig, Phys. Chem. Chem. Phys. 7, 59 (2005)
                       Ne : C. Haettig, Phys. Chem. Chem. Phys. 7, 59 (2005)
                            F. Weigend, A. Kohn, C. Hattig, J. Chem. Phys. 116, 3175 (2002)
                    Sc-Zn : J. G. Hill, J. A. Platts, J. Chem. Phys. 128, 044104 (2008)

----- AuxJK basis set information -----
Your calculation utilizes the auxiliary basis: cc-pVTZ/JK 
  H, B-F, Al-Cl, Ga-Br : Obtained from the TURBOMOLE 7.0 basis set library

================================================================================
                                        WARNINGS
                       Please study these warnings very carefully!
================================================================================


WARNING: MDCI localization with Augmented Hessian Foster-Boys
  ===> : Switching off randomization!

WARNING: Post HF methods need fully converged wavefunctions
  ===> : Setting SCFConvForced true
         You can overwrite this default with %scf ConvForced false 


INFO   : the flag for use of LIBINT has been found!

================================================================================
                                       INPUT FILE
================================================================================
NAME = 3_methylthiane_eq.inp
|  1> ! RHF DLPNO-CCSD(T) cc-pVTZ RIJK cc-pVTZ/JK cc-pVTZ/C
|  2> ! KDIIS SOSCF TightSCF TightPNO
|  3> 
|  4> %pal nprocs 8 end
|  5> 
|  6> %maxcore 8000
|  7> 
|  8> %scf maxiter 300
|  9>      shift shift 0.2 erroff 0.1 end
| 10> end
| 11> 
| 12> * xyzfile 0 1 3_methylthiane_eq.xyz 
| 13> 
| 14> 
| 15>                          ****END OF INPUT****
================================================================================

                       ****************************
                       * Single Point Calculation *
                       ****************************

---------------------------------
CARTESIAN COORDINATES (ANGSTROEM)
---------------------------------
  C     -1.217350   -0.078200   -0.321960
  C     -0.744790    1.318110    0.126150
  C      0.711150    1.642020   -0.247200
  C      1.717820    0.661180    0.359680
  S      1.431330   -1.068530   -0.183350
  C     -0.342140   -1.189240    0.279580
  C     -2.692030   -0.303900    0.045880
  H      0.821920    1.639270   -1.338940
  H      0.956720    2.655940    0.097460
  H      1.686110    0.701030    1.455670
  H      2.739390    0.901080    0.050080
  H     -1.406160    2.076220   -0.312430
  H     -0.865360    1.398680    1.217700
  H     -0.426140   -1.187870    1.374430
  H     -1.119400   -0.136400   -1.415340
  H     -0.668270   -2.173280   -0.072300
  H     -2.839170   -0.263250    1.132390
  H     -3.329880    0.465230   -0.404450
  H     -3.047090   -1.280060   -0.303510

----------------------------
CARTESIAN COORDINATES (A.U.)
----------------------------
  NO LB      ZA    FRAG     MASS         X           Y           Z
   0 C     6.0000    0    12.011   -2.300458   -0.147777   -0.608416
   1 C     6.0000    0    12.011   -1.407449    2.490867    0.238389
   2 C     6.0000    0    12.011    1.343879    3.102968   -0.467140
   3 C     6.0000    0    12.011    3.246209    1.249449    0.679697
   4 S    16.0000    0    32.060    2.704822   -2.019229   -0.346481
   5 C     6.0000    0    12.011   -0.646551   -2.247338    0.528330
   6 C     6.0000    0    12.011   -5.087199   -0.574288    0.086701
   7 H     1.0000    0     1.008    1.553204    3.097771   -2.530230
   8 H     1.0000    0     1.008    1.807939    5.018999    0.184173
   9 H     1.0000    0     1.008    3.186286    1.324755    2.750818
  10 H     1.0000    0     1.008    5.176697    1.702794    0.094637
  11 H     1.0000    0     1.008   -2.657257    3.923487   -0.590407
  12 H     1.0000    0     1.008   -1.635293    2.643122    2.301120
  13 H     1.0000    0     1.008   -0.805288   -2.244749    2.597296
  14 H     1.0000    0     1.008   -2.115359   -0.257759   -2.674605
  15 H     1.0000    0     1.008   -1.262847   -4.106904   -0.136627
  16 H     1.0000    0     1.008   -5.365254   -0.497470    2.139907
  17 H     1.0000    0     1.008   -6.292561    0.879157   -0.764300
  18 H     1.0000    0     1.008   -5.758166   -2.418963   -0.573551

--------------------------------
INTERNAL COORDINATES (ANGSTROEM)
--------------------------------
 C      0   0   0     0.000000000000     0.00000000     0.00000000
 C      1   0   0     1.540713192583     0.00000000     0.00000000
 C      2   1   0     1.537552989071   114.25086076     0.00000000
 C      3   2   1     1.530926167031   113.04322440   300.38921685
 S      4   3   2     1.835444029411   112.57286142    60.00881871
 C      1   2   3     1.536962197746   111.50856785    58.55796382
 C      1   2   3     1.536531111953   110.96903540   181.92780565
 H      3   2   1     1.097348523943   109.67212463    62.31118054
 H      3   2   1     1.098694182610   109.26180633   179.26317498
 H      4   3   2     1.097172560129   110.71452129   297.74715471
 H      4   3   2     1.094079263536   111.18112693   178.24544535
 H      2   1   3     1.097494175565   108.96332717   122.36218042
 H      2   1   3     1.101140341782   108.72586487   237.74490186
 H      6   1   2     1.098068485751   110.22894466    63.13898827
 H      1   2   3     1.099300353361   108.05508420   300.65866055
 H      6   1   2     1.094767113545   110.75254960   181.83614656
 H      7   1   2     1.097181198435   111.12075968   298.03581837
 H      7   1   2     1.095997576777   110.92271109    57.72215754
 H      7   1   2     1.095914833050   111.43585209   177.82210376

---------------------------
INTERNAL COORDINATES (A.U.)
---------------------------
 C      0   0   0     0.000000000000     0.00000000     0.00000000
 C      1   0   0     2.911525984902     0.00000000     0.00000000
 C      2   1   0     2.905554065735   114.25086076     0.00000000
 C      3   2   1     2.893031186942   113.04322440   300.38921685
 S      4   3   2     3.468486549727   112.57286142    60.00881871
 C      1   2   3     2.904437631930   111.50856785    58.55796382
 C      1   2   3     2.903622997841   110.96903540   181.92780565
 H      3   2   1     2.073688183715   109.67212463    62.31118054
 H      3   2   1     2.076231110064   109.26180633   179.26317498
 H      4   3   2     2.073355660297   110.71452129   297.74715471
 H      4   3   2     2.067510176886   111.18112693   178.24544535
 H      2   1   3     2.073963425392   108.96332717   122.36218042
 H      2   1   3     2.080853680981   108.72586487   237.74490186
 H      6   1   2     2.075048714359   110.22894466    63.13898827
 H      1   2   3     2.077376606775   108.05508420   300.65866055
 H      6   1   2     2.068810025024   110.75254960   181.83614656
 H      7   1   2     2.073371984330   111.12075968   298.03581837
 H      7   1   2     2.071135263549   110.92271109    57.72215754
 H      7   1   2     2.070978900567   111.43585209   177.82210376

---------------------
BASIS SET INFORMATION
---------------------
There are 3 groups of distinct atoms

 Group   1 Type C   : 18s5p2d1f contracted to 4s3p2d1f pattern {8811/311/11/1}
 Group   2 Type S   : 41s16p2d1f contracted to 5s4p2d1f pattern {13131311/7711/11/1}
 Group   3 Type H   : 5s2p1d contracted to 3s2p1d pattern {311/11/1}

Atom   0C    basis set group =>   1
Atom   1C    basis set group =>   1
Atom   2C    basis set group =>   1
Atom   3C    basis set group =>   1
Atom   4S    basis set group =>   2
Atom   5C    basis set group =>   1
Atom   6C    basis set group =>   1
Atom   7H    basis set group =>   3
Atom   8H    basis set group =>   3
Atom   9H    basis set group =>   3
Atom  10H    basis set group =>   3
Atom  11H    basis set group =>   3
Atom  12H    basis set group =>   3
Atom  13H    basis set group =>   3
Atom  14H    basis set group =>   3
Atom  15H    basis set group =>   3
Atom  16H    basis set group =>   3
Atom  17H    basis set group =>   3
Atom  18H    basis set group =>   3
-------------------------------
AUXILIARY BASIS SET INFORMATION
-------------------------------
There are 3 groups of distinct atoms

 Group   1 Type C   : 8s6p5d3f1g contracted to 8s6p5d3f1g pattern {11111111/111111/11111/111/1}
 Group   2 Type S   : 10s8p7d5f2g contracted to 10s8p7d5f2g pattern {1111111111/11111111/1111111/11111/11}
 Group   3 Type H   : 4s3p2d1f contracted to 4s3p2d1f pattern {1111/111/11/1}

Atom   0C    basis set group =>   1
Atom   1C    basis set group =>   1
Atom   2C    basis set group =>   1
Atom   3C    basis set group =>   1
Atom   4S    basis set group =>   2
Atom   5C    basis set group =>   1
Atom   6C    basis set group =>   1
Atom   7H    basis set group =>   3
Atom   8H    basis set group =>   3
Atom   9H    basis set group =>   3
Atom  10H    basis set group =>   3
Atom  11H    basis set group =>   3
Atom  12H    basis set group =>   3
Atom  13H    basis set group =>   3
Atom  14H    basis set group =>   3
Atom  15H    basis set group =>   3
Atom  16H    basis set group =>   3
Atom  17H    basis set group =>   3
Atom  18H    basis set group =>   3
-------------------------------
AUXILIARY BASIS SET INFORMATION
-------------------------------
There are 3 groups of distinct atoms

 Group   1 Type C   : 10s7p5d2f1g contracted to 10s7p5d2f1g pattern {1111111111/1111111/11111/11/1}
 Group   2 Type S   : 13s11p9d3f1g contracted to 13s11p9d3f1g pattern {1111111111111/11111111111/111111111/111/1}
 Group   3 Type H   : 4s3p2d1f contracted to 4s3p2d1f pattern {1111/111/11/1}

Atom   0C    basis set group =>   1
Atom   1C    basis set group =>   1
Atom   2C    basis set group =>   1
Atom   3C    basis set group =>   1
Atom   4S    basis set group =>   2
Atom   5C    basis set group =>   1
Atom   6C    basis set group =>   1
Atom   7H    basis set group =>   3
Atom   8H    basis set group =>   3
Atom   9H    basis set group =>   3
Atom  10H    basis set group =>   3
Atom  11H    basis set group =>   3
Atom  12H    basis set group =>   3
Atom  13H    basis set group =>   3
Atom  14H    basis set group =>   3
Atom  15H    basis set group =>   3
Atom  16H    basis set group =>   3
Atom  17H    basis set group =>   3
Atom  18H    basis set group =>   3


           ************************************************************
           *        Program running with 8 parallel MPI-processes     *
           *              working on a common directory               *
           ************************************************************
------------------------------------------------------------------------------
                           ORCA GTO INTEGRAL CALCULATION
                           -- RI-GTO INTEGRALS CHOSEN --
------------------------------------------------------------------------------

                         BASIS SET STATISTICS AND STARTUP INFO

Gaussian basis set:
 # of primitive gaussian shells          ...  312
 # of primitive gaussian functions       ...  598
 # of contracted shells                  ...  144
 # of contracted basis functions         ...  382
 Highest angular momentum                ...    3
 Maximum contraction depth               ...   13
Auxiliary gaussian basis set:
 # of primitive gaussian shells          ...  307
 # of primitive gaussian functions       ...  955
 # of contracted shells                  ...  307
 # of contracted aux-basis functions     ...  955
 Highest angular momentum                ...    4
 Maximum contraction depth               ...    1
Ratio of auxiliary to basis functions    ...  2.50
Integral package used                  ... LIBINT
 One Electron integrals                  ... done
 Ordering auxiliary basis shells         ... done
 Integral threshhold             Thresh  ...  2.500e-11
 Primitive cut-off               TCut    ...  2.500e-12
 Pre-screening matrix                    ... done
 Shell pair data                         ... 
 Ordering of the shell pairs             ... done (   0.002 sec) 9954 of 10440 pairs
 Determination of significant pairs      ... done (   0.000 sec)
 Creation of shell pair data             ... done (   0.003 sec)
 Storage of shell pair data              ... done (   0.004 sec)
 Shell pair data done in (   0.008 sec)
 Computing two index integrals           ... done
 Cholesky decomposition of the V-matrix  ... done


Timings:
 Total evaluation time                   ...   0.795 sec (  0.013 min)
 One electron matrix time                ...   0.193 sec (  0.003 min) = 24.3%
 Schwartz matrix evaluation time         ...   0.394 sec (  0.007 min) = 49.6%
 Two index repulsion integral time       ...   0.085 sec (  0.001 min) = 10.7%
 Cholesky decomposition of V             ...   0.089 sec (  0.001 min) = 11.2%
 Three index repulsion integral time     ...   0.000 sec (  0.000 min) =  0.0%



           ************************************************************
           *        Program running with 8 parallel MPI-processes     *
           *              working on a common directory               *
           ************************************************************
-------------------------------------------------------------------------------
                                 ORCA SCF
-------------------------------------------------------------------------------

------------
SCF SETTINGS
------------
Hamiltonian:
 Ab initio Hamiltonian  Method          .... Hartree-Fock(GTOs)
 RI-approximation to the Coulomb term is turned on
   Number of auxiliary basis functions  .... 955
   RI-JK (J+K treated both via RI)      .... on


General Settings:
 Integral files         IntName         .... 3_methylthiane_eq
 Hartree-Fock type      HFTyp           .... RHF
 Total Charge           Charge          ....    0
 Multiplicity           Mult            ....    1
 Number of Electrons    NEL             ....   64
 Basis Dimension        Dim             ....  382
 Nuclear Repulsion      ENuc            ....    389.6993839848 Eh

Convergence Acceleration:
 DIIS                   CNVDIIS         .... off
 Newton-Raphson         CNVNR           .... off
 SOSCF                  CNVSOSCF        .... on
   Start iteration      SOSCFMaxIt      ....   150
   Startup grad/error   SOSCFStart      ....  0.003300
 Level Shifting         CNVShift        .... on
   Level shift para.    LevelShift      ....    0.2000
   Turn off err/grad.   ShiftErr        ....    0.1000
 Zerner damping         CNVZerner       .... off
 Static damping         CNVDamp         .... off
 Fernandez-Rico         CNVRico         .... off

SCF Procedure:
 Maximum # iterations   MaxIter         ....   300
 SCF integral mode      SCFMode         .... Direct
   Integral package                     .... LIBINT
 Reset frequency        DirectResetFreq ....    20
 Integral Threshold     Thresh          ....  2.500e-11 Eh
 Primitive CutOff       TCut            ....  2.500e-12 Eh

Convergence Tolerance:
 Convergence Check Mode ConvCheckMode   .... Total+1el-Energy
 Convergence forced     ConvForced      .... 1
 Energy Change          TolE            ....  1.000e-08 Eh
 1-El. energy change                    ....  1.000e-05 Eh
 Orbital Gradient       TolG            ....  1.000e-05
 Orbital Rotation angle TolX            ....  1.000e-05


Diagonalization of the overlap matrix:
Smallest eigenvalue                        ... 3.795e-04
Time for diagonalization                   ...    0.029 sec
Threshold for overlap eigenvalues          ... 1.000e-08
Number of eigenvalues below threshold      ... 0
Time for construction of square roots      ...    0.051 sec
Total time needed                          ...    0.081 sec

-------------------
DFT GRID GENERATION
-------------------

General Integration Accuracy     IntAcc      ...  4.340
Radial Grid Type                 RadialGrid  ... Gauss-Chebyshev
Angular Grid (max. acc.)         AngularGrid ... Lebedev-110
Angular grid pruning method      GridPruning ... 3 (G Style)
Weight generation scheme         WeightScheme... Becke
Basis function cutoff            BFCut       ...    1.0000e-11
Integration weight cutoff        WCut        ...    1.0000e-14
Grids for H and He will be reduced by one unit

# of grid points (after initial pruning)     ...  21270 (   0.0 sec)
# of grid points (after weights+screening)   ...  19381 (   0.0 sec)
nearest neighbour list constructed           ...    0.0 sec
Grid point re-assignment to atoms done       ...    0.0 sec
Grid point division into batches done        ...    0.0 sec
Reduced shell lists constructed in    0.1 sec

Total number of grid points                  ...    19381
Total number of batches                      ...      314
Average number of points per batch           ...       61
Average number of grid points per atom       ...     1020
Average number of shells per batch           ...   127.29 (88.40%)
Average number of basis functions per batch  ...   335.20 (87.75%)
Average number of large shells per batch     ...   103.17 (81.05%)
Average number of large basis fcns per batch ...   270.73 (80.77%)
Average number of aux-shells per batch       ...   127.29 (41.46%)
Average number of aux functions per batch    ...   335.20 (35.10%)
Maximum spatial batch extension              ...   2.21,  2.12,  2.59 au
Average spatial batch extension              ...   0.19,  0.19,  0.19 au

Time for grid setup =    0.181 sec

------------------------------
INITIAL GUESS: MODEL POTENTIAL
------------------------------
Loading Hartree-Fock densities                     ... done
Calculating cut-offs                               ... done
Setting up the integral package                    ... done
Initializing the effective Hamiltonian             ... done
Starting the Coulomb interaction                   ... done (   0.1 sec)
Reading the grid                                   ... done
Mapping shells                                     ... done
Starting the XC term evaluation                    ... done (   0.1 sec)
Transforming the Hamiltonian                       ... done (   0.0 sec)
Diagonalizing the Hamiltonian                      ... done (   0.0 sec)
Back transforming the eigenvectors                 ... done (   0.0 sec)
Now organizing SCF variables                       ... done
                      ------------------
                      INITIAL GUESS DONE (   0.5 sec)
                      ------------------
--------------
SCF ITERATIONS
--------------
ITER       Energy         Delta-E        Max-DP      RMS-DP      [F,P]   Gradient Norm
                             ****Turning on KDIIS(Cayley)****
  0   -631.4542567925   0.000000000000 0.01804293  0.00024602  0.0908196   0.138068282
  1   -631.5600840196  -0.105827227113 0.03245346  0.00030982  0.0834881   0.119906792
  2   -631.6489437197  -0.088859700164 0.05376859  0.00053750  0.0670013   0.097265827
  3   -631.7578874897  -0.108943769925 0.08167629  0.00087324  0.0400132   0.059910328
                      *** Initiating the SOSCF procedure ***
                           *** Shutting down KDIIS ***
                      *** Re-Reading the Fockian *** 
                      *** Removing any level shift *** 
ITER      Energy       Delta-E        Grad      Rot      Max-DP    RMS-DP
  4   -631.82898460  -0.0710971078  0.002122  0.002122  0.002354  0.000054
  5   -631.82933273  -0.0003481290  0.000806  0.001251  0.001443  0.000034
  6   -631.82936965  -0.0000369198  0.000367  0.000378  0.000802  0.000015
  7   -631.82938197  -0.0000123201  0.000067  0.000124  0.000383  0.000005
  8   -631.82938228  -0.0000003179  0.000020  0.000035  0.000162  0.000002
  9   -631.82938234  -0.0000000586  0.000008  0.000010  0.000027  0.000000
 10   -631.82938235  -0.0000000043  0.000003  0.000007  0.000012  0.000000
                 **** Energy Check signals convergence ****
              ***Rediagonalizing the Fockian in SOSCF/NRSCF***

               *****************************************************
               *                     SUCCESS                       *
               *           SCF CONVERGED AFTER  11 CYCLES          *
               *****************************************************


----------------
TOTAL SCF ENERGY
----------------

Total Energy       :         -631.82938235 Eh          -17192.95157 eV

Components:
Nuclear Repulsion  :          389.69938398 Eh           10604.25935 eV
Electronic Energy  :        -1021.52876633 Eh          -27797.21091 eV
One Electron Energy:        -1639.41797249 Eh          -44610.83100 eV
Two Electron Energy:          617.88920615 Eh           16813.62009 eV

Virial components:
Potential Energy   :        -1263.17865304 Eh          -34372.83863 eV
Kinetic Energy     :          631.34927070 Eh           17179.88706 eV
Virial Ratio       :            2.00076045


---------------
SCF CONVERGENCE
---------------

  Last Energy change         ...   -3.9108e-10  Tolerance :   1.0000e-08
  Last MAX-Density change    ...    3.7781e-06  Tolerance :   1.0000e-07
  Last RMS-Density change    ...    6.1169e-08  Tolerance :   5.0000e-09
  Last Orbital Gradient      ...    6.6657e-07  Tolerance :   1.0000e-05
  Last Orbital Rotation      ...    2.1245e-06  Tolerance :   1.0000e-05

             **** THE GBW FILE WAS UPDATED (3_methylthiane_eq.gbw) ****
             **** DENSITY FILE WAS UPDATED (3_methylthiane_eq.scfp.tmp) ****
             **** ENERGY FILE WAS UPDATED (3_methylthiane_eq.en.tmp) ****
----------------
ORBITAL ENERGIES
----------------

  NO   OCC          E(Eh)            E(eV) 
   0   2.0000     -91.934780     -2501.6726 
   1   2.0000     -11.252971      -306.2089 
   2   2.0000     -11.251595      -306.1715 
   3   2.0000     -11.234404      -305.7037 
   4   2.0000     -11.228323      -305.5382 
   5   2.0000     -11.224972      -305.4470 
   6   2.0000     -11.218663      -305.2754 
   7   2.0000      -8.935689      -243.1525 
   8   2.0000      -6.616891      -180.0547 
   9   2.0000      -6.615967      -180.0296 
  10   2.0000      -6.615088      -180.0057 
  11   2.0000      -1.119994       -30.4766 
  12   2.0000      -1.039717       -28.2921 
  13   2.0000      -1.003427       -27.3046 
  14   2.0000      -0.926264       -25.2049 
  15   2.0000      -0.839255       -22.8373 
  16   2.0000      -0.808059       -21.9884 
  17   2.0000      -0.753354       -20.4998 
  18   2.0000      -0.643758       -17.5175 
  19   2.0000      -0.621182       -16.9032 
  20   2.0000      -0.596983       -16.2447 
  21   2.0000      -0.585687       -15.9374 
  22   2.0000      -0.565210       -15.3801 
  23   2.0000      -0.544538       -14.8176 
  24   2.0000      -0.529992       -14.4218 
  25   2.0000      -0.496990       -13.5238 
  26   2.0000      -0.490435       -13.3454 
  27   2.0000      -0.487493       -13.2654 
  28   2.0000      -0.465545       -12.6681 
  29   2.0000      -0.432217       -11.7612 
  30   2.0000      -0.410093       -11.1592 
  31   2.0000      -0.330249        -8.9865 
  32   0.0000       0.137162         3.7324 
  33   0.0000       0.146838         3.9957 
  34   0.0000       0.157208         4.2779 
  35   0.0000       0.175379         4.7723 
  36   0.0000       0.177811         4.8385 
  37   0.0000       0.199811         5.4371 
  38   0.0000       0.206053         5.6070 
  39   0.0000       0.209030         5.6880 
  40   0.0000       0.213951         5.8219 
  41   0.0000       0.229807         6.2534 
  42   0.0000       0.239751         6.5240 
  43   0.0000       0.247043         6.7224 
  44   0.0000       0.260378         7.0853 
  45   0.0000       0.271726         7.3941 
  46   0.0000       0.290806         7.9132 
  47   0.0000       0.316864         8.6223 
  48   0.0000       0.326511         8.8848 
  49   0.0000       0.348757         9.4902 
  50   0.0000       0.370237        10.0747 
  51   0.0000       0.400588        10.9006 
  52   0.0000       0.408665        11.1203 
  53   0.0000       0.411806        11.2058 
  54   0.0000       0.418783        11.3957 
  55   0.0000       0.430623        11.7178 
  56   0.0000       0.447231        12.1698 
  57   0.0000       0.453891        12.3510 
  58   0.0000       0.467846        12.7307 
  59   0.0000       0.482136        13.1196 
  60   0.0000       0.496803        13.5187 
  61   0.0000       0.510484        13.8910 
  62   0.0000       0.529011        14.3951 
  63   0.0000       0.542078        14.7507 
  64   0.0000       0.565308        15.3828 
  65   0.0000       0.577636        15.7183 
  66   0.0000       0.581840        15.8327 
  67   0.0000       0.590278        16.0623 
  68   0.0000       0.594650        16.1813 
  69   0.0000       0.602297        16.3893 
  70   0.0000       0.616474        16.7751 
  71   0.0000       0.625838        17.0299 
  72   0.0000       0.631276        17.1779 
  73   0.0000       0.632560        17.2128 
  74   0.0000       0.639979        17.4147 
  75   0.0000       0.656139        17.8544 
  76   0.0000       0.662881        18.0379 
  77   0.0000       0.670108        18.2346 
  78   0.0000       0.671100        18.2616 
  79   0.0000       0.678478        18.4623 
  80   0.0000       0.689561        18.7639 
  81   0.0000       0.706301        19.2194 
  82   0.0000       0.719614        19.5817 
  83   0.0000       0.725581        19.7440 
  84   0.0000       0.740760        20.1571 
  85   0.0000       0.756443        20.5839 
  86   0.0000       0.814791        22.1716 
  87   0.0000       0.835732        22.7414 
  88   0.0000       0.840982        22.8843 
  89   0.0000       0.878671        23.9098 
  90   0.0000       0.893521        24.3140 
  91   0.0000       0.916106        24.9285 
  92   0.0000       0.923266        25.1234 
  93   0.0000       0.951418        25.8894 
  94   0.0000       0.961341        26.1594 
  95   0.0000       0.971052        26.4237 
  96   0.0000       1.002985        27.2926 
  97   0.0000       1.016941        27.6724 
  98   0.0000       1.022447        27.8222 
  99   0.0000       1.051075        28.6012 
 100   0.0000       1.064546        28.9678 
 101   0.0000       1.073439        29.2098 
 102   0.0000       1.097749        29.8713 
 103   0.0000       1.109099        30.1801 
 104   0.0000       1.125179        30.6177 
 105   0.0000       1.152764        31.3683 
 106   0.0000       1.169977        31.8367 
 107   0.0000       1.176252        32.0074 
 108   0.0000       1.203803        32.7571 
 109   0.0000       1.220669        33.2161 
 110   0.0000       1.227787        33.4098 
 111   0.0000       1.230154        33.4742 
 112   0.0000       1.239099        33.7176 
 113   0.0000       1.268992        34.5310 
 114   0.0000       1.273955        34.6661 
 115   0.0000       1.281375        34.8680 
 116   0.0000       1.296271        35.2733 
 117   0.0000       1.309853        35.6429 
 118   0.0000       1.318802        35.8864 
 119   0.0000       1.325477        36.0681 
 120   0.0000       1.341326        36.4993 
 121   0.0000       1.342119        36.5209 
 122   0.0000       1.354572        36.8598 
 123   0.0000       1.372790        37.3555 
 124   0.0000       1.379529        37.5389 
 125   0.0000       1.395647        37.9775 
 126   0.0000       1.400228        38.1021 
 127   0.0000       1.424926        38.7742 
 128   0.0000       1.450477        39.4695 
 129   0.0000       1.462615        39.7998 
 130   0.0000       1.486395        40.4469 
 131   0.0000       1.489945        40.5435 
 132   0.0000       1.496959        40.7343 
 133   0.0000       1.501700        40.8633 
 134   0.0000       1.527895        41.5761 
 135   0.0000       1.534709        41.7616 
 136   0.0000       1.541214        41.9386 
 137   0.0000       1.550610        42.1943 
 138   0.0000       1.567340        42.6495 
 139   0.0000       1.569854        42.7179 
 140   0.0000       1.577449        42.9246 
 141   0.0000       1.596120        43.4326 
 142   0.0000       1.616433        43.9854 
 143   0.0000       1.635680        44.5091 
 144   0.0000       1.642379        44.6914 
 145   0.0000       1.662672        45.2436 
 146   0.0000       1.674637        45.5692 
 147   0.0000       1.691369        46.0245 
 148   0.0000       1.699559        46.2473 
 149   0.0000       1.722182        46.8629 
 150   0.0000       1.737531        47.2806 
 151   0.0000       1.768343        48.1191 
 152   0.0000       1.792012        48.7631 
 153   0.0000       1.802602        49.0513 
 154   0.0000       1.830319        49.8055 
 155   0.0000       1.858318        50.5674 
 156   0.0000       1.868069        50.8328 
 157   0.0000       1.882768        51.2327 
 158   0.0000       1.885904        51.3181 
 159   0.0000       1.921136        52.2768 
 160   0.0000       1.957042        53.2538 
 161   0.0000       1.977747        53.8172 
 162   0.0000       2.002391        54.4878 
 163   0.0000       2.037311        55.4381 
 164   0.0000       2.059481        56.0413 
 165   0.0000       2.086115        56.7661 
 166   0.0000       2.097451        57.0745 
 167   0.0000       2.198348        59.8201 
 168   0.0000       2.230520        60.6955 
 169   0.0000       2.244348        61.0718 
 170   0.0000       2.250712        61.2450 
 171   0.0000       2.352011        64.0015 
 172   0.0000       2.423199        65.9386 
 173   0.0000       2.440222        66.4018 
 174   0.0000       2.474400        67.3319 
 175   0.0000       2.577307        70.1321 
 176   0.0000       2.599787        70.7438 
 177   0.0000       2.607271        70.9474 
 178   0.0000       2.622212        71.3540 
 179   0.0000       2.640889        71.8622 
 180   0.0000       2.658253        72.3347 
 181   0.0000       2.684057        73.0369 
 182   0.0000       2.724807        74.1458 
 183   0.0000       2.746642        74.7399 
 184   0.0000       2.759910        75.1010 
 185   0.0000       2.793916        76.0263 
 186   0.0000       2.807250        76.3892 
 187   0.0000       2.819460        76.7214 
 188   0.0000       2.834225        77.1232 
 189   0.0000       2.851072        77.5816 
 190   0.0000       2.874069        78.2074 
 191   0.0000       2.894110        78.7527 
 192   0.0000       2.908885        79.1548 
 193   0.0000       2.918388        79.4134 
 194   0.0000       2.936945        79.9183 
 195   0.0000       2.950281        80.2812 
 196   0.0000       2.968390        80.7740 
 197   0.0000       2.993987        81.4705 
 198   0.0000       2.999313        81.6155 
 199   0.0000       3.011355        81.9431 
 200   0.0000       3.029979        82.4499 
 201   0.0000       3.044228        82.8377 
 202   0.0000       3.057220        83.1912 
 203   0.0000       3.074041        83.6489 
 204   0.0000       3.114686        84.7549 
 205   0.0000       3.120155        84.9037 
 206   0.0000       3.128218        85.1231 
 207   0.0000       3.157136        85.9100 
 208   0.0000       3.159655        85.9786 
 209   0.0000       3.188140        86.7537 
 210   0.0000       3.202142        87.1347 
 211   0.0000       3.234940        88.0272 
 212   0.0000       3.245756        88.3215 
 213   0.0000       3.249025        88.4105 
 214   0.0000       3.263235        88.7971 
 215   0.0000       3.298152        89.7473 
 216   0.0000       3.302091        89.8545 
 217   0.0000       3.307771        90.0090 
 218   0.0000       3.332644        90.6858 
 219   0.0000       3.350734        91.1781 
 220   0.0000       3.365321        91.5750 
 221   0.0000       3.381414        92.0130 
 222   0.0000       3.400260        92.5258 
 223   0.0000       3.407409        92.7203 
 224   0.0000       3.417869        93.0049 
 225   0.0000       3.424834        93.1945 
 226   0.0000       3.433366        93.4266 
 227   0.0000       3.442703        93.6807 
 228   0.0000       3.454212        93.9939 
 229   0.0000       3.475460        94.5721 
 230   0.0000       3.485912        94.8565 
 231   0.0000       3.488222        94.9193 
 232   0.0000       3.501075        95.2691 
 233   0.0000       3.515319        95.6567 
 234   0.0000       3.528204        96.0073 
 235   0.0000       3.539801        96.3229 
 236   0.0000       3.541438        96.3674 
 237   0.0000       3.566671        97.0541 
 238   0.0000       3.581183        97.4489 
 239   0.0000       3.591047        97.7174 
 240   0.0000       3.614440        98.3539 
 241   0.0000       3.638961        99.0212 
 242   0.0000       3.645292        99.1934 
 243   0.0000       3.658006        99.5394 
 244   0.0000       3.681091       100.1676 
 245   0.0000       3.692019       100.4650 
 246   0.0000       3.699784       100.6762 
 247   0.0000       3.724487       101.3485 
 248   0.0000       3.753041       102.1254 
 249   0.0000       3.758327       102.2693 
 250   0.0000       3.763662       102.4144 
 251   0.0000       3.778721       102.8242 
 252   0.0000       3.784776       102.9890 
 253   0.0000       3.803582       103.5007 
 254   0.0000       3.812053       103.7312 
 255   0.0000       3.838648       104.4549 
 256   0.0000       3.855631       104.9171 
 257   0.0000       3.867735       105.2464 
 258   0.0000       3.884453       105.7013 
 259   0.0000       3.896303       106.0238 
 260   0.0000       3.904298       106.2413 
 261   0.0000       3.932184       107.0002 
 262   0.0000       3.938438       107.1703 
 263   0.0000       3.952885       107.5635 
 264   0.0000       3.972565       108.0990 
 265   0.0000       3.977110       108.2227 
 266   0.0000       4.002550       108.9149 
 267   0.0000       4.025496       109.5393 
 268   0.0000       4.032489       109.7296 
 269   0.0000       4.059262       110.4581 
 270   0.0000       4.065520       110.6284 
 271   0.0000       4.089003       111.2674 
 272   0.0000       4.107092       111.7597 
 273   0.0000       4.115900       111.9993 
 274   0.0000       4.120818       112.1331 
 275   0.0000       4.129546       112.3707 
 276   0.0000       4.167376       113.4001 
 277   0.0000       4.175501       113.6212 
 278   0.0000       4.186478       113.9199 
 279   0.0000       4.205923       114.4490 
 280   0.0000       4.213900       114.6661 
 281   0.0000       4.237820       115.3169 
 282   0.0000       4.254318       115.7659 
 283   0.0000       4.273846       116.2972 
 284   0.0000       4.297059       116.9289 
 285   0.0000       4.302085       117.0657 
 286   0.0000       4.307631       117.2166 
 287   0.0000       4.321447       117.5926 
 288   0.0000       4.330144       117.8292 
 289   0.0000       4.348084       118.3174 
 290   0.0000       4.353641       118.4686 
 291   0.0000       4.373389       119.0060 
 292   0.0000       4.387856       119.3996 
 293   0.0000       4.401548       119.7722 
 294   0.0000       4.415084       120.1405 
 295   0.0000       4.423102       120.3587 
 296   0.0000       4.442815       120.8952 
 297   0.0000       4.451318       121.1265 
 298   0.0000       4.466961       121.5522 
 299   0.0000       4.482732       121.9813 
 300   0.0000       4.494901       122.3125 
 301   0.0000       4.506904       122.6391 
 302   0.0000       4.523858       123.1004 
 303   0.0000       4.527433       123.1977 
 304   0.0000       4.538327       123.4942 
 305   0.0000       4.557171       124.0069 
 306   0.0000       4.567661       124.2924 
 307   0.0000       4.584264       124.7442 
 308   0.0000       4.598811       125.1400 
 309   0.0000       4.620779       125.7378 
 310   0.0000       4.647560       126.4665 
 311   0.0000       4.662364       126.8694 
 312   0.0000       4.674007       127.1862 
 313   0.0000       4.690207       127.6270 
 314   0.0000       4.726135       128.6047 
 315   0.0000       4.763795       129.6295 
 316   0.0000       4.766184       129.6945 
 317   0.0000       4.798533       130.5747 
 318   0.0000       4.819123       131.1350 
 319   0.0000       4.873494       132.6145 
 320   0.0000       4.896735       133.2469 
 321   0.0000       4.916626       133.7882 
 322   0.0000       4.943493       134.5193 
 323   0.0000       4.958683       134.9326 
 324   0.0000       4.991080       135.8142 
 325   0.0000       5.007022       136.2480 
 326   0.0000       5.027116       136.7948 
 327   0.0000       5.039626       137.1352 
 328   0.0000       5.091719       138.5527 
 329   0.0000       5.108769       139.0167 
 330   0.0000       5.126537       139.5002 
 331   0.0000       5.165337       140.5560 
 332   0.0000       5.204647       141.6256 
 333   0.0000       5.214318       141.8888 
 334   0.0000       5.217645       141.9793 
 335   0.0000       5.249044       142.8338 
 336   0.0000       5.266652       143.3129 
 337   0.0000       5.270550       143.4190 
 338   0.0000       5.317690       144.7017 
 339   0.0000       5.326801       144.9496 
 340   0.0000       5.344061       145.4193 
 341   0.0000       5.363574       145.9503 
 342   0.0000       5.370542       146.1399 
 343   0.0000       5.393845       146.7740 
 344   0.0000       5.421379       147.5232 
 345   0.0000       5.449887       148.2990 
 346   0.0000       5.488269       149.3434 
 347   0.0000       5.511222       149.9680 
 348   0.0000       5.531776       150.5273 
 349   0.0000       5.570633       151.5846 
 350   0.0000       5.583114       151.9242 
 351   0.0000       5.603326       152.4743 
 352   0.0000       5.630284       153.2078 
 353   0.0000       5.683526       154.6566 
 354   0.0000       5.689529       154.8199 
 355   0.0000       5.696257       155.0030 
 356   0.0000       5.727461       155.8521 
 357   0.0000       5.741287       156.2284 
 358   0.0000       5.767963       156.9542 
 359   0.0000       5.774892       157.1428 
 360   0.0000       5.803925       157.9328 
 361   0.0000       5.809038       158.0720 
 362   0.0000       5.830298       158.6505 
 363   0.0000       5.854984       159.3222 
 364   0.0000       5.870079       159.7330 
 365   0.0000       5.901051       160.5757 
 366   0.0000       5.949403       161.8915 
 367   0.0000       6.013682       163.6406 
 368   0.0000       6.112399       166.3268 
 369   0.0000       6.217820       169.1955 
 370   0.0000       6.304717       171.5601 
 371   0.0000       6.324584       172.1007 
 372   0.0000       6.335201       172.3896 
 373   0.0000       6.385001       173.7447 
 374   0.0000       6.417610       174.6321 
 375   0.0000       6.453092       175.5975 
 376   0.0000      11.890187       323.5484 
 377   0.0000      12.433881       338.3431 
 378   0.0000      12.928168       351.7933 
 379   0.0000      13.294290       361.7560 
 380   0.0000      13.583215       369.6181 
 381   0.0000      14.173275       385.6744 

                    ********************************
                    * MULLIKEN POPULATION ANALYSIS *
                    ********************************

-----------------------
MULLIKEN ATOMIC CHARGES
-----------------------
   0 C :   -0.063477
   1 C :   -0.198573
   2 C :   -0.183775
   3 C :   -0.174014
   4 S :   -0.165311
   5 C :   -0.173100
   6 C :   -0.303482
   7 H :    0.099095
   8 H :    0.108734
   9 H :    0.106032
  10 H :    0.122095
  11 H :    0.108438
  12 H :    0.089695
  13 H :    0.106491
  14 H :    0.109676
  15 H :    0.120037
  16 H :    0.089571
  17 H :    0.100178
  18 H :    0.101690
Sum of atomic charges:    0.0000000

--------------------------------
MULLIKEN REDUCED ORBITAL CHARGES
--------------------------------
  0 C s       :     3.172740  s :     3.172740
      pz      :     1.001941  p :     2.739502
      px      :     0.856328
      py      :     0.881233
      dz2     :     0.044238  d :     0.142732
      dxz     :     0.017764
      dyz     :     0.019051
      dx2y2   :     0.031006
      dxy     :     0.030673
      f0      :     0.001466  f :     0.008503
      f+1     :     0.000842
      f-1     :     0.000868
      f+2     :     0.000923
      f-2     :     0.000911
      f+3     :     0.001785
      f-3     :     0.001709
  1 C s       :     3.213315  s :     3.213315
      pz      :     1.001305  p :     2.859804
      px      :     0.921621
      py      :     0.936879
      dz2     :     0.033913  d :     0.118619
      dxz     :     0.015485
      dyz     :     0.014784
      dx2y2   :     0.022667
      dxy     :     0.031770
      f0      :     0.001433  f :     0.006835
      f+1     :     0.000646
      f-1     :     0.000577
      f+2     :     0.000787
      f-2     :     0.000479
      f+3     :     0.001508
      f-3     :     0.001406
  2 C s       :     3.212575  s :     3.212575
      pz      :     0.996222  p :     2.846466
      px      :     0.883063
      py      :     0.967181
      dz2     :     0.035958  d :     0.118036
      dxz     :     0.018148
      dyz     :     0.011147
      dx2y2   :     0.029046
      dxy     :     0.023737
      f0      :     0.001432  f :     0.006698
      f+1     :     0.000809
      f-1     :     0.000375
      f+2     :     0.000595
      f-2     :     0.000772
      f+3     :     0.001317
      f-3     :     0.001399
  3 C s       :     3.205792  s :     3.205792
      pz      :     0.993531  p :     2.841433
      px      :     1.006271
      py      :     0.841631
      dz2     :     0.038229  d :     0.120939
      dxz     :     0.011109
      dyz     :     0.020555
      dx2y2   :     0.035755
      dxy     :     0.015291
      f0      :     0.001324  f :     0.005849
      f+1     :     0.000422
      f-1     :     0.000708
      f+2     :     0.000691
      f-2     :     0.000601
      f+3     :     0.000976
      f-3     :     0.001128
  4 S s       :     5.828669  s :     5.828669
      pz      :     3.826824  p :    10.187342
      px      :     3.143950
      py      :     3.216568
      dz2     :     0.019510  d :     0.135807
      dxz     :     0.016460
      dyz     :     0.017545
      dx2y2   :     0.060340
      dxy     :     0.021952
      f0      :     0.001418  f :     0.013493
      f+1     :     0.001533
      f-1     :     0.001412
      f+2     :     0.002796
      f-2     :     0.000449
      f+3     :     0.003015
      f-3     :     0.002867
  5 C s       :     3.209047  s :     3.209047
      pz      :     0.998762  p :     2.834070
      px      :     0.835553
      py      :     0.999756
      dz2     :     0.037834  d :     0.123967
      dxz     :     0.019823
      dyz     :     0.012592
      dx2y2   :     0.036042
      dxy     :     0.017676
      f0      :     0.001347  f :     0.006016
      f+1     :     0.000680
      f-1     :     0.000447
      f+2     :     0.000787
      f-2     :     0.000514
      f+3     :     0.001218
      f-3     :     0.001022
  6 C s       :     3.271201  s :     3.271201
      pz      :     1.003188  p :     2.941866
      px      :     0.916284
      py      :     1.022394
      dz2     :     0.023190  d :     0.085480
      dxz     :     0.013943
      dyz     :     0.007590
      dx2y2   :     0.016107
      dxy     :     0.024648
      f0      :     0.001379  f :     0.004935
      f+1     :     0.000588
      f-1     :     0.000095
      f+2     :     0.000506
      f-2     :     0.000213
      f+3     :     0.001247
      f-3     :     0.000906
  7 H s       :     0.871140  s :     0.871140
      pz      :     0.011645  p :     0.027332
      px      :     0.008587
      py      :     0.007100
      dz2     :     0.000709  d :     0.002433
      dxz     :     0.000954
      dyz     :     0.000702
      dx2y2   :     0.000051
      dxy     :     0.000016
  8 H s       :     0.860543  s :     0.860543
      pz      :     0.006783  p :     0.028280
      px      :     0.009241
      py      :     0.012257
      dz2     :     0.000381  d :     0.002443
      dxz     :     0.000074
      dyz     :     0.000494
      dx2y2   :     0.000625
      dxy     :     0.000869
  9 H s       :     0.860910  s :     0.860910
      pz      :     0.014090  p :     0.030629
      px      :     0.008040
      py      :     0.008499
      dz2     :     0.000772  d :     0.002429
      dxz     :     0.000776
      dyz     :     0.000842
      dx2y2   :     0.000028
      dxy     :     0.000010
 10 H s       :     0.842962  s :     0.842962
      pz      :     0.007808  p :     0.032451
      px      :     0.014461
      py      :     0.010183
      dz2     :     0.000408  d :     0.002492
      dxz     :     0.000532
      dyz     :     0.000056
      dx2y2   :     0.000650
      dxy     :     0.000846
 11 H s       :     0.860519  s :     0.860519
      pz      :     0.006608  p :     0.028576
      px      :     0.010376
      py      :     0.011592
      dz2     :     0.000448  d :     0.002467
      dxz     :     0.000253
      dyz     :     0.000313
      dx2y2   :     0.000965
      dxy     :     0.000488
 12 H s       :     0.880062  s :     0.880062
      pz      :     0.010748  p :     0.027820
      px      :     0.008719
      py      :     0.008354
      dz2     :     0.000635  d :     0.002423
      dxz     :     0.000863
      dyz     :     0.000838
      dx2y2   :     0.000069
      dxy     :     0.000018
 13 H s       :     0.860446  s :     0.860446
      pz      :     0.013477  p :     0.030621
      px      :     0.008930
      py      :     0.008213
      dz2     :     0.000752  d :     0.002442
      dxz     :     0.000831
      dyz     :     0.000815
      dx2y2   :     0.000035
      dxy     :     0.000008
 14 H s       :     0.857979  s :     0.857979
      pz      :     0.011845  p :     0.029570
      px      :     0.008892
      py      :     0.008833
      dz2     :     0.000683  d :     0.002775
      dxz     :     0.000979
      dyz     :     0.001012
      dx2y2   :     0.000078
      dxy     :     0.000022
 15 H s       :     0.845093  s :     0.845093
      pz      :     0.007629  p :     0.032366
      px      :     0.010492
      py      :     0.014245
      dz2     :     0.000440  d :     0.002505
      dxz     :     0.000092
      dyz     :     0.000493
      dx2y2   :     0.000722
      dxy     :     0.000757
 16 H s       :     0.882101  s :     0.882101
      pz      :     0.010103  p :     0.026161
      px      :     0.008739
      py      :     0.007319
      dz2     :     0.000696  d :     0.002168
      dxz     :     0.000837
      dyz     :     0.000572
      dx2y2   :     0.000056
      dxy     :     0.000007
 17 H s       :     0.870759  s :     0.870759
      pz      :     0.007495  p :     0.026880
      px      :     0.011350
      py      :     0.008034
      dz2     :     0.000401  d :     0.002183
      dxz     :     0.000264
      dyz     :     0.000329
      dx2y2   :     0.000687
      dxy     :     0.000502
 18 H s       :     0.869287  s :     0.869287
      pz      :     0.007514  p :     0.026852
      px      :     0.009890
      py      :     0.009447
      dz2     :     0.000346  d :     0.002172
      dxz     :     0.000100
      dyz     :     0.000468
      dx2y2   :     0.000536
      dxy     :     0.000723


                     *******************************
                     * LOEWDIN POPULATION ANALYSIS *
                     *******************************

----------------------
LOEWDIN ATOMIC CHARGES
----------------------
   0 C :   -0.041286
   1 C :    0.057486
   2 C :    0.036771
   3 C :   -0.096418
   4 S :    0.378782
   5 C :   -0.092496
   6 C :    0.113327
   7 H :   -0.024452
   8 H :   -0.023901
   9 H :   -0.042654
  10 H :   -0.036228
  11 H :   -0.022495
  12 H :   -0.025326
  13 H :   -0.041161
  14 H :   -0.022266
  15 H :   -0.034920
  16 H :   -0.028395
  17 H :   -0.026814
  18 H :   -0.027555

-------------------------------
LOEWDIN REDUCED ORBITAL CHARGES
-------------------------------
  0 C s       :     2.663547  s :     2.663547
      pz      :     0.959907  p :     2.800390
      px      :     0.919541
      py      :     0.920943
      dz2     :     0.136151  d :     0.526328
      dxz     :     0.068210
      dyz     :     0.070039
      dx2y2   :     0.127412
      dxy     :     0.124517
      f0      :     0.006190  f :     0.051021
      f+1     :     0.005573
      f-1     :     0.006059
      f+2     :     0.007093
      f-2     :     0.006864
      f+3     :     0.008348
      f-3     :     0.010894
  1 C s       :     2.659893  s :     2.659893
      pz      :     0.962702  p :     2.819165
      px      :     0.925289
      py      :     0.931174
      dz2     :     0.111270  d :     0.424008
      dxz     :     0.055936
      dyz     :     0.053373
      dx2y2   :     0.088175
      dxy     :     0.115254
      f0      :     0.005902  f :     0.039448
      f+1     :     0.004113
      f-1     :     0.003817
      f+2     :     0.005832
      f-2     :     0.005398
      f+3     :     0.007063
      f-3     :     0.007323
  2 C s       :     2.663329  s :     2.663329
      pz      :     0.966540  p :     2.831154
      px      :     0.915035
      py      :     0.949579
      dz2     :     0.116819  d :     0.428700
      dxz     :     0.066936
      dyz     :     0.040262
      dx2y2   :     0.113464
      dxy     :     0.091219
      f0      :     0.005716  f :     0.040046
      f+1     :     0.005674
      f-1     :     0.002789
      f+2     :     0.005816
      f-2     :     0.006013
      f+3     :     0.006745
      f-3     :     0.007292
  3 C s       :     2.707890  s :     2.707890
      pz      :     1.000079  p :     2.909323
      px      :     0.983062
      py      :     0.926182
      dz2     :     0.122474  d :     0.442748
      dxz     :     0.037074
      dyz     :     0.081460
      dx2y2   :     0.131742
      dxy     :     0.069998
      f0      :     0.005287  f :     0.036457
      f+1     :     0.003047
      f-1     :     0.005256
      f+2     :     0.005955
      f-2     :     0.005027
      f+3     :     0.005528
      f-3     :     0.006356
  4 S s       :     5.378034  s :     5.378034
      pz      :     3.692067  p :     9.954385
      px      :     3.098167
      py      :     3.164151
      dz2     :     0.039449  d :     0.251059
      dxz     :     0.032323
      dyz     :     0.032362
      dx2y2   :     0.089981
      dxy     :     0.056943
      f0      :     0.002857  f :     0.037740
      f+1     :     0.003771
      f-1     :     0.003886
      f+2     :     0.007326
      f-2     :     0.001680
      f+3     :     0.008975
      f-3     :     0.009243
  5 C s       :     2.707473  s :     2.707473
      pz      :     1.001214  p :     2.905621
      px      :     0.922518
      py      :     0.981889
      dz2     :     0.119656  d :     0.443069
      dxz     :     0.077092
      dyz     :     0.042191
      dx2y2   :     0.127287
      dxy     :     0.076842
      f0      :     0.005415  f :     0.036334
      f+1     :     0.004887
      f-1     :     0.003158
      f+2     :     0.006055
      f-2     :     0.004785
      f+3     :     0.006262
      f-3     :     0.005772
  6 C s       :     2.662150  s :     2.662150
      pz      :     0.977732  p :     2.879438
      px      :     0.923332
      py      :     0.978374
      dz2     :     0.085858  d :     0.316031
      dxz     :     0.054297
      dyz     :     0.026961
      dx2y2   :     0.062777
      dxy     :     0.086138
      f0      :     0.005355  f :     0.029053
      f+1     :     0.003924
      f-1     :     0.000784
      f+2     :     0.004637
      f-2     :     0.004483
      f+3     :     0.005288
      f-3     :     0.004583
  7 H s       :     0.844157  s :     0.844157
      pz      :     0.075683  p :     0.152021
      px      :     0.038841
      py      :     0.037497
      dz2     :     0.009590  d :     0.028274
      dxz     :     0.009075
      dyz     :     0.009228
      dx2y2   :     0.000312
      dxy     :     0.000068
  8 H s       :     0.842662  s :     0.842662
      pz      :     0.042141  p :     0.153274
      px      :     0.041218
      py      :     0.069915
      dz2     :     0.004385  d :     0.027965
      dxz     :     0.000895
      dyz     :     0.007533
      dx2y2   :     0.007036
      dxy     :     0.008115
  9 H s       :     0.855125  s :     0.855125
      pz      :     0.080743  p :     0.159104
      px      :     0.038944
      py      :     0.039417
      dz2     :     0.010032  d :     0.028424
      dxz     :     0.009526
      dyz     :     0.008621
      dx2y2   :     0.000218
      dxy     :     0.000028
 10 H s       :     0.848256  s :     0.848256
      pz      :     0.042512  p :     0.159348
      px      :     0.074524
      py      :     0.042313
      dz2     :     0.004284  d :     0.028623
      dxz     :     0.007949
      dyz     :     0.000846
      dx2y2   :     0.007410
      dxy     :     0.008134
 11 H s       :     0.842007  s :     0.842007
      pz      :     0.044174  p :     0.152250
      px      :     0.052294
      py      :     0.055782
      dz2     :     0.005236  d :     0.028238
      dxz     :     0.003759
      dyz     :     0.004717
      dx2y2   :     0.008294
      dxy     :     0.006232
 12 H s       :     0.845989  s :     0.845989
      pz      :     0.074478  p :     0.151212
      px      :     0.038500
      py      :     0.038234
      dz2     :     0.009268  d :     0.028125
      dxz     :     0.009088
      dyz     :     0.009288
      dx2y2   :     0.000406
      dxy     :     0.000074
 13 H s       :     0.854056  s :     0.854056
      pz      :     0.080692  p :     0.158583
      px      :     0.038948
      py      :     0.038944
      dz2     :     0.009987  d :     0.028522
      dxz     :     0.008562
      dyz     :     0.009651
      dx2y2   :     0.000285
      dxy     :     0.000038
 14 H s       :     0.838711  s :     0.838711
      pz      :     0.077543  p :     0.154632
      px      :     0.038232
      py      :     0.038857
      dz2     :     0.010015  d :     0.028923
      dxz     :     0.009042
      dyz     :     0.009375
      dx2y2   :     0.000435
      dxy     :     0.000056
 15 H s       :     0.847366  s :     0.847366
      pz      :     0.043405  p :     0.158813
      px      :     0.043415
      py      :     0.071993
      dz2     :     0.004604  d :     0.028741
      dxz     :     0.001336
      dyz     :     0.007460
      dx2y2   :     0.007707
      dxy     :     0.007635
 16 H s       :     0.850121  s :     0.850121
      pz      :     0.072394  p :     0.150652
      px      :     0.038542
      py      :     0.039716
      dz2     :     0.008925  d :     0.027622
      dxz     :     0.009007
      dyz     :     0.009228
      dx2y2   :     0.000392
      dxy     :     0.000070
 17 H s       :     0.848104  s :     0.848104
      pz      :     0.044952  p :     0.151039
      px      :     0.050523
      py      :     0.055564
      dz2     :     0.005145  d :     0.027671
      dxz     :     0.003731
      dyz     :     0.004791
      dx2y2   :     0.007966
      dxy     :     0.006037
 18 H s       :     0.849104  s :     0.849104
      pz      :     0.042909  p :     0.150834
      px      :     0.042016
      py      :     0.065909
      dz2     :     0.004223  d :     0.027616
      dxz     :     0.001413
      dyz     :     0.007132
      dx2y2   :     0.007080
      dxy     :     0.007767


                      *****************************
                      * MAYER POPULATION ANALYSIS *
                      *****************************

  NA   - Mulliken gross atomic population
  ZA   - Total nuclear charge
  QA   - Mulliken gross atomic charge
  VA   - Mayer's total valence
  BVA  - Mayer's bonded valence
  FA   - Mayer's free valence

  ATOM       NA         ZA         QA         VA         BVA        FA
  0 C      6.0635     6.0000    -0.0635     3.7894     3.7894    -0.0000
  1 C      6.1986     6.0000    -0.1986     3.8767     3.8767     0.0000
  2 C      6.1838     6.0000    -0.1838     3.8517     3.8517    -0.0000
  3 C      6.1740     6.0000    -0.1740     3.8956     3.8956     0.0000
  4 S     16.1653    16.0000    -0.1653     2.0181     2.0181    -0.0000
  5 C      6.1731     6.0000    -0.1731     3.8991     3.8991    -0.0000
  6 C      6.3035     6.0000    -0.3035     3.8894     3.8894    -0.0000
  7 H      0.9009     1.0000     0.0991     0.9868     0.9868     0.0000
  8 H      0.8913     1.0000     0.1087     0.9771     0.9771    -0.0000
  9 H      0.8940     1.0000     0.1060     0.9796     0.9796     0.0000
 10 H      0.8779     1.0000     0.1221     0.9834     0.9834     0.0000
 11 H      0.8916     1.0000     0.1084     0.9811     0.9811    -0.0000
 12 H      0.9103     1.0000     0.0897     0.9875     0.9875     0.0000
 13 H      0.8935     1.0000     0.1065     0.9814     0.9814    -0.0000
 14 H      0.8903     1.0000     0.1097     0.9878     0.9878    -0.0000
 15 H      0.8800     1.0000     0.1200     0.9859     0.9859     0.0000
 16 H      0.9104     1.0000     0.0896     0.9806     0.9806     0.0000
 17 H      0.8998     1.0000     0.1002     0.9817     0.9817     0.0000
 18 H      0.8983     1.0000     0.1017     0.9812     0.9812    -0.0000

  Mayer bond orders larger than 0.1
B(  0-C ,  1-C ) :   0.9508 B(  0-C ,  5-C ) :   0.9394 B(  0-C ,  6-C ) :   0.9559 
B(  0-C , 14-H ) :   0.9721 B(  1-C ,  2-C ) :   0.9602 B(  1-C , 11-H ) :   0.9918 
B(  1-C , 12-H ) :   0.9801 B(  2-C ,  3-C ) :   0.9423 B(  2-C ,  7-H ) :   0.9783 
B(  2-C ,  8-H ) :   0.9858 B(  3-C ,  4-S ) :   0.9877 B(  3-C ,  9-H ) :   0.9782 
B(  3-C , 10-H ) :   0.9845 B(  4-S ,  5-C ) :   0.9969 B(  5-C , 13-H ) :   0.9746 
B(  5-C , 15-H ) :   0.9837 B(  6-C , 16-H ) :   0.9785 B(  6-C , 17-H ) :   0.9852 
B(  6-C , 18-H ) :   0.9866 

-------
TIMINGS
-------

Total SCF time: 0 days 0 hours 0 min 20 sec 

Total time                  ....      20.610 sec
Sum of individual times     ....      20.280 sec  ( 98.4%)

Fock matrix formation       ....      19.445 sec  ( 94.3%)
Diagonalization             ....       0.125 sec  (  0.6%)
Density matrix formation    ....       0.018 sec  (  0.1%)
Population analysis         ....       0.048 sec  (  0.2%)
Initial guess               ....       0.313 sec  (  1.5%)
Orbital Transformation      ....       0.000 sec  (  0.0%)
Orbital Orthonormalization  ....       0.000 sec  (  0.0%)
DIIS solution               ....       0.000 sec  (  0.0%)
SOSCF solution              ....       0.150 sec  (  0.7%)


           ************************************************************
           *        Program running with 8 parallel MPI-processes     *
           *              working on a common directory               *
           ************************************************************


------------------------------------------------------------------------------- 
                              ORCA-MATRIX DRIVEN CI                            
------------------------------------------------------------------------------- 


Wavefunction type
-----------------
Correlation treatment                      ...      CCSD     
Single excitations                         ... ON
Orbital optimization                       ... OFF
Calculation of Z vector                    ... OFF
Calculation of Brueckner orbitals          ... OFF
Perturbative triple excitations            ... ON
Calculation of F12 correction              ... OFF
Frozen core treatment                      ... chemical core (22 el)
Reference Wavefunction                     ... RHF
  Internal Orbitals:    11 ...   31 ( 21 MO's/ 42 electrons)
  Virtual  Orbitals:    32 ...  381 (350 MO's              )
Number of AO's                             ...    382
Number of electrons                        ...     64
Number of correlated electrons             ...     42

Algorithmic settings
--------------------
Integral transformation                    ... All integrals via the RI transformation
K(C) Formation                             ... RI-DLPNO
   PNO-Integral Storage                    ... ON DISK
   PNO occupation number cut-off           ... 1.000e-07
   Singles PNO occupation number cut-off   ... 3.000e-09
   PNO Mulliken prescreening cut-off       ... 1.000e-03
   Domain cut-off (Mulliken population)    ... 1.000e-03
   PNO Normalization                       ...    1
Maximum number of iterations               ...        50
Convergence tolerance (max. residuum)      ... 1.000e-05
Level shift for amplitude update           ... 2.000e-01
Maximum number of DIIS vectors             ...         7
DIIS turned on at iteration                ...         0
Damping before turning on DIIS             ...     0.500
Damping after turning on DIIS              ...     0.000
Pair specific amplitude update             ... OFF
Natural orbital iterations                 ... OFF
Perturbative natural orbital generation    ... OFF
Printlevel                                 ... 2

Singles Fock matrix elements calculated using PNOs.

Memory handling:
----------------
Maximum memory for working arrays          ...   8000 MB
Data storage in matrix containers          ... UNCOMPRESSED
Data type for integral storage             ... DOUBLE
In-Core Storage of quantities:
   Amplitudes+Sigma Vector      ... NO
   J+K operators                ... NO
   DIIS vectors                 ... NO
   3-external integrals         ... NO
   4-external integrals         ... NO

Localization treatment:
-----------------------
Localization option                        ...    6
Localization threshhold                    ... -1.0e+00
Using relative localization threshhold     ... 1.0e-08
Neglect threshold for strong pairs         ... 1.000e-05 Eh
Prescreening threshold for very weak pairs ... 1.000e-07 Eh

Initializing the integral package          ... done
Localizing the valence orbitals
------------------------------------------------------------------------------
                           ORCA ORBITAL LOCALIZATION
------------------------------------------------------------------------------

Input orbitals are from                  ... 3_methylthiane_eq.proc0.gbw
Output orbitals are to                   ... 3_methylthiane_eq.proc0.loc
Max. number of iterations                ... 128
Localizations seeded randomly            ... off
Convergence tolerance                    ... 1.000e-06
Using relative localization threshhold   ... 1.000e-08
Treshold for strong local MOs            ... 9.500e-01
Treshold for bond MOs                    ... 8.500e-01
Operator                                 ... 0
Orbital range for localization           ... 11 to 31
Localization criterion                   ... FOSTER-BOYS (AUGMENTED HESSIAN)
Doing the dipole integrals     ... o.k.
Initial value of the localization sum :   250.863039
ITERATION   0 : L=  316.5005137429 DL=  6.56e+01 (AVERGE_DL)=    0.5590701245 
ITERATION   1 : L=  321.3341089278 DL=  4.83e+00 (AVERGE_DL)=    0.1517139411 
ITERATION   2 : L=  321.3967975222 DL=  6.27e-02 (AVERGE_DL)=    0.0172776479 
ITERATION   3 : L=  321.3975547305 DL=  7.57e-04 (AVERGE_DL)=    0.0018988822 
ITERATION   4 : L=  321.3975658110 DL=  1.11e-05 (AVERGE_DL)=    0.0002297042 
ITERATION   5 : L=  321.3975659742 DL=  1.63e-07 (AVERGE_DL)=    0.0000278849 
LOCALIZATION SUM CONVERGED

------------------------------------------------------
AUGMENTED HESSIAN OPTIMIZATION OF FOSTER-BOYS ORBITALS
------------------------------------------------------

Spin operator:           0
Orbital window:          11 to 31
Number of iterations:    128
Gradient tolerance:      1.000e-06
Number of pairs:         210
Davidson threshold:      2000
Diagonalization method:  LAPACK
Iter:    0   L: 321.3975659742   Grad. norm: 1.170625e-03
   *** Likely close to a maximum now. ***
       Augmented Hessian eigenvalues:  1.19e-08 -8.07e+00 -1.54e+01 -1.72e+01 ... 
Iter:    1   L: 321.3975659802   Grad. norm: 2.176110e-09
LOCALIZATION HAS CONVERGED.

Eigenvalues of the Hessian:
  0 -8.068e+00
  1 -1.539e+01
  2 -1.720e+01
  3 -1.765e+01
  4 -1.768e+01
  5 -1.785e+01
  6 -1.795e+01
  7 -1.816e+01
  8 -1.830e+01
  9 -1.842e+01
    ...


------------------------------------------------------------------------------- 
                    LOCALIZED MOLECULAR ORBITAL COMPOSITIONS                   
------------------------------------------------------------------------------- 

The Mulliken populations for each LMO on each atom are computed
The LMO`s will be ordered according to atom index and type
  (A) Strongly localized MO`s have populations of >=0.950 on one atom
  (B) Two center bond orbitals have populations of >=0.850 on two atoms
  (C) Other MO`s are considered to be `delocalized`

FOUND  -   2 strongly local MO`s
       -  19 two center bond MO`s
       -   0 significantly delocalized MO`s

Rather strongly localized orbitals:
MO  12:   4S  -   1.002990
MO  11:   4S  -   1.004467
Bond-like localized orbitals:
MO  31:  18H  -   0.467603  and   6C  -   0.561863
MO  30:  17H  -   0.468468  and   6C  -   0.560076
MO  29:  16H  -   0.475505  and   6C  -   0.549466
MO  28:  15H  -   0.453610  and   5C  -   0.571627
MO  27:  14H  -   0.459451  and   0C  -   0.562217
MO  26:  13H  -   0.463377  and   5C  -   0.562210
MO  25:  12H  -   0.472362  and   1C  -   0.552210
MO  24:  11H  -   0.463232  and   1C  -   0.569028
MO  23:  10H  -   0.452930  and   3C  -   0.572620
MO  22:   9H  -   0.463966  and   3C  -   0.563800
MO  21:   8H  -   0.464048  and   2C  -   0.566644
MO  20:   7H  -   0.466334  and   2C  -   0.557781
MO  19:   6C  -   0.503907  and   0C  -   0.531824
MO  18:   5C  -   0.472576  and   4S  -   0.557219
MO  17:   5C  -   0.513786  and   0C  -   0.516175
MO  16:   4S  -   0.559493  and   3C  -   0.466705
MO  15:   3C  -   0.518606  and   2C  -   0.513479
MO  14:   2C  -   0.512954  and   1C  -   0.521357
MO  13:   1C  -   0.509848  and   0C  -   0.520481
Localized MO's were stored in: 3_methylthiane_eq.proc0.loc

Localizing the core orbitals
------------------------------------------------------------------------------
                           ORCA ORBITAL LOCALIZATION
------------------------------------------------------------------------------

Input orbitals are from                  ... 3_methylthiane_eq.proc0.loc
Output orbitals are to                   ... 3_methylthiane_eq.proc0.loc
Max. number of iterations                ... 128
Localizations seeded randomly            ... off
Convergence tolerance                    ... 1.000e-06
Using relative localization threshhold   ... 1.000e-08
Treshold for strong local MOs            ... 9.500e-01
Treshold for bond MOs                    ... 8.500e-01
Operator                                 ... 0
Orbital range for localization           ... 0 to 10
Localization criterion                   ... FOSTER-BOYS (AUGMENTED HESSIAN)
Doing the dipole integrals     ... o.k.
Initial value of the localization sum :   127.664554
ITERATION   0 : L=  127.8170424647 DL=  1.52e-01 (AVERGE_DL)=    0.0526547119 
ITERATION   1 : L=  127.8694577012 DL=  5.24e-02 (AVERGE_DL)=    0.0308707677 
ITERATION   2 : L=  127.8711877395 DL=  1.73e-03 (AVERGE_DL)=    0.0056084974 
ITERATION   3 : L=  127.8712515354 DL=  6.38e-05 (AVERGE_DL)=    0.0010769978 
ITERATION   4 : L=  127.8712555960 DL=  4.06e-06 (AVERGE_DL)=    0.0002717157 
ITERATION   5 : L=  127.8712558983 DL=  3.02e-07 (AVERGE_DL)=    0.0000741349 
LOCALIZATION SUM CONVERGED

------------------------------------------------------
AUGMENTED HESSIAN OPTIMIZATION OF FOSTER-BOYS ORBITALS
------------------------------------------------------

Spin operator:           0
Orbital window:          0 to 10
Number of iterations:    128
Gradient tolerance:      1.000e-06
Number of pairs:         55
Davidson threshold:      2000
Diagonalization method:  LAPACK
Iter:    0   L: 127.8712558983   Grad. norm: 2.745641e-04
   *** Detected a saddle point. ***
       Augmented Hessian eigenvalues:  4.64e-05  2.03e-06 -3.09e-05 -4.44e-05 ... 
Iter:    1   L: 127.8712586397   Grad. norm: 2.707960e-04
Iter:    2   L: 127.8712622641   Grad. norm: 2.476908e-04
Iter:    3   L: 127.8712656575   Grad. norm: 1.863830e-04
Iter:    4   L: 127.8712676638   Grad. norm: 7.669429e-05
Iter:    5   L: 127.8712678913   Grad. norm: 6.425611e-06
   *** Likely close to a maximum now. ***
       Augmented Hessian eigenvalues:  9.47e-11 -4.74e-05 -5.32e-05 -7.09e-05 ... 
Iter:    6   L: 127.8712678913   Grad. norm: 2.843585e-10
LOCALIZATION HAS CONVERGED.

Eigenvalues of the Hessian:
  0 -4.734e-05
  1 -5.316e-05
  2 -7.093e-05
  3 -1.372e-01
  4 -1.378e-01
  5 -1.383e-01
  6 -4.134e-01
  7 -5.496e-01
  8 -5.514e-01
  9 -5.527e-01
    ...


------------------------------------------------------------------------------- 
                    LOCALIZED MOLECULAR ORBITAL COMPOSITIONS                   
------------------------------------------------------------------------------- 

The Mulliken populations for each LMO on each atom are computed
The LMO`s will be ordered according to atom index and type
  (A) Strongly localized MO`s have populations of >=0.950 on one atom
  (B) Two center bond orbitals have populations of >=0.850 on two atoms
  (C) Other MO`s are considered to be `delocalized`

FOUND  -  11 strongly local MO`s
       -   0 two center bond MO`s
       -   0 significantly delocalized MO`s

Rather strongly localized orbitals:
MO  10:   6C  -   1.001191
MO   9:   5C  -   1.001180
MO   8:   4S  -   1.000200
MO   7:   4S  -   0.999167
MO   6:   4S  -   0.999328
MO   5:   4S  -   0.999999
MO   4:   4S  -   1.000149
MO   3:   3C  -   1.001188
MO   2:   2C  -   1.001541
MO   1:   1C  -   1.001539
MO   0:   0C  -   1.001430
Localized MO's were stored in: 3_methylthiane_eq.proc0.loc

Warning: internal orbitals are localized - no re-canonicalization of internal orbitals

--------------------------
CLOSED-SHELL FOCK OPERATOR
--------------------------

RI-JK section for the Fock operator:
  RHF full Fock operator         ... done
  RHF frozen core Fock operator  ... done
Time needed for Fock operator              ...            2.996 sec
Reference energy                           ...   -631.829382348

--------------
DLPNO SETTINGS (2015 fully linear scaling implementation)
--------------

TCutMKN:           1.000e-03
TCutPAO:           1.000e-03
TCutPNO:           1.000e-07
TCutPNOSingles:    3.000e-09
TCutEN:            9.700e-01
TCutPAOExt:        1.000e-01
TCutPairs:         1.000e-05
TCutPre:           1.000e-07
TCutOSV:           1.000e-06
TCutDOij:          1.000e-05
TCutDO:            5.000e-03
TCutC:             1.000e-04
TCutCPAO:          1.000e-03
TCutCMO:           1.000e-03
TScaleDOMP2PreScr: 2.000e+00
TScaleMKNMP2PreScr:1.000e+01
TScalePNOMP2PreScr:1.000e+00
PAO overlap thresh 1.000e-08
Using PNOs for Singles Fock computation
Use new domains
Use fully linear algorithm
TCutTNO:           1.000e-09
TCutMP2Pairs:      1.000e-06
TCutDOStrong:      2.000e-03
TCutMKNStrong:     1.000e-02
TCutMKNWeak:       1.000e-01
TCutDOWeak:        4.000e-03
NTCutTNO:          1

--------------------------
Calculating differential overlap integrals ... ok
--------------------------
ELECTRON PAIR PRESCREENING
--------------------------

Dipole-based pair screening          .... used

   TCutDOij = 1.000000e-05
   TCutPre  = 1.000000e-07
   .... Finished loop over pairs
Total time spent in the prescreening                  ...     0.000 sec
sum of pair energies estimated for screened out pairs ...       0.000000000000 Eh
Thresholds for map construction and integral transformation for crude MP2:
   TCutMKN                    ...     1.0e-02
   TCutDO                     ...     1.0e-02
   TCutPairs                  ...     1.0e-05
   TCutPNO_CrudeMP2           ...     1.0e-07
   TCutPNOSingles_CrudeMP2    ...     3.0e-09
--------------------------------
LOCAL RI TRANSFORMATION (IAVPAO)
--------------------------------

Orbital window:      11 to 31
Number of PAOs:     382
Basis functions:    382 (144 shells)
Aux. functions:     968 (290 shells)

Processing maps (0.0 sec)
Average map sizes:
   Aux shells -> MOs              21.0
[...]
   TCutMKN   ...     1.0e-01
   TCutDO    ...     2.0e-02
   TCutCMO   ...     1.0e-03
   TCutCPAO  ...     1.0e-03

--------------------------------
LOCAL RI TRANSFORMATION (IAVPAO)
--------------------------------

Orbital window:      11 to 31
Number of PAOs:     382
Basis functions:    382 (144 shells)
Aux. functions:     968 (290 shells)

Processing maps (0.0 sec)
Average map sizes:
   Aux shells -> MOs              21.0
   Aux shells -> PAOs            382.0
   MOs        -> AO shells       140.6
   PAOs       -> AO shells       144.0

Calculating integrals (1.1 sec, 59.256 MB)
Sorting integrals (0.1 sec, 59.245 MB)
Total time for the integral transformation: 1.2 sec
--------------------------------
INITIAL GUESS AND PNO GENERATION
--------------------------------

PNO truncation parameters                   .... 
    ScaleTCutPNO       =        1.000e-02
    PAOOverlapThresh   =        1.000e-08

    TCutPairs          =        1.000e-05
    TCutPNO            =        1.000e-07
    TCutPNOSingles     =        3.000e-09
    TCutMP2Pairs       =        1.000e-06
    TCutMKN            =        1.000e-03
    TCutDO             =        5.000e-03

Pair selection                          .... not used
Type of local MP2 treatment                 .... full local PMP2
Strategy for PNO selection                  .... occupation number selection
Pair density normalization                  .... MP2 norm
Spin component scaling                      .... not used

PASS-1: Formation of initial guess LMP2 amplitudes
Initial amplitudes guess done. Entering LMP2 iteration loop:
   Max. no of iterations          ...  50
   Energy convergence tolerance   ...    1.0e-07
   Residual convergence tolerance ...    5.0e-07
   Fock matrix cutoff             ...    1.0e-05 Eh
   DIIS convergence acceleration parameters:
        Max # vectors in DIIS     ... 7
        Start iteration of DIIS   ... 0
        Levelshift                ... 2.000e-01
        Damping factor 1          ... 5.000e-01
        Damping factor 2          ... 1.000e+00
   L-MP2 PNO cut-off              ...   1.0e-09
   L-MP2 PNO cut-off (core)       ...   1.0e-11
                           *** Turning on DIIS ***
LMP2-Iter=   0:  ELMP2= -1.202914149475  DE=   2.2e-02 RMAX=   5.0e-03
LMP2-Iter=   1:  ELMP2= -1.214719828109  DE=   1.2e-02 RMAX=   2.5e-03
LMP2-Iter=   2:  ELMP2= -1.216653060538  DE=   1.9e-03 RMAX=   4.7e-04
LMP2-Iter=   3:  ELMP2= -1.216838124937  DE=   1.9e-04 RMAX=   1.8e-04
LMP2-Iter=   4:  ELMP2= -1.216844803746  DE=   6.7e-06 RMAX=   2.4e-05
LMP2-Iter=   5:  ELMP2= -1.216843184541  DE=   1.6e-06 RMAX=   7.7e-06
LMP2-Iter=   6:  ELMP2= -1.216842959787  DE=   2.2e-07 RMAX=   8.4e-07
LMP2-Iter=   7:  ELMP2= -1.216842952101  DE=   7.7e-09 RMAX=   3.2e-07
LMP2-Iter=   8:  ELMP2= -1.216842956454  DE=   4.4e-09 RMAX=   3.9e-08 => CONVERGED
PASS-2: Formation of Pair natural orbitals
   .... Finished loop over pairs

 PNO Occupation Number Statistics: 
  | Av. % of trace(Dij) retained        ...  99.502598842796
  | sigma^2 in % of trace(Dij) retained ...   4.40e-01
  | Av. % of trace(Di) retained         ...  99.999730157220
  | sigma^2 in % of trace(Di) retained  ...   4.82e-09
 Distributions of % trace(Dij) recovered:
  |       >= 99.9  ...    65 ( 28.1 % of all pairs)
  |   [90.0, 99.0) ...    32 ( 13.9 % of all pairs)
  |   [99.0, 99.9) ...   134 ( 58.0 % of all pairs)
 Distributions of % trace(Di) recovered :
  |       >= 99.9  ...    21 (100.0 % of all I-pairs )

Making pair pair interaction lists          ... done

                       ===========================
                        231 OF  231 PAIRS ARE KEPT
                       ===========================

Total time spent in the initial guess                 ...    36.349 sec
L-MP2 correlation energy (all non-screened pairs)     ...      -1.216842956454 Eh
L-MP2 PNO error correction                            ...      -0.000029535260 Eh
                                                          --------------------
Initial total L-MP2 energy (non-screened pairs)       ...      -1.216872491713 Eh

Initial PNO correlation energy                        ...      -1.215627161117 Eh
sum of pair energies estimated for screened out pairs ...       0.000000000000 Eh
sum of MP2 pair energies for pairs that were not kept ...       0.000000000000 Eh
sum of PNO error estimates for the kept pairs         ...      -0.001245330596 Eh
                                                          --------------------
sum of all corrections                                         -0.001245330596
Initial total correlation energy                               -1.216872491713
Thresholds for map construction and integral transformation for fine MP2 and CCSD(T) calculation:
   TCutMKN   ...     1.0e-03
   TCutDO    ...     5.0e-03
   TCutPairs ...     1.0e-05
   TCutCMO   ...     1.0e-03
   TCutCPAO  ...     1.0e-03

Time for aux screen maps:            0.005
Time for maps after fine MP2:            0.017
-----------------------------
LOCAL RI TRANSFORMATION (IJV)
-----------------------------

Orbital window:      11 to 31
Basis functions:    382 (144 shells)
Aux. functions:     968 (290 shells)

Processing maps (0.0 sec)
Average map sizes:
   Aux shells -> MOs(i)           21.0
   Aux shells -> MOs(j)           21.0
   MOs        -> AO shells       140.6

Calculating integrals (1.0 sec, 3.268 MB)
Sorting integrals (0.0 sec, 3.257 MB)
Total time for the integral transformation: 1.0 sec
--------------------------------
LOCAL RI TRANSFORMATION (VABPAO)
--------------------------------

Number of PAOs:     382
Basis functions:    382 (144 shells)
Aux. functions:     968 (290 shells)

Processing maps (0.0 sec)
Average map sizes:
   Aux shells -> PAOs            382.0
   PAOs       -> AO shells       144.0

Calculating integrals (3.0 sec, 2027.362 MB)
Finished


-------------------------------------
Pair Pair Term precalculation with     
RI-(ij|mn) and (im|jn) transformation  
ON THE FLY                             
-------------------------------------

   IBatch   1 (of   2)              ... done (  158.262 sec)
   IBatch   2 (of   2)              ... done (   40.200 sec)
Total EXT                           ...         198.528 sec

---------------------
RI-PNO TRANSFORMATION
---------------------

Total Number of PNOs                   ...  9807
Average number of PNOs per pair        ...    42
Maximal number of PNOs per pair        ...    71
   #pairs with  1 -  5 PNOs   :    0
   #pairs with  6 - 10 PNOs   :    8
   #pairs with 11 - 15 PNOs   :    9
   #pairs with 16 - 20 PNOs   :   15
   #pairs with 21 - 25 PNOs   :    8
   #pairs with 26 - 30 PNOs   :   29
   #pairs with 31 - 35 PNOs   :   22
   #pairs with 36 - 40 PNOs   :   11
   #pairs with 41 - 45 PNOs   :    4
   #pairs with 46 - 50 PNOs   :   37
   #pairs with 51 - 55 PNOs   :   34
   #pairs with 56 - 60 PNOs   :    6
   #pairs with 61 - 65 PNOs   :   17
   #pairs with 66 - 70 PNOs   :   25
   #pairs with 71 - 75 PNOs   :    6

Generation of (ij|ab)[P] integrals            ... on
Generation of (ia|bc)[P],(ja|bc)[P] integrals ... on
Storage of 3 and 4 external integrals         ... on
Generation of ALL (ka|bc)[P] integrals        ... on
Keep RI integrals in memory                   ... off

Ibatch:  1 (of  1)
Starting 2-4 index PNO integral generation ... done

Timings:
Total PNO integral transformation time     ...         34.431 sec
Size of the 3-external file                ...       206 MB
Size of the 4-external file                ...      1514 MB
Size of the IKJL file                      ...         0 MB
Size of the all 3-external file            ...      2170 MB
Size of the 1-external file                ...         4 MB

Making pair/pair overlap matrices          ... done (   14.798 sec)
Size of the pair overlap file              ... 525 MB
Redoing the guess amplitudes               ... done (    0.116 sec)

-------------------------
FINAL STARTUP INFORMATION
-------------------------

E(0)                                       ...   -631.829382348
E(L-MP2)                                   ...     -1.216872492
E(L-MP2) including corrections             ...     -1.216872492
Initial E(tot)                             ...   -633.046254839
<T|T>                                      ...      0.369427557
Number of pairs included                   ... 231
Total number of pairs                      ... 231

------------------------------------------------
                  RHF COUPLED CLUSTER ITERATIONS
------------------------------------------------

Number of PNO amplitudes to be optimized   ...       488255
Number of non-PNO amplitudes               ...     28297500
Untruncated number of regular amplitudes   ...     28297500

Iter       E(tot)           E(Corr)          Delta-E          Residual     Time
  0   -633.010325279     -1.179697601      0.037174890      0.012419456   14.36
                           *** Turning on DIIS ***
  1   -633.075632187     -1.245004509     -0.065306907      0.006628488   14.35
  2   -633.109611423     -1.278983745     -0.033979236      0.002130078   13.30
  3   -633.115624211     -1.284996533     -0.006012788      0.001169957   14.21
  4   -633.116803139     -1.286175461     -0.001178928      0.000330358   15.14
  5   -633.117017576     -1.286389898     -0.000214437      0.000137885   16.08
  6   -633.117062035     -1.286434357     -0.000044460      0.000063435   15.21
  7   -633.117068425     -1.286440747     -0.000006389      0.000027737   15.14
  8   -633.117069470     -1.286441792     -0.000001045      0.000013886   15.15
  9   -633.117069303     -1.286441625      0.000000167      0.000004938   15.10
               --- The Coupled-Cluster iterations have converged ---

----------------------
COUPLED CLUSTER ENERGY
----------------------

E(0)                                       ...   -631.829382348
E(CORR)(strong-pairs)                      ...     -1.286441625
E(CORR)(weak-pairs)                        ...     -0.001245331
E(CORR)(corrected)                         ...     -1.287686956
E(TOT)                                     ...   -633.117069303
Singles Norm <S|S>**1/2                    ...      0.058858897  
T1 diagnostic                              ...      0.009082125  

------------------
LARGEST AMPLITUDES
------------------
  18-> 32  18-> 32       0.043847
  16-> 32  16-> 32       0.043197
  27-> 37  27-> 37       0.037370
  12-> 32  12-> 32       0.036033
  11-> 32  11-> 32       0.034256
  26-> 39  26-> 39       0.033236
  20-> 38  20-> 38       0.032095
  22-> 39  22-> 39       0.030958
  25-> 39  25-> 39       0.030640
  25-> 32  25-> 32       0.028787
  23-> 38  23-> 38       0.028246
  26-> 32  26-> 32       0.028074
  20-> 32  20-> 32       0.027887
  24-> 38  24-> 38       0.027803
  22-> 32  22-> 32       0.027714
  27-> 32  27-> 37       0.027693


-------------------------------------------
DLPNO BASED TRIPLES CORRECTION
-------------------------------------------

Singles multiplier          ...  1.000000
TCutTNO                     ... 1.000e-09
TCutMP2Pairs                ... 1.000e-06
TCutDOStrong                ... 1.000e-02
TCutMKNStrong               ... 1.000e-02
TCutDOWeak                  ... 2.000e-02
TCutMKNWeak                 ... 1.000e-01

Fragment selection                          .... not used
Number of Triples that are to be computed   ...      1750

 . . . . . . . . .
10% done  
20% done  
30% done  
40% done  
50% done  
60% done  
70% done  
80% done  
90% done               (    240.274 sec)
Triples timings:
Total time for T0               ...   258.364 sec
Total time for Iterative (T)    ...     0.000 sec
Total time of overall (T)       ...   258.649 sec

Triples List generation         ...     0.000 sec
TNO generation                  ...    18.022 sec
Pair density generation         ...     0.020 sec
Look up tables                  ...     0.000 sec
Generating 3-index integrals    ...   163.109 sec
  Make 4-ind.int. from 3-ind.int...    22.917 sec
  Projecting amplitudes (D + S) ...    22.823 sec
  Downprojecting integrals      ...     0.004 sec
  Energy contr. (sum over a,b,c)...     8.798 sec
Fitting ET(->0)                 ...     0.000 sec

Everything after 3-index        ...    77.164 sec

Timing details:
 TNO integrals                  ...   184.078 sec
   Reading 3-index integrals    ...     0.466 sec
   Sorting integrals            ...    23.567 sec
       Sorting integrals 1      ...     0.001 sec
       Sorting integrals 2      ...    13.336 sec
       Sorting integrals 3      ...     0.573 sec
       Sorting integrals 4      ...     0.035 sec
       Sorting integrals 5      ...     0.220 sec
       Sorting integrals 6      ...     9.402 sec
   Calculating local VM**-1/2   ...     0.524 sec
   Orthogonal. integrals        ...     0.962 sec
   Multipl. 3-index integrals   ...   158.559 sec
   All concerning IRIab (w/TNO) ...    11.424 sec

 Calculate W0/W1                ...    22.615 sec
 W 3-ext contribution           ...    12.417 sec
 W 3-int contribution           ...     3.403 sec
 Sorting W                      ...     6.484 sec

 V exchange contribution        ...     3.021 sec

 Timings for Triples without generation
     of 3-index integrals       ...    77.163 sec
       0 weak pairs             ...    77.163 sec
       1 weak pair              ...     0.000 sec
       2 weak pairs             ...     0.000 sec
       3 weak pairs             ...     0.000 sec
  Extra time for extrapolation  ...     0.000 sec

Number of Triples   (0, 1, 2, 3 weak pairs; overall):   1750       0       0       0  (  1750)
Number of Atoms     (0, 1, 2, 3 weak pairs; overall):   18.3     0.0     0.0     0.0  (    19)
Number of PAOs      (0, 1, 2, 3 weak pairs; overall):  370.8     0.0     0.0     0.0  (   382)
Number of AuxFcns   (0, 1, 2, 3 weak pairs; overall):  388.0     0.0     0.0     0.0  (   968)
Number of TNOs      (0, 1, 2, 3 weak pairs         ):  103.6     0.0     0.0     0.0
Aver. Number of NTNO, Atoms, PAOs, AuxFcns / Triples:   1750   103.6    18.3   370.8   388.0

Triples Correction (T)                     ...     -0.054196246
Final correlation energy                   ...     -1.341883202
E(CCSD)                                    ...   -633.117069303
E(CCSD(T))                                 ...   -633.171265550


Maximum memory used throughout the entire calculation: 7634.2 MB


------------------------------------------------------------------------------- 
                                     TIMINGS                                   
------------------------------------------------------------------------------- 


Total execution time                   ...      711.111 sec

Localization of occupied MO's          ...        0.699 sec (  0.1%)
Fock Matrix Formation                  ...        2.996 sec (  0.4%)
Global overlap, Fock, MKN matrices     ...        0.224 sec (  0.0%)
Differential overlap integrals         ...        0.147 sec (  0.0%)
Organizing maps                        ...        0.051 sec (  0.0%)
RI 3-index integral generations        ...        6.434 sec (  0.9%)
RI-PNO integral transformation         ...      252.859 sec ( 35.6%)
Initial Guess                          ...       39.244 sec (  5.5%)
DIIS Solver                            ...       16.685 sec (  2.3%)
State Vector Update                    ...        0.038 sec (  0.0%)
Sigma-vector construction              ...      147.681 sec ( 20.8%)
  <D|H|D>(0-ext)                       ...        3.726 sec (  2.5% of sigma)
  <D|H|D>(2-ext Fock)                  ...        0.015 sec (  0.0% of sigma)
  <D|H|D>(2-ext)                       ...       21.759 sec ( 14.7% of sigma)
  <D|H|D>(4-ext)                       ...       15.042 sec ( 10.2% of sigma)
  <D|H|D>(4-ext-corr)                  ...       74.688 sec ( 50.6% of sigma)
  CCSD doubles correction              ...        0.231 sec (  0.2% of sigma)
  <S|H|S>                              ...        0.695 sec (  0.5% of sigma)
  <S|H|D>(1-ext)                       ...        0.459 sec (  0.3% of sigma)
  <D|H|S>(1-ext)                       ...        0.013 sec (  0.0% of sigma)
  <S|H|D>(3-ext)                       ...        0.578 sec (  0.4% of sigma)
  Fock-dressing                        ...       21.289 sec ( 14.4% of sigma)
  Singles amplitudes                   ...        0.621 sec (  0.4% of sigma)
  (ik|jl)-dressing                     ...        2.868 sec (  1.9% of sigma)
  (ij|ab),(ia|jb)-dressing             ...        2.957 sec (  2.0% of sigma)
  Pair energies                        ...        0.009 sec (  0.0% of sigma)
Total Time for computing (T)           ...      258.728 sec ( 36.4% of ALL)


-------------------------   --------------------
FINAL SINGLE POINT ENERGY      -633.171265549712
-------------------------   --------------------


                            ***************************************
                            *     ORCA property calculations      *
                            ***************************************

                                    ---------------------
                                    Active property flags
                                    ---------------------
   (+) Dipole Moment


------------------------------------------------------------------------------
                       ORCA ELECTRIC PROPERTIES CALCULATION
------------------------------------------------------------------------------

Dipole Moment Calculation                       ... on
Quadrupole Moment Calculation                   ... off
Polarizability Calculation                      ... off
GBWName                                         ... 3_methylthiane_eq.gbw
Electron density file                           ... 3_methylthiane_eq.scfp.tmp
The origin for moment calculation is the CENTER OF MASS  = ( 0.121863, -0.078045 -0.024022)

-------------
DIPOLE MOMENT
-------------
                                X             Y             Z
Electronic contribution:      7.29905      -4.44218      -1.32276
Nuclear contribution   :     -7.79939       4.99474       1.53726
                        -----------------------------------------
Total Dipole Moment    :     -0.50033       0.55257       0.21450
                        -----------------------------------------
Magnitude (a.u.)       :      0.77568
Magnitude (Debye)      :      1.97162



--------------------
Rotational spectrum 
--------------------
 
Rotational constants in cm-1:     0.108831     0.059721     0.041763 
Rotational constants in MHz :  3262.669010  1790.376219  1252.016853 

 Dipole components along the rotational axes: 
x,y,z [a.u.] :    -0.536281     0.520531     0.207668 
x,y,z [Debye]:    -1.363118     1.323084     0.527850 

 

Timings for individual modules:

Sum of individual times         ...      739.512 sec (=  12.325 min)
GTO integral calculation        ...        0.932 sec (=   0.016 min)   0.1 %
SCF iterations                  ...       20.737 sec (=   0.346 min)   2.8 %
MDCI module                     ...      717.844 sec (=  11.964 min)  97.1 %
                             ****ORCA TERMINATED NORMALLY****
TOTAL RUN TIME: 0 days 0 hours 12 minutes 20 seconds 901 msec
3_methylthiane_eq.gbw -> /home1/pantazis/klk/xyz_1/Sulphur_compounds/3_methylthiane_eq.gbw
3_methylthiane_eq.job -> /home1/pantazis/klk/xyz_1/Sulphur_compounds/3_methylthiane_eq.job
3_methylthiane_eq.loc -> /home1/pantazis/klk/xyz_1/Sulphur_compounds/3_methylthiane_eq.loc
3_methylthiane_eq.nodes -> /home1/pantazis/klk/xyz_1/Sulphur_compounds/3_methylthiane_eq.nodes
3_methylthiane_eq.prop -> /home1/pantazis/klk/xyz_1/Sulphur_compounds/3_methylthiane_eq.prop
3_methylthiane_eq_property.txt -> /home1/pantazis/klk/xyz_1/Sulphur_compounds/3_methylthiane_eq_property.txt
3_methylthiane_eq.xyz -> /home1/pantazis/klk/xyz_1/Sulphur_compounds/3_methylthiane_eq.xyz
cp: cannot stat 3_methylthiane_eq.asa.inp: No such file or directory
