! Job execution by suborca V 6.07 on ZEUS !
Job started from zeus1, running /scratch/pantazis/4_Me_THP_ax__8dDfJ7/orca/orca copied from /opt/orca on zeussn119 in /scratch/pantazis/4_Me_THP_ax__8dDfJ7
Job execution start: Thu Jun 27 13:30:43 CEST 2019
Shared library path: /scratch/pantazis/4_Me_THP_ax__8dDfJ7/orca:/opt/openmpi_1.10.2/lib:/opt/intel/mkl/lib/intel64:/opt/intel/lib/intel64:
PBS Job ID is: 158120.icqc
izeussn119
izeussn119
izeussn119
izeussn119
izeussn119
izeussn119
izeussn119
izeussn119

                                 *****************
                                 * O   R   C   A *
                                 *****************

           --- An Ab Initio, DFT and Semiempirical electronic structure package ---

                  #######################################################
                  #                        -***-                        #
                  #          Department of theory and spectroscopy      #
                  #               Directorship: Frank Neese             #
                  #        Max Planck Institute fuer Kohlenforschung    #
                  #                Kaiser Wilhelm Platz 1               #
                  #                 D-45470 Muelheim/Ruhr               #
                  #                      Germany                        #
                  #                                                     #
                  #                  All rights reserved                #
                  #                        -***-                        #
                  #######################################################


                         Program Version 4.1.x  -  STABLE  -
                                (SVN: $Rev: 14094$)
                ($Date: 2019-06-14 15:01:15 +0200 (Fri, 14 Jun 2019) $)

                         (BUILD: $Sun Jun 23 06:18:31 CEST 2019$)


 With contributions from (in alphabetic order):
   Daniel Aravena         : Magnetic Properties
   Michael Atanasov       : Ab Initio Ligand Field Theory
   Alexander A. Auer      : GIAO ZORA
   Ute Becker             : Parallelization
   Giovanni Bistoni       : ED, Open-shell LED
   Martin Brehm           : Molecular dynamics
   Dmytro Bykov           : SCF Hessian
   Vijay G. Chilkuri      : MRCI spin determinant printing
   Dipayan Datta          : RHF DLPNO-CCSD density
   Achintya Kumar Dutta   : EOM-CC, STEOM-CC
   Dmitry Ganyushin       : Spin-Orbit,Spin-Spin,Magnetic field MRCI
   Miquel Garcia          : C-PCM Hessian
   Yang Guo               : DLPNO-NEVPT2, CIM, IAO-localization
   Andreas Hansen         : Spin unrestricted coupled pair/coupled cluster methods
   Benjamin Helmich-Paris : CASSCF linear response (MC-RPA)
   Lee Huntington         : MR-EOM, pCC
   Robert Izsak           : Overlap fitted RIJCOSX, COSX-SCS-MP3, EOM
   Christian Kollmar      : KDIIS, OOCD, Brueckner-CCSD(T), CCSD density
   Simone Kossmann        : Meta GGA functionals, TD-DFT gradient, OOMP2, MP2 Hessian
   Martin Krupicka        : AUTO-CI
   Lucas Lang             : DCDCAS
   Dagmar Lenk            : GEPOL surface, SMD
   Dimitrios Liakos       : Extrapolation schemes; parallel MDCI
   Dimitrios Manganas     : ROCIS; embedding schemes
   Dimitrios Pantazis     : SARC Basis sets
   Taras Petrenko         : DFT Hessian,TD-DFT gradient, ASA, ECA, R-Raman, ABS, FL, XAS/XES, NRVS
   Peter Pinski           : DLPNO-MP2, DLPNO-MP2 Gradient
   Christoph Reimann      : Effective Core Potentials
   Marius Retegan         : Local ZFS, SOC
   Christoph Riplinger    : Optimizer, TS searches, QM/MM, DLPNO-CCSD(T), (RO)-DLPNO pert. Triples
   Tobias Risthaus        : Range-separated hybrids, TD-DFT gradient, RPA, STAB
   Michael Roemelt        : Restricted open shell CIS
   Masaaki Saitow         : Open-shell DLPNO
   Barbara Sandhoefer     : DKH picture change effects
   Avijit Sen             : IP-ROCIS
   Kantharuban Sivalingam : CASSCF convergence, NEVPT2, FIC-MRCI
   Bernardo de Souza      : ESD, SOC TD-DFT
   Georgi Stoychev        : AutoAux, RI-MP2 NMR
   Willem Van den Heuvel  : Paramagnetic NMR
   Boris Wezisla          : Elementary symmetry handling
   Frank Wennmohs         : Technical directorship


 We gratefully acknowledge several colleagues who have allowed us to
 interface, adapt or use parts of their codes:
   Stefan Grimme, W. Hujo, H. Kruse,             : VdW corrections, initial TS optimization,
                  C. Bannwarth                     DFT functionals, gCP, sTDA/sTD-DF
   Ed Valeev                                     : LibInt (2-el integral package), F12 methods
   Garnet Chan, S. Sharma, J. Yang, R. Olivares  : DMRG
   Ulf Ekstrom                                   : XCFun DFT Library
   Mihaly Kallay                                 : mrcc  (arbitrary order and MRCC methods)
   Andreas Klamt, Michael Diedenhofen            : otool_cosmo (COSMO solvation model)
   Jiri Pittner, Ondrej Demel                    : Mk-CCSD
   Frank Weinhold                                : gennbo (NPA and NBO analysis)
   Christopher J. Cramer and Donald G. Truhlar   : smd solvation model
   Lars Goerigk                                  : TD-DFT with DH, B97 family of functionals
   V. Asgeirsson, H. Jonsson                     : NEB implementation
   FAccTs GmbH                                   : IRC, NEB, NEB-TS, Multilevel


 Your calculation uses the libint2 library for the computation of 2-el integrals
 For citations please refer to: http://libint.valeyev.net

 This ORCA versions uses:
   CBLAS   interface :  Fast vector & matrix operations
   LAPACKE interface :  Fast linear algebra routines
   SCALAPACK package :  Parallel linear algebra routines




***************************************
The coordinates will be read from file: 4_Me_THP_ax.xyz
***************************************


----- Orbital basis set information -----
Your calculation utilizes the basis: cc-pVTZ 
       H, B-Ne : Obtained from the ccRepo (grant-hill.group.shef.ac.uk/ccrepo) Feb. 2017
                 T. H. Dunning, Jr., J. Chem. Phys. 90, 1007 (1989)
            He : Obtained from the ccRepo (grant-hill.group.shef.ac.uk/ccrepo) Feb. 2017
                 D. E. Woon, T. H. Dunning, Jr., J. Chem. Phys. 100, 2975 (1994)
  Li-Be, Na-Mg : Obtained from the ccRepo (grant-hill.group.shef.ac.uk/ccrepo) Feb. 2017
                 B. P. Prascher, D. E. Woon, K. A. Peterson, T. H. Dunning, Jr., A. K. Wilson, Theor. Chem. Acc. 128, 69 (2011)
         Al-Ar : Obtained from the ccRepo (grant-hill.group.shef.ac.uk/ccrepo) Feb. 2017
                 D. E. Woon, T. H. Dunning, Jr., J. Chem. Phys. 98, 1358 (1993)
            Ca : Obtained from the Peterson Research Group Website (tyr0.chem.wsu.edu/~kipeters) Feb. 2017
                 J. Koput, K. A. Peterson, J. Phys. Chem. 106, 9595 (2002)
         Sc-Zn : Obtained from the ccRepo (grant-hill.group.shef.ac.uk/ccrepo) Feb. 2017
                 N. B. Balabanov, K. A. Peterson, J. Chem. Phys. 123, 064107 (2005)
                 N. B. Balabanov, K. A. Peterson, J. Chem. Phys. 125, 074110 (2006)
         Ga-Kr : Obtained from the ccRepo (grant-hill.group.shef.ac.uk/ccrepo) Feb. 2017
                 A. K. Wilson, D. E. Woon, K. A. Peterson, T. H. Dunning, Jr., J. Chem. Phys. 110, 7667 (1999)
             Y : Obtained from the ccRepo (grant-hill.group.shef.ac.uk/ccrepo) Feb. 2017
                 K. A. Peterson, D. Figgen, M. Dolg, H. Stoll, J. Chem. Phys. 126, 124101 (2007)
        Ag, Au : Obtained from the Peterson Research Group Website (tyr0.chem.wsu.edu/~kipeters) Feb. 2017
                 K. A. Peterson, C. Puzzarini, Theor. Chem. Acc. 114, 283 (2005)

----- AuxC basis set information -----
Your calculation utilizes the auxiliary basis: cc-pVTZ/C 
  Obtained from the EMSL Basis Set Exchange (bse.pnl.gov) Feb. 2017
  H-He, B-F, Al-Ar, Ga-Kr : F. Weigend, A. Kohn, C. Hattig, J. Chem. Phys. 116, 3175 (2002)
             Li-Be, Na-Mg : C. Haettig, Phys. Chem. Chem. Phys. 7, 59 (2005)
                       Ne : C. Haettig, Phys. Chem. Chem. Phys. 7, 59 (2005)
                            F. Weigend, A. Kohn, C. Hattig, J. Chem. Phys. 116, 3175 (2002)
                    Sc-Zn : J. G. Hill, J. A. Platts, J. Chem. Phys. 128, 044104 (2008)

----- AuxJK basis set information -----
Your calculation utilizes the auxiliary basis: cc-pVTZ/JK 
  H, B-F, Al-Cl, Ga-Br : Obtained from the TURBOMOLE 7.0 basis set library

================================================================================
                                        WARNINGS
                       Please study these warnings very carefully!
================================================================================


WARNING: MDCI localization with Augmented Hessian Foster-Boys
  ===> : Switching off randomization!

WARNING: Post HF methods need fully converged wavefunctions
  ===> : Setting SCFConvForced true
         You can overwrite this default with %scf ConvForced false 


INFO   : the flag for use of LIBINT has been found!

================================================================================
                                       INPUT FILE
================================================================================
NAME = 4_Me_THP_ax.inp
|  1> ! RHF DLPNO-CCSD(T) cc-pVTZ RIJK cc-pVTZ/JK cc-pVTZ/C
|  2> ! KDIIS SOSCF TightSCF TightPNO
|  3> 
|  4> %pal nprocs 8 end
|  5> 
|  6> %maxcore 8000
|  7> 
|  8> %scf maxiter 300
|  9>      shift shift 0.2 erroff 0.1 end
| 10> end
| 11> 
| 12> * xyzfile 0 1 4_Me_THP_ax.xyz 
| 13> 
| 14> 
| 15>                          ****END OF INPUT****
================================================================================

                       ****************************
                       * Single Point Calculation *
                       ****************************

---------------------------------
CARTESIAN COORDINATES (ANGSTROEM)
---------------------------------
  C      0.995250    1.182860   -0.333140
  O      1.763340    0.000020   -0.115230
  C      0.995270   -1.182860   -0.333140
  C     -0.209710   -1.255930    0.609450
  C     -1.105220   -0.000000    0.506730
  C     -0.209740    1.255940    0.609440
  C     -1.985450   -0.000020   -0.755110
  H     -2.631820   -0.884960   -0.777690
  H     -1.398090    0.000010   -1.679250
  H     -2.631870    0.884890   -0.777680
  H      0.674010   -1.222090   -1.387710
  H      1.678500   -2.019650   -0.162060
  H      0.165820   -1.348920    1.636430
  H     -0.790300   -2.162600    0.393480
  H     -1.783140   -0.000010    1.370810
  H      0.165780    1.348950    1.636420
  H      1.678450    2.019670   -0.162070
  H      0.673960    1.222070   -1.387720
  H     -0.790330    2.162600    0.393450

----------------------------
CARTESIAN COORDINATES (A.U.)
----------------------------
  NO LB      ZA    FRAG     MASS         X           Y           Z
   0 C     6.0000    0    12.011    1.880750    2.235281   -0.629543
   1 O     8.0000    0    15.999    3.332230    0.000038   -0.217753
   2 C     6.0000    0    12.011    1.880788   -2.235281   -0.629543
   3 C     6.0000    0    12.011   -0.396294   -2.373364    1.151694
   4 C     6.0000    0    12.011   -2.088563   -0.000000    0.957581
   5 C     6.0000    0    12.011   -0.396351    2.373383    1.151675
   6 C     6.0000    0    12.011   -3.751957   -0.000038   -1.426951
   7 H     1.0000    0     1.008   -4.973419   -1.672332   -1.469621
   8 H     1.0000    0     1.008   -2.642007    0.000019   -3.173323
   9 H     1.0000    0     1.008   -4.973514    1.672200   -1.469602
  10 H     1.0000    0     1.008    1.273694   -2.309415   -2.622392
  11 H     1.0000    0     1.008    3.171905   -3.816585   -0.306249
  12 H     1.0000    0     1.008    0.313354   -2.549089    3.092405
  13 H     1.0000    0     1.008   -1.493451   -4.086722    0.743569
  14 H     1.0000    0     1.008   -3.369646   -0.000019    2.590455
  15 H     1.0000    0     1.008    0.313279    2.549146    3.092386
  16 H     1.0000    0     1.008    3.171811    3.816623   -0.306268
  17 H     1.0000    0     1.008    1.273600    2.309378   -2.622411
  18 H     1.0000    0     1.008   -1.493507    4.086722    0.743513

--------------------------------
INTERNAL COORDINATES (ANGSTROEM)
--------------------------------
 C      0   0   0     0.000000000000     0.00000000     0.00000000
 O      1   0   0     1.427080054447     0.00000000     0.00000000
 C      2   1   0     1.427102444606   111.96378446     0.00000000
 C      3   2   1     1.531597836705   111.65400287   299.76677434
 C      4   3   2     1.545913879684   112.09177049    55.30052461
 C      1   2   3     1.531600027063   111.65553622    60.23356083
 C      5   4   3     1.538520405747   112.69997872    76.48499151
 H      7   5   4     1.096094355838   110.75002996    58.58500581
 H      7   5   4     1.095000689543   112.66226901   298.27831571
 H      7   5   4     1.096099415838   110.74978428   177.97283319
 H      3   2   1     1.103115980031   109.40185516    62.97326844
 H      3   2   1     1.093750018697   105.90582175   178.80748274
 H      4   3   2     1.097432385799   108.10419550   294.86719095
 H      4   3   2     1.098079358653   109.53169301   178.42406019
 H      5   4   3     1.098275818226   107.77489459   194.30053120
 H      6   1   2     1.097430658812   108.10421312    65.13256484
 H      1   2   3     1.093745016446   105.90621910   181.19281350
 H      1   2   3     1.103133566074   109.40209782   297.02815907
 H      6   1   2     1.098075035596   109.53165178   181.57565285

---------------------------
INTERNAL COORDINATES (A.U.)
---------------------------
 C      0   0   0     0.000000000000     0.00000000     0.00000000
 O      1   0   0     2.696790474086     0.00000000     0.00000000
 C      2   1   0     2.696832785355   111.96378446     0.00000000
 C      3   2   1     2.894300458679   111.65400287   299.76677434
 C      4   3   2     2.921353859231   112.09177049    55.30052461
 C      1   2   3     2.894304597856   111.65553622    60.23356083
 C      5   4   3     2.907382218311   112.69997872    76.48499151
 H      7   5   4     2.071318149471   110.75002996    58.58500581
 H      7   5   4     2.069251419692   112.66226901   298.27831571
 H      7   5   4     2.071327711485   110.74978428   177.97283319
 H      3   2   1     2.084587096211   109.40185516    62.97326844
 H      3   2   1     2.066887994309   105.90582175   178.80748274
 H      4   3   2     2.073846659656   108.10419550   294.86719095
 H      4   3   2     2.075069261166   109.53169301   178.42406019
 H      5   4   3     2.075440515955   107.77489459   194.30053120
 H      6   1   2     2.073843396123   108.10421312    65.13256484
 H      1   2   3     2.066878541424   105.90621910   181.19281350
 H      1   2   3     2.084620329017   109.40209782   297.02815907
 H      6   1   2     2.075061091773   109.53165178   181.57565285

---------------------
BASIS SET INFORMATION
---------------------
There are 3 groups of distinct atoms

 Group   1 Type C   : 18s5p2d1f contracted to 4s3p2d1f pattern {8811/311/11/1}
 Group   2 Type O   : 18s5p2d1f contracted to 4s3p2d1f pattern {8811/311/11/1}
 Group   3 Type H   : 5s2p1d contracted to 3s2p1d pattern {311/11/1}

Atom   0C    basis set group =>   1
Atom   1O    basis set group =>   2
Atom   2C    basis set group =>   1
Atom   3C    basis set group =>   1
Atom   4C    basis set group =>   1
Atom   5C    basis set group =>   1
Atom   6C    basis set group =>   1
Atom   7H    basis set group =>   3
Atom   8H    basis set group =>   3
Atom   9H    basis set group =>   3
Atom  10H    basis set group =>   3
Atom  11H    basis set group =>   3
Atom  12H    basis set group =>   3
Atom  13H    basis set group =>   3
Atom  14H    basis set group =>   3
Atom  15H    basis set group =>   3
Atom  16H    basis set group =>   3
Atom  17H    basis set group =>   3
Atom  18H    basis set group =>   3
-------------------------------
AUXILIARY BASIS SET INFORMATION
-------------------------------
There are 3 groups of distinct atoms

 Group   1 Type C   : 8s6p5d3f1g contracted to 8s6p5d3f1g pattern {11111111/111111/11111/111/1}
 Group   2 Type O   : 8s6p5d3f1g contracted to 8s6p5d3f1g pattern {11111111/111111/11111/111/1}
 Group   3 Type H   : 4s3p2d1f contracted to 4s3p2d1f pattern {1111/111/11/1}

Atom   0C    basis set group =>   1
Atom   1O    basis set group =>   2
Atom   2C    basis set group =>   1
Atom   3C    basis set group =>   1
Atom   4C    basis set group =>   1
Atom   5C    basis set group =>   1
Atom   6C    basis set group =>   1
Atom   7H    basis set group =>   3
Atom   8H    basis set group =>   3
Atom   9H    basis set group =>   3
Atom  10H    basis set group =>   3
Atom  11H    basis set group =>   3
Atom  12H    basis set group =>   3
Atom  13H    basis set group =>   3
Atom  14H    basis set group =>   3
Atom  15H    basis set group =>   3
Atom  16H    basis set group =>   3
Atom  17H    basis set group =>   3
Atom  18H    basis set group =>   3
-------------------------------
AUXILIARY BASIS SET INFORMATION
-------------------------------
There are 3 groups of distinct atoms

 Group   1 Type C   : 10s7p5d2f1g contracted to 10s7p5d2f1g pattern {1111111111/1111111/11111/11/1}
 Group   2 Type O   : 10s7p5d2f1g contracted to 10s7p5d2f1g pattern {1111111111/1111111/11111/11/1}
 Group   3 Type H   : 4s3p2d1f contracted to 4s3p2d1f pattern {1111/111/11/1}

Atom   0C    basis set group =>   1
Atom   1O    basis set group =>   2
Atom   2C    basis set group =>   1
Atom   3C    basis set group =>   1
Atom   4C    basis set group =>   1
Atom   5C    basis set group =>   1
Atom   6C    basis set group =>   1
Atom   7H    basis set group =>   3
Atom   8H    basis set group =>   3
Atom   9H    basis set group =>   3
Atom  10H    basis set group =>   3
Atom  11H    basis set group =>   3
Atom  12H    basis set group =>   3
Atom  13H    basis set group =>   3
Atom  14H    basis set group =>   3
Atom  15H    basis set group =>   3
Atom  16H    basis set group =>   3
Atom  17H    basis set group =>   3
Atom  18H    basis set group =>   3


           ************************************************************
           *        Program running with 8 parallel MPI-processes     *
           *              working on a common directory               *
           ************************************************************
------------------------------------------------------------------------------
                           ORCA GTO INTEGRAL CALCULATION
                           -- RI-GTO INTEGRALS CHOSEN --
------------------------------------------------------------------------------

                         BASIS SET STATISTICS AND STARTUP INFO

Gaussian basis set:
 # of primitive gaussian shells          ...  278
 # of primitive gaussian functions       ...  542
 # of contracted shells                  ...  142
 # of contracted basis functions         ...  378
 Highest angular momentum                ...    3
 Maximum contraction depth               ...    8
Auxiliary gaussian basis set:
 # of primitive gaussian shells          ...  295
 # of primitive gaussian functions       ...  913
 # of contracted shells                  ...  295
 # of contracted aux-basis functions     ...  913
 Highest angular momentum                ...    4
 Maximum contraction depth               ...    1
Ratio of auxiliary to basis functions    ...  2.42
Integral package used                  ... LIBINT
 One Electron integrals                  ... done
 Ordering auxiliary basis shells         ... done
 Integral threshhold             Thresh  ...  2.500e-11
 Primitive cut-off               TCut    ...  2.500e-12
 Pre-screening matrix                    ... done
 Shell pair data                         ... 
 Ordering of the shell pairs             ... done (   0.002 sec) 9801 of 10153 pairs
 Determination of significant pairs      ... done (   0.000 sec)
 Creation of shell pair data             ... done (   0.002 sec)
 Storage of shell pair data              ... done (   0.010 sec)
 Shell pair data done in (   0.014 sec)
 Computing two index integrals           ... done
 Cholesky decomposition of the V-matrix  ... done


Timings:
 Total evaluation time                   ...   0.560 sec (  0.009 min)
 One electron matrix time                ...   0.113 sec (  0.002 min) = 20.1%
 Schwartz matrix evaluation time         ...   0.251 sec (  0.004 min) = 44.9%
 Two index repulsion integral time       ...   0.084 sec (  0.001 min) = 15.1%
 Cholesky decomposition of V             ...   0.072 sec (  0.001 min) = 12.8%
 Three index repulsion integral time     ...   0.000 sec (  0.000 min) =  0.0%



           ************************************************************
           *        Program running with 8 parallel MPI-processes     *
           *              working on a common directory               *
           ************************************************************
-------------------------------------------------------------------------------
                                 ORCA SCF
-------------------------------------------------------------------------------

------------
SCF SETTINGS
------------
Hamiltonian:
 Ab initio Hamiltonian  Method          .... Hartree-Fock(GTOs)
 RI-approximation to the Coulomb term is turned on
   Number of auxiliary basis functions  .... 913
   RI-JK (J+K treated both via RI)      .... on


General Settings:
 Integral files         IntName         .... 4_Me_THP_ax
 Hartree-Fock type      HFTyp           .... RHF
 Total Charge           Charge          ....    0
 Multiplicity           Mult            ....    1
 Number of Electrons    NEL             ....   56
 Basis Dimension        Dim             ....  378
 Nuclear Repulsion      ENuc            ....    335.3954002950 Eh

Convergence Acceleration:
 DIIS                   CNVDIIS         .... off
 Newton-Raphson         CNVNR           .... off
 SOSCF                  CNVSOSCF        .... on
   Start iteration      SOSCFMaxIt      ....   150
   Startup grad/error   SOSCFStart      ....  0.003300
 Level Shifting         CNVShift        .... on
   Level shift para.    LevelShift      ....    0.2000
   Turn off err/grad.   ShiftErr        ....    0.1000
 Zerner damping         CNVZerner       .... off
 Static damping         CNVDamp         .... off
 Fernandez-Rico         CNVRico         .... off

SCF Procedure:
 Maximum # iterations   MaxIter         ....   300
 SCF integral mode      SCFMode         .... Direct
   Integral package                     .... LIBINT
 Reset frequency        DirectResetFreq ....    20
 Integral Threshold     Thresh          ....  2.500e-11 Eh
 Primitive CutOff       TCut            ....  2.500e-12 Eh

Convergence Tolerance:
 Convergence Check Mode ConvCheckMode   .... Total+1el-Energy
 Convergence forced     ConvForced      .... 1
 Energy Change          TolE            ....  1.000e-08 Eh
 1-El. energy change                    ....  1.000e-05 Eh
 Orbital Gradient       TolG            ....  1.000e-05
 Orbital Rotation angle TolX            ....  1.000e-05


Diagonalization of the overlap matrix:
Smallest eigenvalue                        ... 2.843e-04
Time for diagonalization                   ...    0.029 sec
Threshold for overlap eigenvalues          ... 1.000e-08
Number of eigenvalues below threshold      ... 0
Time for construction of square roots      ...    0.035 sec
Total time needed                          ...    0.065 sec

-------------------
DFT GRID GENERATION
-------------------

General Integration Accuracy     IntAcc      ...  4.340
Radial Grid Type                 RadialGrid  ... Gauss-Chebyshev
Angular Grid (max. acc.)         AngularGrid ... Lebedev-110
Angular grid pruning method      GridPruning ... 3 (G Style)
Weight generation scheme         WeightScheme... Becke
Basis function cutoff            BFCut       ...    1.0000e-11
Integration weight cutoff        WCut        ...    1.0000e-14
Grids for H and He will be reduced by one unit

# of grid points (after initial pruning)     ...  21180 (   0.0 sec)
# of grid points (after weights+screening)   ...  19277 (   0.0 sec)
nearest neighbour list constructed           ...    0.0 sec
Grid point re-assignment to atoms done       ...    0.0 sec
Grid point division into batches done        ...    0.0 sec
Reduced shell lists constructed in    0.2 sec

Total number of grid points                  ...    19277
Total number of batches                      ...      308
Average number of points per batch           ...       62
Average number of grid points per atom       ...     1015
Average number of shells per batch           ...   114.58 (80.69%)
Average number of basis functions per batch  ...   298.23 (78.90%)
Average number of large shells per batch     ...    89.90 (78.46%)
Average number of large basis fcns per batch ...   231.30 (77.56%)
Average number of aux-shells per batch       ...   114.58 (38.84%)
Average number of aux functions per batch    ...   298.23 (32.66%)
Maximum spatial batch extension              ...  15.83,  4.62, 25.65 au
Average spatial batch extension              ...   0.30,  0.24,  0.36 au

Time for grid setup =    0.185 sec

------------------------------
INITIAL GUESS: MODEL POTENTIAL
------------------------------
Loading Hartree-Fock densities                     ... done
Calculating cut-offs                               ... done
Setting up the integral package                    ... done
Initializing the effective Hamiltonian             ... done
Starting the Coulomb interaction                   ... done (   0.1 sec)
Reading the grid                                   ... done
Mapping shells                                     ... done
Starting the XC term evaluation                    ... done (   0.1 sec)
Transforming the Hamiltonian                       ... done (   0.0 sec)
Diagonalizing the Hamiltonian                      ... done (   0.0 sec)
Back transforming the eigenvectors                 ... done (   0.0 sec)
Now organizing SCF variables                       ... done
                      ------------------
                      INITIAL GUESS DONE (   0.5 sec)
                      ------------------
--------------
SCF ITERATIONS
--------------
ITER       Energy         Delta-E        Max-DP      RMS-DP      [F,P]   Gradient Norm
                             ****Turning on KDIIS(Cayley)****
  0   -308.8022764786   0.000000000000 0.01111353  0.00023424  0.1648595   0.147002944
  1   -308.8993392080  -0.097062729348 0.01820095  0.00027459  0.1511118   0.128180849
  2   -308.9843708147  -0.085031606750 0.02988279  0.00047125  0.1215963   0.103989315
  3   -309.0891663330  -0.104795518297 0.04552201  0.00075158  0.0732615   0.063800015
                      *** Initiating the SOSCF procedure ***
                           *** Shutting down KDIIS ***
                      *** Re-Reading the Fockian *** 
                      *** Removing any level shift *** 
ITER      Energy       Delta-E        Grad      Rot      Max-DP    RMS-DP
  4   -309.15620493  -0.0670385977  0.002315  0.002315  0.001798  0.000047
  5   -309.15645609  -0.0002511605  0.001092  0.001486  0.001353  0.000037
  6   -309.15649540  -0.0000393103  0.000444  0.000337  0.000670  0.000015
  7   -309.15650866  -0.0000132630  0.000076  0.000086  0.000351  0.000006
  8   -309.15650902  -0.0000003543  0.000042  0.000039  0.000158  0.000002
  9   -309.15650910  -0.0000000807  0.000013  0.000008  0.000019  0.000001
 10   -309.15650911  -0.0000000077  0.000003  0.000003  0.000010  0.000000
                  ***Gradient check signals convergence***
              ***Rediagonalizing the Fockian in SOSCF/NRSCF***

               *****************************************************
               *                     SUCCESS                       *
               *           SCF CONVERGED AFTER  11 CYCLES          *
               *****************************************************


----------------
TOTAL SCF ENERGY
----------------

Total Energy       :         -309.15650911 Eh           -8412.57630 eV

Components:
Nuclear Repulsion  :          335.39540029 Eh            9126.57283 eV
Electronic Energy  :         -644.55190940 Eh          -17539.14913 eV
One Electron Energy:        -1084.42377062 Eh          -29508.67099 eV
Two Electron Energy:          439.87186122 Eh           11969.52186 eV

Virial components:
Potential Energy   :         -617.75745937 Eh          -16810.03508 eV
Kinetic Energy     :          308.60095026 Eh            8397.45878 eV
Virial Ratio       :            2.00180025


---------------
SCF CONVERGENCE
---------------

  Last Energy change         ...   -7.0554e-10  Tolerance :   1.0000e-08
  Last MAX-Density change    ...    5.6402e-06  Tolerance :   1.0000e-07
  Last RMS-Density change    ...    1.0278e-07  Tolerance :   5.0000e-09
  Last Orbital Gradient      ...    1.0141e-06  Tolerance :   1.0000e-05
  Last Orbital Rotation      ...    1.4984e-06  Tolerance :   1.0000e-05

             **** THE GBW FILE WAS UPDATED (4_Me_THP_ax.gbw) ****
             **** DENSITY FILE WAS UPDATED (4_Me_THP_ax.scfp.tmp) ****
             **** ENERGY FILE WAS UPDATED (4_Me_THP_ax.en.tmp) ****
----------------
ORBITAL ENERGIES
----------------

  NO   OCC          E(Eh)            E(eV) 
   0   2.0000     -20.544324      -559.0395 
   1   2.0000     -11.268577      -306.6336 
   2   2.0000     -11.268558      -306.6330 
   3   2.0000     -11.231153      -305.6152 
   4   2.0000     -11.219802      -305.3063 
   5   2.0000     -11.219778      -305.3057 
   6   2.0000     -11.216078      -305.2050 
   7   2.0000      -1.360958       -37.0335 
   8   2.0000      -1.089806       -29.6551 
   9   2.0000      -1.020020       -27.7561 
  10   2.0000      -0.950177       -25.8556 
  11   2.0000      -0.856585       -23.3089 
  12   2.0000      -0.850457       -23.1421 
  13   2.0000      -0.739711       -20.1286 
  14   2.0000      -0.674621       -18.3574 
  15   2.0000      -0.632881       -17.2216 
  16   2.0000      -0.625010       -17.0074 
  17   2.0000      -0.596594       -16.2342 
  18   2.0000      -0.595244       -16.1974 
  19   2.0000      -0.571617       -15.5545 
  20   2.0000      -0.537448       -14.6247 
  21   2.0000      -0.521499       -14.1907 
  22   2.0000      -0.498505       -13.5650 
  23   2.0000      -0.494958       -13.4685 
  24   2.0000      -0.472728       -12.8636 
  25   2.0000      -0.443907       -12.0793 
  26   2.0000      -0.440877       -11.9969 
  27   2.0000      -0.398178       -10.8350 
  28   0.0000       0.134183         3.6513 
  29   0.0000       0.156608         4.2615 
  30   0.0000       0.167584         4.5602 
  31   0.0000       0.176123         4.7925 
  32   0.0000       0.197013         5.3610 
  33   0.0000       0.202373         5.5069 
  34   0.0000       0.215077         5.8525 
  35   0.0000       0.216937         5.9032 
  36   0.0000       0.224688         6.1141 
  37   0.0000       0.240963         6.5569 
  38   0.0000       0.265565         7.2264 
  39   0.0000       0.268035         7.2936 
  40   0.0000       0.278757         7.5854 
  41   0.0000       0.306367         8.3367 
  42   0.0000       0.332231         9.0405 
  43   0.0000       0.338189         9.2026 
  44   0.0000       0.361422         9.8348 
  45   0.0000       0.382045        10.3960 
  46   0.0000       0.386495        10.5171 
  47   0.0000       0.405066        11.0224 
  48   0.0000       0.414519        11.2796 
  49   0.0000       0.436180        11.8691 
  50   0.0000       0.458551        12.4778 
  51   0.0000       0.465025        12.6540 
  52   0.0000       0.474861        12.9216 
  53   0.0000       0.496076        13.4989 
  54   0.0000       0.542472        14.7614 
  55   0.0000       0.546200        14.8629 
  56   0.0000       0.557974        15.1833 
  57   0.0000       0.566681        15.4202 
  58   0.0000       0.579759        15.7760 
  59   0.0000       0.589536        16.0421 
  60   0.0000       0.590207        16.0603 
  61   0.0000       0.597837        16.2680 
  62   0.0000       0.618832        16.8393 
  63   0.0000       0.620087        16.8734 
  64   0.0000       0.631302        17.1786 
  65   0.0000       0.645089        17.5538 
  66   0.0000       0.655794        17.8451 
  67   0.0000       0.657280        17.8855 
  68   0.0000       0.659720        17.9519 
  69   0.0000       0.666284        18.1305 
  70   0.0000       0.671959        18.2849 
  71   0.0000       0.680770        18.5247 
  72   0.0000       0.693300        18.8656 
  73   0.0000       0.695988        18.9388 
  74   0.0000       0.719025        19.5657 
  75   0.0000       0.723549        19.6888 
  76   0.0000       0.786132        21.3918 
  77   0.0000       0.788150        21.4467 
  78   0.0000       0.798551        21.7297 
  79   0.0000       0.800651        21.7868 
  80   0.0000       0.845143        22.9975 
  81   0.0000       0.874478        23.7957 
  82   0.0000       0.915412        24.9096 
  83   0.0000       0.954400        25.9706 
  84   0.0000       0.963426        26.2162 
  85   0.0000       0.993027        27.0216 
  86   0.0000       1.008435        27.4409 
  87   0.0000       1.009374        27.4665 
  88   0.0000       1.027647        27.9637 
  89   0.0000       1.030107        28.0306 
  90   0.0000       1.056600        28.7515 
  91   0.0000       1.066698        29.0263 
  92   0.0000       1.088238        29.6125 
  93   0.0000       1.109621        30.1943 
  94   0.0000       1.130594        30.7650 
  95   0.0000       1.140226        31.0271 
  96   0.0000       1.169285        31.8179 
  97   0.0000       1.171306        31.8729 
  98   0.0000       1.187842        32.3228 
  99   0.0000       1.190876        32.4054 
 100   0.0000       1.211573        32.9686 
 101   0.0000       1.227575        33.4040 
 102   0.0000       1.245789        33.8997 
 103   0.0000       1.257933        34.2301 
 104   0.0000       1.275834        34.7172 
 105   0.0000       1.284894        34.9637 
 106   0.0000       1.303847        35.4795 
 107   0.0000       1.317130        35.8409 
 108   0.0000       1.319062        35.8935 
 109   0.0000       1.347693        36.6726 
 110   0.0000       1.351255        36.7695 
 111   0.0000       1.357147        36.9298 
 112   0.0000       1.363382        37.0995 
 113   0.0000       1.377709        37.4894 
 114   0.0000       1.397041        38.0154 
 115   0.0000       1.405026        38.2327 
 116   0.0000       1.421357        38.6771 
 117   0.0000       1.427426        38.8422 
 118   0.0000       1.439663        39.1752 
 119   0.0000       1.444869        39.3169 
 120   0.0000       1.468312        39.9548 
 121   0.0000       1.481894        40.3244 
 122   0.0000       1.489706        40.5370 
 123   0.0000       1.504723        40.9456 
 124   0.0000       1.514285        41.2058 
 125   0.0000       1.540788        41.9270 
 126   0.0000       1.543975        42.0137 
 127   0.0000       1.549943        42.1761 
 128   0.0000       1.572811        42.7984 
 129   0.0000       1.591720        43.3129 
 130   0.0000       1.600121        43.5415 
 131   0.0000       1.605689        43.6930 
 132   0.0000       1.615687        43.9651 
 133   0.0000       1.625637        44.2358 
 134   0.0000       1.655013        45.0352 
 135   0.0000       1.689272        45.9674 
 136   0.0000       1.702751        46.3342 
 137   0.0000       1.723559        46.9004 
 138   0.0000       1.727115        46.9972 
 139   0.0000       1.732379        47.1404 
 140   0.0000       1.761700        47.9383 
 141   0.0000       1.781831        48.4861 
 142   0.0000       1.782950        48.5165 
 143   0.0000       1.811267        49.2871 
 144   0.0000       1.815593        49.4048 
 145   0.0000       1.865059        50.7508 
 146   0.0000       1.883503        51.2527 
 147   0.0000       1.909601        51.9629 
 148   0.0000       1.919484        52.2318 
 149   0.0000       1.970717        53.6259 
 150   0.0000       1.984424        53.9989 
 151   0.0000       2.021229        55.0004 
 152   0.0000       2.118913        57.6586 
 153   0.0000       2.242363        61.0178 
 154   0.0000       2.339297        63.6555 
 155   0.0000       2.369895        64.4881 
 156   0.0000       2.460827        66.9625 
 157   0.0000       2.497301        67.9550 
 158   0.0000       2.541495        69.1576 
 159   0.0000       2.587216        70.4017 
 160   0.0000       2.612503        71.0898 
 161   0.0000       2.673516        72.7501 
 162   0.0000       2.680376        72.9367 
 163   0.0000       2.695010        73.3350 
 164   0.0000       2.708964        73.7147 
 165   0.0000       2.730715        74.3065 
 166   0.0000       2.763197        75.1904 
 167   0.0000       2.796106        76.0859 
 168   0.0000       2.805706        76.3471 
 169   0.0000       2.829972        77.0075 
 170   0.0000       2.842032        77.3356 
 171   0.0000       2.886581        78.5479 
 172   0.0000       2.899609        78.9024 
 173   0.0000       2.902693        78.9863 
 174   0.0000       2.906935        79.1017 
 175   0.0000       2.926582        79.6363 
 176   0.0000       2.929529        79.7165 
 177   0.0000       2.959872        80.5422 
 178   0.0000       2.980711        81.1093 
 179   0.0000       2.985532        81.2404 
 180   0.0000       2.990315        81.3706 
 181   0.0000       3.000680        81.6527 
 182   0.0000       3.020770        82.1993 
 183   0.0000       3.032575        82.5206 
 184   0.0000       3.036069        82.6156 
 185   0.0000       3.051886        83.0460 
 186   0.0000       3.083305        83.9010 
 187   0.0000       3.113470        84.7218 
 188   0.0000       3.128317        85.1258 
 189   0.0000       3.139739        85.4366 
 190   0.0000       3.183258        86.6208 
 191   0.0000       3.196828        86.9901 
 192   0.0000       3.200258        87.0835 
 193   0.0000       3.217598        87.5553 
 194   0.0000       3.228866        87.8619 
 195   0.0000       3.251888        88.4884 
 196   0.0000       3.257398        88.6383 
 197   0.0000       3.297241        89.7225 
 198   0.0000       3.298438        89.7551 
 199   0.0000       3.314373        90.1887 
 200   0.0000       3.341917        90.9382 
 201   0.0000       3.346047        91.0506 
 202   0.0000       3.377417        91.9042 
 203   0.0000       3.380200        91.9799 
 204   0.0000       3.387401        92.1759 
 205   0.0000       3.404326        92.6364 
 206   0.0000       3.411289        92.8259 
 207   0.0000       3.434000        93.4439 
 208   0.0000       3.437206        93.5311 
 209   0.0000       3.438280        93.5604 
 210   0.0000       3.442654        93.6794 
 211   0.0000       3.445633        93.7604 
 212   0.0000       3.476422        94.5983 
 213   0.0000       3.489035        94.9415 
 214   0.0000       3.501910        95.2918 
 215   0.0000       3.517500        95.7160 
 216   0.0000       3.536423        96.2310 
 217   0.0000       3.538417        96.2852 
 218   0.0000       3.570540        97.1593 
 219   0.0000       3.578466        97.3750 
 220   0.0000       3.588883        97.6585 
 221   0.0000       3.602735        98.0354 
 222   0.0000       3.623340        98.5961 
 223   0.0000       3.638907        99.0197 
 224   0.0000       3.652468        99.3887 
 225   0.0000       3.662246        99.6548 
 226   0.0000       3.664962        99.7287 
 227   0.0000       3.699750       100.6753 
 228   0.0000       3.702815       100.7587 
 229   0.0000       3.710050       100.9556 
 230   0.0000       3.732915       101.5778 
 231   0.0000       3.746547       101.9487 
 232   0.0000       3.779299       102.8399 
 233   0.0000       3.788364       103.0866 
 234   0.0000       3.805553       103.5544 
 235   0.0000       3.812011       103.7301 
 236   0.0000       3.824570       104.0718 
 237   0.0000       3.829867       104.2160 
 238   0.0000       3.857201       104.9598 
 239   0.0000       3.861231       105.0694 
 240   0.0000       3.889602       105.8415 
 241   0.0000       3.898500       106.0836 
 242   0.0000       3.917138       106.5907 
 243   0.0000       3.948976       107.4571 
 244   0.0000       3.960130       107.7606 
 245   0.0000       3.966759       107.9410 
 246   0.0000       3.971237       108.0629 
 247   0.0000       4.008777       109.0844 
 248   0.0000       4.016833       109.3036 
 249   0.0000       4.031290       109.6970 
 250   0.0000       4.038402       109.8905 
 251   0.0000       4.061693       110.5243 
 252   0.0000       4.076515       110.9276 
 253   0.0000       4.076938       110.9391 
 254   0.0000       4.105843       111.7257 
 255   0.0000       4.123653       112.2103 
 256   0.0000       4.125263       112.2541 
 257   0.0000       4.146468       112.8311 
 258   0.0000       4.148673       112.8911 
 259   0.0000       4.175851       113.6307 
 260   0.0000       4.179225       113.7225 
 261   0.0000       4.205912       114.4487 
 262   0.0000       4.228360       115.0595 
 263   0.0000       4.252063       115.7045 
 264   0.0000       4.255006       115.7846 
 265   0.0000       4.280168       116.4693 
 266   0.0000       4.283370       116.5564 
 267   0.0000       4.300236       117.0154 
 268   0.0000       4.306754       117.1927 
 269   0.0000       4.333852       117.9301 
 270   0.0000       4.335125       117.9647 
 271   0.0000       4.348790       118.3366 
 272   0.0000       4.356267       118.5401 
 273   0.0000       4.385274       119.3294 
 274   0.0000       4.392862       119.5359 
 275   0.0000       4.409730       119.9949 
 276   0.0000       4.438090       120.7666 
 277   0.0000       4.443787       120.9216 
 278   0.0000       4.448516       121.0503 
 279   0.0000       4.467565       121.5686 
 280   0.0000       4.477017       121.8258 
 281   0.0000       4.488128       122.1282 
 282   0.0000       4.490344       122.1885 
 283   0.0000       4.499709       122.4433 
 284   0.0000       4.507343       122.6510 
 285   0.0000       4.560226       124.0900 
 286   0.0000       4.574022       124.4655 
 287   0.0000       4.577505       124.5603 
 288   0.0000       4.584916       124.7619 
 289   0.0000       4.610386       125.4550 
 290   0.0000       4.620596       125.7328 
 291   0.0000       4.648018       126.4790 
 292   0.0000       4.656494       126.7096 
 293   0.0000       4.660572       126.8206 
 294   0.0000       4.672448       127.1438 
 295   0.0000       4.695909       127.7822 
 296   0.0000       4.723300       128.5275 
 297   0.0000       4.732947       128.7900 
 298   0.0000       4.759558       129.5142 
 299   0.0000       4.785278       130.2140 
 300   0.0000       4.829178       131.4086 
 301   0.0000       4.852092       132.0321 
 302   0.0000       4.864143       132.3601 
 303   0.0000       4.887275       132.9895 
 304   0.0000       4.904836       133.4674 
 305   0.0000       4.934733       134.2809 
 306   0.0000       4.952996       134.7779 
 307   0.0000       5.010041       136.3301 
 308   0.0000       5.036428       137.0482 
 309   0.0000       5.069241       137.9411 
 310   0.0000       5.071215       137.9948 
 311   0.0000       5.096508       138.6830 
 312   0.0000       5.134606       139.7197 
 313   0.0000       5.151153       140.1700 
 314   0.0000       5.157745       140.3494 
 315   0.0000       5.208309       141.7253 
 316   0.0000       5.225515       142.1935 
 317   0.0000       5.231468       142.3555 
 318   0.0000       5.244663       142.7145 
 319   0.0000       5.252899       142.9387 
 320   0.0000       5.269618       143.3936 
 321   0.0000       5.291214       143.9813 
 322   0.0000       5.304338       144.3384 
 323   0.0000       5.353328       145.6715 
 324   0.0000       5.358920       145.8236 
 325   0.0000       5.396288       146.8405 
 326   0.0000       5.422030       147.5409 
 327   0.0000       5.428007       147.7036 
 328   0.0000       5.465320       148.7189 
 329   0.0000       5.511101       149.9647 
 330   0.0000       5.520415       150.2181 
 331   0.0000       5.558987       151.2677 
 332   0.0000       5.579245       151.8190 
 333   0.0000       5.593846       152.2163 
 334   0.0000       5.600791       152.4053 
 335   0.0000       5.632969       153.2809 
 336   0.0000       5.638264       153.4250 
 337   0.0000       5.656332       153.9166 
 338   0.0000       5.695760       154.9895 
 339   0.0000       5.707247       155.3021 
 340   0.0000       5.726145       155.8163 
 341   0.0000       5.736952       156.1104 
 342   0.0000       5.738783       156.1602 
 343   0.0000       5.783888       157.3876 
 344   0.0000       5.787731       157.4922 
 345   0.0000       5.788891       157.5237 
 346   0.0000       5.854523       159.3097 
 347   0.0000       5.886314       160.1748 
 348   0.0000       5.897728       160.4853 
 349   0.0000       5.957273       162.1057 
 350   0.0000       5.961688       162.2258 
 351   0.0000       6.016228       163.7099 
 352   0.0000       6.095736       165.8734 
 353   0.0000       6.116237       166.4313 
 354   0.0000       6.263943       170.4506 
 355   0.0000       6.295638       171.3130 
 356   0.0000       6.299040       171.4056 
 357   0.0000       6.348731       172.7578 
 358   0.0000       6.364808       173.1952 
 359   0.0000       6.394402       174.0005 
 360   0.0000       6.411171       174.4568 
 361   0.0000       6.474595       176.1827 
 362   0.0000       6.508235       177.0981 
 363   0.0000       6.787631       184.7008 
 364   0.0000       6.808304       185.2634 
 365   0.0000       6.883371       187.3061 
 366   0.0000       7.336925       199.6479 
 367   0.0000       7.405262       201.5074 
 368   0.0000       7.537872       205.1159 
 369   0.0000       7.846081       213.5027 
 370   0.0000       7.963978       216.7109 
 371   0.0000      11.563601       314.6616 
 372   0.0000      12.226698       332.7054 
 373   0.0000      12.951410       352.4258 
 374   0.0000      13.055736       355.2646 
 375   0.0000      13.451544       366.0351 
 376   0.0000      13.568239       369.2105 
 377   0.0000      14.209609       386.6631 

                    ********************************
                    * MULLIKEN POPULATION ANALYSIS *
                    ********************************

-----------------------
MULLIKEN ATOMIC CHARGES
-----------------------
   0 C :    0.020204
   1 O :   -0.393368
   2 C :    0.020196
   3 C :   -0.192745
   4 C :   -0.098257
   5 C :   -0.192746
   6 C :   -0.311753
   7 H :    0.102169
   8 H :    0.091601
   9 H :    0.102167
  10 H :    0.064687
  11 H :    0.108478
  12 H :    0.100857
  13 H :    0.096259
  14 H :    0.111986
  15 H :    0.100856
  16 H :    0.108478
  17 H :    0.064670
  18 H :    0.096261
Sum of atomic charges:    0.0000000

--------------------------------
MULLIKEN REDUCED ORBITAL CHARGES
--------------------------------
  0 C s       :     3.173587  s :     3.173587
      pz      :     0.945040  p :     2.638505
      px      :     0.882012
      py      :     0.811454
      dz2     :     0.033593  d :     0.155915
      dxz     :     0.024100
      dyz     :     0.022993
      dx2y2   :     0.027489
      dxy     :     0.047741
      f0      :     0.001863  f :     0.011788
      f+1     :     0.001584
      f-1     :     0.001052
      f+2     :     0.001104
      f-2     :     0.001879
      f+3     :     0.001995
      f-3     :     0.002311
  1 O s       :     3.741777  s :     3.741777
      pz      :     1.843620  p :     4.613637
      px      :     1.586884
      py      :     1.183134
      dz2     :     0.005130  d :     0.035951
      dxz     :     0.003139
      dyz     :     0.005038
      dx2y2   :     0.005060
      dxy     :     0.017584
      f0      :     0.000234  f :     0.002004
      f+1     :     0.000197
      f-1     :     0.000429
      f+2     :     0.000057
      f-2     :     0.000262
      f+3     :     0.000526
      f-3     :     0.000298
  2 C s       :     3.173592  s :     3.173592
      pz      :     0.945052  p :     2.638512
      px      :     0.882019
      py      :     0.811441
      dz2     :     0.033594  d :     0.155913
      dxz     :     0.024098
      dyz     :     0.022992
      dx2y2   :     0.027488
      dxy     :     0.047740
      f0      :     0.001863  f :     0.011788
      f+1     :     0.001584
      f-1     :     0.001052
      f+2     :     0.001104
      f-2     :     0.001879
      f+3     :     0.001995
      f-3     :     0.002311
  3 C s       :     3.203603  s :     3.203603
      pz      :     0.991799  p :     2.875059
      px      :     0.929536
      py      :     0.953725
      dz2     :     0.027544  d :     0.107581
      dxz     :     0.024645
      dyz     :     0.009604
      dx2y2   :     0.020584
      dxy     :     0.025203
      f0      :     0.001006  f :     0.006502
      f+1     :     0.001287
      f-1     :     0.000382
      f+2     :     0.000733
      f-2     :     0.000762
      f+3     :     0.001378
      f-3     :     0.000954
  4 C s       :     3.179650  s :     3.179650
      pz      :     0.965471  p :     2.772068
      px      :     0.923597
      py      :     0.883000
      dz2     :     0.026955  d :     0.138171
      dxz     :     0.038257
      dyz     :     0.015963
      dx2y2   :     0.025833
      dxy     :     0.031163
      f0      :     0.000986  f :     0.008367
      f+1     :     0.001904
      f-1     :     0.000800
      f+2     :     0.000586
      f-2     :     0.001202
      f+3     :     0.001464
      f-3     :     0.001424
  5 C s       :     3.203603  s :     3.203603
      pz      :     0.991799  p :     2.875060
      px      :     0.929539
      py      :     0.953722
      dz2     :     0.027545  d :     0.107581
      dxz     :     0.024644
      dyz     :     0.009605
      dx2y2   :     0.020584
      dxy     :     0.025203
      f0      :     0.001006  f :     0.006502
      f+1     :     0.001287
      f-1     :     0.000382
      f+2     :     0.000733
      f-2     :     0.000762
      f+3     :     0.001378
      f-3     :     0.000954
  6 C s       :     3.268752  s :     3.268752
      pz      :     0.949678  p :     2.951540
      px      :     0.975652
      py      :     1.026210
      dz2     :     0.024939  d :     0.086566
      dxz     :     0.021339
      dyz     :     0.006786
      dx2y2   :     0.005545
      dxy     :     0.027957
      f0      :     0.000590  f :     0.004895
      f+1     :     0.001866
      f-1     :     0.000277
      f+2     :     0.000472
      f-2     :     0.000507
      f+3     :     0.001017
      f-3     :     0.000165
  7 H s       :     0.869214  s :     0.869214
      pz      :     0.008437  p :     0.026450
      px      :     0.009440
      py      :     0.008573
      dz2     :     0.000185  d :     0.002166
      dxz     :     0.000377
      dyz     :     0.000429
      dx2y2   :     0.000596
      dxy     :     0.000579
  8 H s       :     0.878920  s :     0.878920
      pz      :     0.011686  p :     0.027313
      px      :     0.007845
      py      :     0.007782
      dz2     :     0.000899  d :     0.002165
      dxz     :     0.000548
      dyz     :     0.000384
      dx2y2   :     0.000136
      dxy     :     0.000198
  9 H s       :     0.869217  s :     0.869217
      pz      :     0.008437  p :     0.026450
      px      :     0.009440
      py      :     0.008573
      dz2     :     0.000185  d :     0.002166
      dxz     :     0.000377
      dyz     :     0.000429
      dx2y2   :     0.000596
      dxy     :     0.000579
 10 H s       :     0.907866  s :     0.907866
      pz      :     0.012910  p :     0.025216
      px      :     0.007731
      py      :     0.004576
      dz2     :     0.000848  d :     0.002230
      dxz     :     0.000803
      dyz     :     0.000487
      dx2y2   :     0.000035
      dxy     :     0.000056
 11 H s       :     0.863357  s :     0.863357
      pz      :     0.008721  p :     0.025926
      px      :     0.009376
      py      :     0.007829
      dz2     :     0.000292  d :     0.002239
      dxz     :     0.000321
      dyz     :     0.000348
      dx2y2   :     0.000617
      dxy     :     0.000661
 12 H s       :     0.868080  s :     0.868080
      pz      :     0.011709  p :     0.028587
      px      :     0.008365
      py      :     0.008513
      dz2     :     0.000818  d :     0.002476
      dxz     :     0.000755
      dyz     :     0.000658
      dx2y2   :     0.000054
      dxy     :     0.000191
 13 H s       :     0.871488  s :     0.871488
      pz      :     0.007496  p :     0.029775
      px      :     0.009345
      py      :     0.012934
      dz2     :     0.000277  d :     0.002479
      dxz     :     0.000244
      dyz     :     0.000442
      dx2y2   :     0.000891
      dxy     :     0.000625
 14 H s       :     0.854203  s :     0.854203
      pz      :     0.010737  p :     0.030996
      px      :     0.011167
      py      :     0.009092
      dz2     :     0.000897  d :     0.002815
      dxz     :     0.000605
      dyz     :     0.000516
      dx2y2   :     0.000247
      dxy     :     0.000551
 15 H s       :     0.868081  s :     0.868081
      pz      :     0.011709  p :     0.028587
      px      :     0.008365
      py      :     0.008513
      dz2     :     0.000818  d :     0.002476
      dxz     :     0.000755
      dyz     :     0.000658
      dx2y2   :     0.000054
      dxy     :     0.000191
 16 H s       :     0.863356  s :     0.863356
      pz      :     0.008721  p :     0.025927
      px      :     0.009376
      py      :     0.007829
      dz2     :     0.000292  d :     0.002239
      dxz     :     0.000320
      dyz     :     0.000348
      dx2y2   :     0.000617
      dxy     :     0.000661
 17 H s       :     0.907883  s :     0.907883
      pz      :     0.012910  p :     0.025216
      px      :     0.007731
      py      :     0.004575
      dz2     :     0.000848  d :     0.002230
      dxz     :     0.000803
      dyz     :     0.000487
      dx2y2   :     0.000035
      dxy     :     0.000056
 18 H s       :     0.871486  s :     0.871486
      pz      :     0.007496  p :     0.029775
      px      :     0.009345
      py      :     0.012934
      dz2     :     0.000277  d :     0.002479
      dxz     :     0.000244
      dyz     :     0.000442
      dx2y2   :     0.000891
      dxy     :     0.000625


                     *******************************
                     * LOEWDIN POPULATION ANALYSIS *
                     *******************************

----------------------
LOEWDIN ATOMIC CHARGES
----------------------
   0 C :   -0.052297
   1 O :    0.238914
   2 C :   -0.052271
   3 C :    0.057357
   4 C :   -0.016148
   5 C :    0.057356
   6 C :    0.110639
   7 H :   -0.027881
   8 H :   -0.034729
   9 H :   -0.027878
  10 H :   -0.039943
  11 H :   -0.028117
  12 H :   -0.022712
  13 H :   -0.024236
  14 H :   -0.023046
  15 H :   -0.022713
  16 H :   -0.028121
  17 H :   -0.039938
  18 H :   -0.024237

-------------------------------
LOEWDIN REDUCED ORBITAL CHARGES
-------------------------------
  0 C s       :     2.682447  s :     2.682447
      pz      :     0.972195  p :     2.720439
      px      :     0.921855
      py      :     0.826388
      dz2     :     0.134620  d :     0.573376
      dxz     :     0.101490
      dyz     :     0.071705
      dx2y2   :     0.093018
      dxy     :     0.172543
      f0      :     0.009668  f :     0.076035
      f+1     :     0.007919
      f-1     :     0.008052
      f+2     :     0.008147
      f-2     :     0.012767
      f+3     :     0.013994
      f-3     :     0.015488
  1 O s       :     3.256875  s :     3.256875
      pz      :     1.688783  p :     4.402763
      px      :     1.526568
      py      :     1.187411
      dz2     :     0.011084  d :     0.095918
      dxz     :     0.007838
      dyz     :     0.016272
      dx2y2   :     0.024942
      dxy     :     0.035782
      f0      :     0.000532  f :     0.005529
      f+1     :     0.000319
      f-1     :     0.000694
      f+2     :     0.000166
      f-2     :     0.000994
      f+3     :     0.001031
      f-3     :     0.001793
  2 C s       :     2.682448  s :     2.682448
      pz      :     0.972205  p :     2.720434
      px      :     0.921857
      py      :     0.826372
      dz2     :     0.134621  d :     0.573358
      dxz     :     0.101483
      dyz     :     0.071704
      dx2y2   :     0.093011
      dxy     :     0.172540
      f0      :     0.009668  f :     0.076031
      f+1     :     0.007918
      f-1     :     0.008052
      f+2     :     0.008147
      f-2     :     0.012766
      f+3     :     0.013993
      f-3     :     0.015487
  3 C s       :     2.663353  s :     2.663353
      pz      :     0.957775  p :     2.828389
      px      :     0.936035
      py      :     0.934579
      dz2     :     0.103194  d :     0.411819
      dxz     :     0.089526
      dyz     :     0.036503
      dx2y2   :     0.075492
      dxy     :     0.107103
      f0      :     0.005196  f :     0.039083
      f+1     :     0.006283
      f-1     :     0.003541
      f+2     :     0.005624
      f-2     :     0.005722
      f+3     :     0.006426
      f-3     :     0.006289
  4 C s       :     2.661417  s :     2.661417
      pz      :     0.945166  p :     2.790449
      px      :     0.927126
      py      :     0.918158
      dz2     :     0.095472  d :     0.514222
      dxz     :     0.135102
      dyz     :     0.067262
      dx2y2   :     0.094114
      dxy     :     0.122273
      f0      :     0.006833  f :     0.050058
      f+1     :     0.006399
      f-1     :     0.006155
      f+2     :     0.005726
      f-2     :     0.008431
      f+3     :     0.006542
      f-3     :     0.009972
  5 C s       :     2.663350  s :     2.663350
      pz      :     0.957774  p :     2.828389
      px      :     0.936035
      py      :     0.934579
      dz2     :     0.103194  d :     0.411822
      dxz     :     0.089525
      dyz     :     0.036506
      dx2y2   :     0.075493
      dxy     :     0.107104
      f0      :     0.005196  f :     0.039083
      f+1     :     0.006283
      f-1     :     0.003541
      f+2     :     0.005624
      f-2     :     0.005723
      f+3     :     0.006426
      f-3     :     0.006290
  6 C s       :     2.661770  s :     2.661770
      pz      :     0.947007  p :     2.883719
      px      :     0.956278
      py      :     0.980434
      dz2     :     0.094490  d :     0.314924
      dxz     :     0.082733
      dyz     :     0.023157
      dx2y2   :     0.020004
      dxy     :     0.094540
      f0      :     0.004045  f :     0.028947
      f+1     :     0.005937
      f-1     :     0.004836
      f+2     :     0.005077
      f-2     :     0.002709
      f+3     :     0.004897
      f-3     :     0.001445
  7 H s       :     0.848970  s :     0.848970
      pz      :     0.039617  p :     0.151220
      px      :     0.050821
      py      :     0.060782
      dz2     :     0.002348  d :     0.027690
      dxz     :     0.003813
      dyz     :     0.005462
      dx2y2   :     0.008697
      dxy     :     0.007370
  8 H s       :     0.852444  s :     0.852444
      pz      :     0.063814  p :     0.154556
      px      :     0.049875
      py      :     0.040866
      dz2     :     0.009147  d :     0.027729
      dxz     :     0.007219
      dyz     :     0.006036
      dx2y2   :     0.001888
      dxy     :     0.003439
  9 H s       :     0.848970  s :     0.848970
      pz      :     0.039616  p :     0.151218
      px      :     0.050822
      py      :     0.060780
      dz2     :     0.002348  d :     0.027690
      dxz     :     0.003813
      dyz     :     0.005462
      dx2y2   :     0.008697
      dxy     :     0.007370
 10 H s       :     0.868512  s :     0.868512
      pz      :     0.076088  p :     0.144644
      px      :     0.040054
      py      :     0.028503
      dz2     :     0.009764  d :     0.026787
      dxz     :     0.008654
      dyz     :     0.006723
      dx2y2   :     0.000504
      dxy     :     0.001142
 11 H s       :     0.856966  s :     0.856966
      pz      :     0.039792  p :     0.143758
      px      :     0.049923
      py      :     0.054043
      dz2     :     0.003243  d :     0.027393
      dxz     :     0.004158
      dyz     :     0.004978
      dx2y2   :     0.007282
      dxy     :     0.007732
 12 H s       :     0.842037  s :     0.842037
      pz      :     0.070876  p :     0.152335
      px      :     0.042972
      py      :     0.038486
      dz2     :     0.009581  d :     0.028341
      dxz     :     0.008629
      dyz     :     0.007713
      dx2y2   :     0.000735
      dxy     :     0.001682
 13 H s       :     0.844159  s :     0.844159
      pz      :     0.040180  p :     0.152033
      px      :     0.048855
      py      :     0.062998
      dz2     :     0.003225  d :     0.028044
      dxz     :     0.003277
      dyz     :     0.005650
      dx2y2   :     0.008472
      dxy     :     0.007419
 14 H s       :     0.838203  s :     0.838203
      pz      :     0.062474  p :     0.156001
      px      :     0.052946
      py      :     0.040581
      dz2     :     0.008903  d :     0.028842
      dxz     :     0.007835
      dyz     :     0.005014
      dx2y2   :     0.002662
      dxy     :     0.004427
 15 H s       :     0.842037  s :     0.842037
      pz      :     0.070876  p :     0.152335
      px      :     0.042972
      py      :     0.038487
      dz2     :     0.009581  d :     0.028341
      dxz     :     0.008629
      dyz     :     0.007713
      dx2y2   :     0.000735
      dxy     :     0.001682
 16 H s       :     0.856967  s :     0.856967
      pz      :     0.039792  p :     0.143760
      px      :     0.049922
      py      :     0.054045
      dz2     :     0.003243  d :     0.027394
      dxz     :     0.004158
      dyz     :     0.004978
      dx2y2   :     0.007283
      dxy     :     0.007732
 17 H s       :     0.868515  s :     0.868515
      pz      :     0.076085  p :     0.144638
      px      :     0.040052
      py      :     0.028501
      dz2     :     0.009764  d :     0.026786
      dxz     :     0.008653
      dyz     :     0.006723
      dx2y2   :     0.000504
      dxy     :     0.001142
 18 H s       :     0.844159  s :     0.844159
      pz      :     0.040181  p :     0.152034
      px      :     0.048856
      py      :     0.062997
      dz2     :     0.003225  d :     0.028044
      dxz     :     0.003277
      dyz     :     0.005650
      dx2y2   :     0.008472
      dxy     :     0.007419


                      *****************************
                      * MAYER POPULATION ANALYSIS *
                      *****************************

  NA   - Mulliken gross atomic population
  ZA   - Total nuclear charge
  QA   - Mulliken gross atomic charge
  VA   - Mayer's total valence
  BVA  - Mayer's bonded valence
  FA   - Mayer's free valence

  ATOM       NA         ZA         QA         VA         BVA        FA
  0 C      5.9798     6.0000     0.0202     3.9322     3.9322     0.0000
  1 O      8.3934     8.0000    -0.3934     1.9699     1.9699     0.0000
  2 C      5.9798     6.0000     0.0202     3.9322     3.9322     0.0000
  3 C      6.1927     6.0000    -0.1927     3.8365     3.8365    -0.0000
  4 C      6.0983     6.0000    -0.0983     3.8311     3.8311     0.0000
  5 C      6.1927     6.0000    -0.1927     3.8365     3.8365     0.0000
  6 C      6.3118     6.0000    -0.3118     3.8846     3.8846     0.0000
  7 H      0.8978     1.0000     0.1022     0.9811     0.9811     0.0000
  8 H      0.9084     1.0000     0.0916     0.9788     0.9788     0.0000
  9 H      0.8978     1.0000     0.1022     0.9811     0.9811    -0.0000
 10 H      0.9353     1.0000     0.0647     0.9768     0.9768     0.0000
 11 H      0.8915     1.0000     0.1085     0.9802     0.9802    -0.0000
 12 H      0.8991     1.0000     0.1009     0.9868     0.9868     0.0000
 13 H      0.9037     1.0000     0.0963     0.9868     0.9868     0.0000
 14 H      0.8880     1.0000     0.1120     0.9749     0.9749     0.0000
 15 H      0.8991     1.0000     0.1009     0.9868     0.9868     0.0000
 16 H      0.8915     1.0000     0.1085     0.9802     0.9802     0.0000
 17 H      0.9353     1.0000     0.0647     0.9768     0.9768     0.0000
 18 H      0.9037     1.0000     0.0963     0.9868     0.9868    -0.0000

  Mayer bond orders larger than 0.1
B(  0-C ,  1-O ) :   0.9842 B(  0-C ,  5-C ) :   0.9509 B(  0-C , 16-H ) :   0.9892 
B(  0-C , 17-H ) :   0.9841 B(  1-O ,  2-C ) :   0.9842 B(  2-C ,  3-C ) :   0.9509 
B(  2-C , 10-H ) :   0.9841 B(  2-C , 11-H ) :   0.9892 B(  3-C ,  4-C ) :   0.9463 
B(  3-C , 12-H ) :   0.9859 B(  3-C , 13-H ) :   0.9861 B(  4-C ,  5-C ) :   0.9463 
B(  4-C ,  6-C ) :   0.9493 B(  4-C , 14-H ) :   0.9945 B(  5-C , 15-H ) :   0.9859 
B(  5-C , 18-H ) :   0.9861 B(  6-C ,  7-H ) :   0.9859 B(  6-C ,  8-H ) :   0.9780 
B(  6-C ,  9-H ) :   0.9859 

-------
TIMINGS
-------

Total SCF time: 0 days 0 hours 0 min 18 sec 

Total time                  ....      18.867 sec
Sum of individual times     ....      18.562 sec  ( 98.4%)

Fock matrix formation       ....      17.707 sec  ( 93.9%)
Diagonalization             ....       0.130 sec  (  0.7%)
Density matrix formation    ....       0.019 sec  (  0.1%)
Population analysis         ....       0.063 sec  (  0.3%)
Initial guess               ....       0.300 sec  (  1.6%)
Orbital Transformation      ....       0.000 sec  (  0.0%)
Orbital Orthonormalization  ....       0.000 sec  (  0.0%)
DIIS solution               ....       0.000 sec  (  0.0%)
SOSCF solution              ....       0.158 sec  (  0.8%)


           ************************************************************
           *        Program running with 8 parallel MPI-processes     *
           *              working on a common directory               *
           ************************************************************


------------------------------------------------------------------------------- 
                              ORCA-MATRIX DRIVEN CI                            
------------------------------------------------------------------------------- 


Wavefunction type
-----------------
Correlation treatment                      ...      CCSD     
Single excitations                         ... ON
Orbital optimization                       ... OFF
Calculation of Z vector                    ... OFF
Calculation of Brueckner orbitals          ... OFF
Perturbative triple excitations            ... ON
Calculation of F12 correction              ... OFF
Frozen core treatment                      ... chemical core (14 el)
Reference Wavefunction                     ... RHF
  Internal Orbitals:     7 ...   27 ( 21 MO's/ 42 electrons)
  Virtual  Orbitals:    28 ...  377 (350 MO's              )
Number of AO's                             ...    378
Number of electrons                        ...     56
Number of correlated electrons             ...     42

Algorithmic settings
--------------------
Integral transformation                    ... All integrals via the RI transformation
K(C) Formation                             ... RI-DLPNO
   PNO-Integral Storage                    ... ON DISK
   PNO occupation number cut-off           ... 1.000e-07
   Singles PNO occupation number cut-off   ... 3.000e-09
   PNO Mulliken prescreening cut-off       ... 1.000e-03
   Domain cut-off (Mulliken population)    ... 1.000e-03
   PNO Normalization                       ...    1
Maximum number of iterations               ...        50
Convergence tolerance (max. residuum)      ... 1.000e-05
Level shift for amplitude update           ... 2.000e-01
Maximum number of DIIS vectors             ...         7
DIIS turned on at iteration                ...         0
Damping before turning on DIIS             ...     0.500
Damping after turning on DIIS              ...     0.000
Pair specific amplitude update             ... OFF
Natural orbital iterations                 ... OFF
Perturbative natural orbital generation    ... OFF
Printlevel                                 ... 2

Singles Fock matrix elements calculated using PNOs.

Memory handling:
----------------
Maximum memory for working arrays          ...   8000 MB
Data storage in matrix containers          ... UNCOMPRESSED
Data type for integral storage             ... DOUBLE
In-Core Storage of quantities:
   Amplitudes+Sigma Vector      ... NO
   J+K operators                ... NO
   DIIS vectors                 ... NO
   3-external integrals         ... NO
   4-external integrals         ... NO

Localization treatment:
-----------------------
Localization option                        ...    6
Localization threshhold                    ... -1.0e+00
Using relative localization threshhold     ... 1.0e-08
Neglect threshold for strong pairs         ... 1.000e-05 Eh
Prescreening threshold for very weak pairs ... 1.000e-07 Eh

Initializing the integral package          ... done
Localizing the valence orbitals
------------------------------------------------------------------------------
                           ORCA ORBITAL LOCALIZATION
------------------------------------------------------------------------------

Input orbitals are from                  ... 4_Me_THP_ax.proc0.gbw
Output orbitals are to                   ... 4_Me_THP_ax.proc0.loc
Max. number of iterations                ... 128
Localizations seeded randomly            ... off
Convergence tolerance                    ... 1.000e-06
Using relative localization threshhold   ... 1.000e-08
Treshold for strong local MOs            ... 9.500e-01
Treshold for bond MOs                    ... 8.500e-01
Operator                                 ... 0
Orbital range for localization           ... 7 to 27
Localization criterion                   ... FOSTER-BOYS (AUGMENTED HESSIAN)
Doing the dipole integrals     ... o.k.
Initial value of the localization sum :   192.927465
ITERATION   0 : L=  254.1384294702 DL=  6.12e+01 (AVERGE_DL)=    0.5398896041 
ITERATION   1 : L=  262.6461512743 DL=  8.51e+00 (AVERGE_DL)=    0.2012783172 
ITERATION   2 : L=  262.7580122265 DL=  1.12e-01 (AVERGE_DL)=    0.0230796707 
ITERATION   3 : L=  262.7625595259 DL=  4.55e-03 (AVERGE_DL)=    0.0046533651 
ITERATION   4 : L=  262.7629054130 DL=  3.46e-04 (AVERGE_DL)=    0.0012833866 
ITERATION   5 : L=  262.7629377702 DL=  3.24e-05 (AVERGE_DL)=    0.0003925327 
ITERATION   6 : L=  262.7629406334 DL=  2.86e-06 (AVERGE_DL)=    0.0001167657 
ITERATION   7 : L=  262.7629408879 DL=  2.55e-07 (AVERGE_DL)=    0.0000348141 
LOCALIZATION SUM CONVERGED

------------------------------------------------------
AUGMENTED HESSIAN OPTIMIZATION OF FOSTER-BOYS ORBITALS
------------------------------------------------------

Spin operator:           0
Orbital window:          7 to 27
Number of iterations:    128
Gradient tolerance:      1.000e-06
Number of pairs:         210
Davidson threshold:      2000
Diagonalization method:  LAPACK
Iter:    0   L: 262.7629408879   Grad. norm: 1.222272e-03
   *** Likely close to a maximum now. ***
       Augmented Hessian eigenvalues:  5.81e-08 -1.38e+00 -3.72e+00 -5.46e+00 ... 
Iter:    1   L: 262.7629409169   Grad. norm: 3.118915e-08
LOCALIZATION HAS CONVERGED.

Eigenvalues of the Hessian:
  0 -1.377e+00
  1 -3.716e+00
  2 -5.461e+00
  3 -5.646e+00
  4 -7.714e+00
  5 -1.084e+01
  6 -1.714e+01
  7 -1.782e+01
  8 -1.782e+01
  9 -1.811e+01
    ...


------------------------------------------------------------------------------- 
                    LOCALIZED MOLECULAR ORBITAL COMPOSITIONS                   
------------------------------------------------------------------------------- 

The Mulliken populations for each LMO on each atom are computed
The LMO`s will be ordered according to atom index and type
  (A) Strongly localized MO`s have populations of >=0.950 on one atom
  (B) Two center bond orbitals have populations of >=0.850 on two atoms
  (C) Other MO`s are considered to be `delocalized`

FOUND  -   2 strongly local MO`s
       -  19 two center bond MO`s
       -   0 significantly delocalized MO`s

Rather strongly localized orbitals:
MO   8:   1O  -   0.969511
MO   7:   1O  -   0.972412
Bond-like localized orbitals:
MO  27:  18H  -   0.467972  and   5C  -   0.558450
MO  26:  17H  -   0.489659  and   0C  -   0.552005
MO  25:  16H  -   0.461513  and   0C  -   0.570212
MO  24:  15H  -   0.465224  and   5C  -   0.562655
MO  23:  14H  -   0.463034  and   4C  -   0.572182
MO  22:  13H  -   0.467973  and   3C  -   0.558449
MO  21:  12H  -   0.465224  and   3C  -   0.562655
MO  20:  11H  -   0.461513  and   2C  -   0.570212
MO  19:  10H  -   0.489650  and   2C  -   0.552012
MO  18:   9H  -   0.467518  and   6C  -   0.561569
MO  17:   8H  -   0.475632  and   6C  -   0.548990
MO  16:   7H  -   0.467517  and   6C  -   0.561570
MO  15:   6C  -   0.510604  and   4C  -   0.520150
MO  14:   5C  -   0.507431  and   4C  -   0.520794
MO  13:   5C  -   0.530374  and   0C  -   0.505597
MO  12:   4C  -   0.520791  and   3C  -   0.507435
MO  11:   3C  -   0.530369  and   2C  -   0.505601
MO  10:   2C  -   0.349578  and   1O  -   0.661916
MO   9:   1O  -   0.661914  and   0C  -   0.349580
Localized MO's were stored in: 4_Me_THP_ax.proc0.loc

Localizing the core orbitals
------------------------------------------------------------------------------
                           ORCA ORBITAL LOCALIZATION
------------------------------------------------------------------------------

Input orbitals are from                  ... 4_Me_THP_ax.proc0.loc
Output orbitals are to                   ... 4_Me_THP_ax.proc0.loc
Max. number of iterations                ... 128
Localizations seeded randomly            ... off
Convergence tolerance                    ... 1.000e-06
Using relative localization threshhold   ... 1.000e-08
Treshold for strong local MOs            ... 9.500e-01
Treshold for bond MOs                    ... 8.500e-01
Operator                                 ... 0
Orbital range for localization           ... 0 to 6
Localization criterion                   ... FOSTER-BOYS (AUGMENTED HESSIAN)
Doing the dipole integrals     ... o.k.
Initial value of the localization sum :    64.633771
ITERATION   0 : L=   64.6337745592 DL=  3.64e-06 (AVERGE_DL)=    0.0004161738 
ITERATION   1 : L=   64.6337745592 DL=  0.00e+00 (AVERGE_DL)=    0.0000000000 
LOCALIZATION SUM CONVERGED

------------------------------------------------------
AUGMENTED HESSIAN OPTIMIZATION OF FOSTER-BOYS ORBITALS
------------------------------------------------------

Spin operator:           0
Orbital window:          0 to 6
Number of iterations:    128
Gradient tolerance:      1.000e-06
Number of pairs:         21
Davidson threshold:      2000
Diagonalization method:  LAPACK
Iter:    0   L: 64.6337745592   Grad. norm: 5.179667e-06
   *** Likely close to a maximum now. ***
       Augmented Hessian eigenvalues:  2.91e-13 -2.91e+01 -2.91e+01 -3.35e+01 ... 
Iter:    1   L: 64.6337745592   Grad. norm: 3.518884e-19
LOCALIZATION HAS CONVERGED.

Eigenvalues of the Hessian:
  0 -2.908e+01
  1 -2.908e+01
  2 -3.351e+01
  3 -3.351e+01
  4 -3.381e+01
  5 -3.414e+01
  6 -3.414e+01
  7 -7.993e+01
  8 -8.563e+01
  9 -8.563e+01
    ...


------------------------------------------------------------------------------- 
                    LOCALIZED MOLECULAR ORBITAL COMPOSITIONS                   
------------------------------------------------------------------------------- 

The Mulliken populations for each LMO on each atom are computed
The LMO`s will be ordered according to atom index and type
  (A) Strongly localized MO`s have populations of >=0.950 on one atom
  (B) Two center bond orbitals have populations of >=0.850 on two atoms
  (C) Other MO`s are considered to be `delocalized`

FOUND  -   7 strongly local MO`s
       -   0 two center bond MO`s
       -   0 significantly delocalized MO`s

Rather strongly localized orbitals:
MO   6:   6C  -   1.001158
MO   5:   5C  -   1.001563
MO   4:   4C  -   1.001499
MO   3:   3C  -   1.001563
MO   2:   2C  -   1.001167
MO   1:   1O  -   0.999683
MO   0:   0C  -   1.001167
Localized MO's were stored in: 4_Me_THP_ax.proc0.loc

Warning: internal orbitals are localized - no re-canonicalization of internal orbitals

--------------------------
CLOSED-SHELL FOCK OPERATOR
--------------------------

RI-JK section for the Fock operator:
  RHF full Fock operator         ... done
  RHF frozen core Fock operator  ... done
Time needed for Fock operator              ...            2.730 sec
Reference energy                           ...   -309.156509108

--------------
DLPNO SETTINGS (2015 fully linear scaling implementation)
--------------

TCutMKN:           1.000e-03
TCutPAO:           1.000e-03
TCutPNO:           1.000e-07
TCutPNOSingles:    3.000e-09
TCutEN:            9.700e-01
TCutPAOExt:        1.000e-01
TCutPairs:         1.000e-05
TCutPre:           1.000e-07
TCutOSV:           1.000e-06
TCutDOij:          1.000e-05
TCutDO:            5.000e-03
TCutC:             1.000e-04
TCutCPAO:          1.000e-03
TCutCMO:           1.000e-03
TScaleDOMP2PreScr: 2.000e+00
TScaleMKNMP2PreScr:1.000e+01
TScalePNOMP2PreScr:1.000e+00
PAO overlap thresh 1.000e-08
Using PNOs for Singles Fock computation
Use new domains
Use fully linear algorithm
TCutTNO:           1.000e-09
TCutMP2Pairs:      1.000e-06
TCutDOStrong:      2.000e-03
TCutMKNStrong:     1.000e-02
TCutMKNWeak:       1.000e-01
TCutDOWeak:        4.000e-03
NTCutTNO:          1

--------------------------
Calculating differential overlap integrals ... ok
--------------------------
ELECTRON PAIR PRESCREENING
--------------------------

Dipole-based pair screening          .... used

   TCutDOij = 1.000000e-05
   TCutPre  = 1.000000e-07
   .... Finished loop over pairs
Total time spent in the prescreening                  ...     0.000 sec
sum of pair energies estimated for screened out pairs ...       0.000000000000 Eh
Thresholds for map construction and integral transformation for crude MP2:
   TCutMKN                    ...     1.0e-02
   TCutDO                     ...     1.0e-02
   TCutPairs                  ...     1.0e-05
   TCutPNO_CrudeMP2           ...     1.0e-07
   TCutPNOSingles_CrudeMP2    ...     3.0e-09
--------------------------------
LOCAL RI TRANSFORMATION (IAVPAO)
--------------------------------

Orbital window:       7 to 27
Number of PAOs:     378
Basis functions:    378 (142 shells)
Aux. functions:     927 (281 shells)

Processing maps (0.0 sec)
Average map sizes:
   Aux shells -> MOs              21.0
   Aux shells -> PAOs            378.0
   MOs        -> AO shells       138.6
   PAOs       -> AO shells       142.0

Calculating integrals (0.9 sec, 56.152 MB)
Sorting integrals (0.1 sec, 56.141 MB)
Total time for the integral transformation: 1.0 sec
--------------------------------
INITIAL GUESS AND PNO GENERATION
--------------------------------

PNO truncation parameters                   .... 
    PAOOverlapThresh   =        1.000e-08

    TCutPairs          =        1.000e-05
    TCutPNO            =        1.000e-07
    TCutPNOSingles     =        3.000e-09
    TCutMP2Pairs       =        1.000e-06
    TCutMKN            =        1.000e-02
    TCutDO             =        1.000e-02

Pair selection                          .... not used
Type of local MP2 treatment                 .... semi-local MP2
Strategy for PNO selection                  .... occupation number selection
Pair density normalization                  .... MP2 norm
[...]
   TCutCPAO  ...     1.0e-03

Thresholds for map construction and integral transformation for weak Triples:
   TCutMKN   ...     1.0e-01
   TCutDO    ...     2.0e-02
   TCutCMO   ...     1.0e-03
   TCutCPAO  ...     1.0e-03

--------------------------------
LOCAL RI TRANSFORMATION (IAVPAO)
--------------------------------

Orbital window:       7 to 27
Number of PAOs:     378
Basis functions:    378 (142 shells)
Aux. functions:     927 (281 shells)

Processing maps (0.0 sec)
Average map sizes:
   Aux shells -> MOs              21.0
   Aux shells -> PAOs            378.0
   MOs        -> AO shells       138.6
   PAOs       -> AO shells       142.0

Calculating integrals (6.2 sec, 56.152 MB)
Sorting integrals (0.1 sec, 56.141 MB)
Total time for the integral transformation: 6.3 sec
--------------------------------
INITIAL GUESS AND PNO GENERATION
--------------------------------

PNO truncation parameters                   .... 
    ScaleTCutPNO       =        1.000e-02
    PAOOverlapThresh   =        1.000e-08

    TCutPairs          =        1.000e-05
    TCutPNO            =        1.000e-07
    TCutPNOSingles     =        3.000e-09
    TCutMP2Pairs       =        1.000e-06
    TCutMKN            =        1.000e-03
    TCutDO             =        5.000e-03

Pair selection                          .... not used
Type of local MP2 treatment                 .... full local PMP2
Strategy for PNO selection                  .... occupation number selection
Pair density normalization                  .... MP2 norm
Spin component scaling                      .... not used

PASS-1: Formation of initial guess LMP2 amplitudes
Initial amplitudes guess done. Entering LMP2 iteration loop:
   Max. no of iterations          ...  50
   Energy convergence tolerance   ...    1.0e-07
   Residual convergence tolerance ...    5.0e-07
   Fock matrix cutoff             ...    1.0e-05 Eh
   DIIS convergence acceleration parameters:
        Max # vectors in DIIS     ... 7
        Start iteration of DIIS   ... 0
        Levelshift                ... 2.000e-01
        Damping factor 1          ... 5.000e-01
        Damping factor 2          ... 1.000e+00
   L-MP2 PNO cut-off              ...   1.0e-09
   L-MP2 PNO cut-off (core)       ...   1.0e-11
                           *** Turning on DIIS ***
LMP2-Iter=   0:  ELMP2= -1.260307267423  DE=   2.3e-02 RMAX=   5.1e-03
LMP2-Iter=   1:  ELMP2= -1.272029249770  DE=   1.2e-02 RMAX=   2.2e-03
LMP2-Iter=   2:  ELMP2= -1.273812464356  DE=   1.8e-03 RMAX=   5.8e-04
LMP2-Iter=   3:  ELMP2= -1.273996781934  DE=   1.8e-04 RMAX=   1.9e-04
LMP2-Iter=   4:  ELMP2= -1.274006325838  DE=   9.5e-06 RMAX=   3.0e-05
LMP2-Iter=   5:  ELMP2= -1.274004650132  DE=   1.7e-06 RMAX=   7.3e-06
LMP2-Iter=   6:  ELMP2= -1.274004410779  DE=   2.4e-07 RMAX=   1.2e-06
LMP2-Iter=   7:  ELMP2= -1.274004392667  DE=   1.8e-08 RMAX=   3.1e-07
LMP2-Iter=   8:  ELMP2= -1.274004400683  DE=   8.0e-09 RMAX=   6.7e-08 => CONVERGED
PASS-2: Formation of Pair natural orbitals
   .... Finished loop over pairs

 PNO Occupation Number Statistics: 
  | Av. % of trace(Dij) retained        ...  99.528863706094
  | sigma^2 in % of trace(Dij) retained ...   3.07e-01
  | Av. % of trace(Di) retained         ...  99.999703015955
  | sigma^2 in % of trace(Di) retained  ...   7.80e-09
 Distributions of % trace(Dij) recovered:
  |       >= 99.9  ...    63 ( 27.3 % of all pairs)
  |   [90.0, 99.0) ...    34 ( 14.7 % of all pairs)
  |   [99.0, 99.9) ...   134 ( 58.0 % of all pairs)
 Distributions of % trace(Di) recovered :
  |       >= 99.9  ...    21 (100.0 % of all I-pairs )

Making pair pair interaction lists          ... done

                       ===========================
                        231 OF  231 PAIRS ARE KEPT
                       ===========================

Total time spent in the initial guess                 ...    24.894 sec
L-MP2 correlation energy (all non-screened pairs)     ...      -1.274004400683 Eh
L-MP2 PNO error correction                            ...      -0.000032031343 Eh
                                                          --------------------
Initial total L-MP2 energy (non-screened pairs)       ...      -1.274036432026 Eh

Initial PNO correlation energy                        ...      -1.272695556261 Eh
sum of pair energies estimated for screened out pairs ...       0.000000000000 Eh
sum of MP2 pair energies for pairs that were not kept ...       0.000000000000 Eh
sum of PNO error estimates for the kept pairs         ...      -0.001340875765 Eh
                                                          --------------------
sum of all corrections                                         -0.001340875765
Initial total correlation energy                               -1.274036432026
Thresholds for map construction and integral transformation for fine MP2 and CCSD(T) calculation:
   TCutMKN   ...     1.0e-03
   TCutDO    ...     5.0e-03
   TCutPairs ...     1.0e-05
   TCutCMO   ...     1.0e-03
   TCutCPAO  ...     1.0e-03

Time for aux screen maps:            0.005
Time for maps after fine MP2:            0.017
-----------------------------
LOCAL RI TRANSFORMATION (IJV)
-----------------------------

Orbital window:       7 to 27
Basis functions:    378 (142 shells)
Aux. functions:     927 (281 shells)

Processing maps (0.0 sec)
Average map sizes:
   Aux shells -> MOs(i)           21.0
   Aux shells -> MOs(j)           21.0
   MOs        -> AO shells       138.6

Calculating integrals (2.1 sec, 3.130 MB)
Sorting integrals (0.0 sec, 3.119 MB)
Total time for the integral transformation: 2.1 sec
--------------------------------
LOCAL RI TRANSFORMATION (VABPAO)
--------------------------------

Number of PAOs:     378
Basis functions:    378 (142 shells)
Aux. functions:     927 (281 shells)

Processing maps (0.0 sec)
Average map sizes:
   Aux shells -> PAOs            378.0
   PAOs       -> AO shells       142.0

Calculating integrals (2.6 sec, 1883.744 MB)
Finished


-------------------------------------
Pair Pair Term precalculation with     
RI-(ij|mn) and (im|jn) transformation  
ON THE FLY                             
-------------------------------------

   IBatch   1 (of   2)              ... done (   58.226 sec)
   IBatch   2 (of   2)              ... done (   31.892 sec)
Total EXT                           ...          90.119 sec

---------------------
RI-PNO TRANSFORMATION
---------------------

Total Number of PNOs                   ...  9555
Average number of PNOs per pair        ...    41
Maximal number of PNOs per pair        ...    71
   #pairs with  1 -  5 PNOs   :    0
   #pairs with  6 - 10 PNOs   :    2
   #pairs with 11 - 15 PNOs   :   14
   #pairs with 16 - 20 PNOs   :   15
   #pairs with 21 - 25 PNOs   :   15
   #pairs with 26 - 30 PNOs   :   35
   #pairs with 31 - 35 PNOs   :   16
   #pairs with 36 - 40 PNOs   :   12
   #pairs with 41 - 45 PNOs   :    5
   #pairs with 46 - 50 PNOs   :   37
   #pairs with 51 - 55 PNOs   :   32
   #pairs with 56 - 60 PNOs   :    6
   #pairs with 61 - 65 PNOs   :   16
   #pairs with 66 - 70 PNOs   :   21
   #pairs with 71 - 75 PNOs   :    5

Generation of (ij|ab)[P] integrals            ... on
Generation of (ia|bc)[P],(ja|bc)[P] integrals ... on
Storage of 3 and 4 external integrals         ... on
Generation of ALL (ka|bc)[P] integrals        ... on
Keep RI integrals in memory                   ... off

Ibatch:  1 (of  1)
Starting 2-4 index PNO integral generation ... done

Timings:
Total PNO integral transformation time     ...         34.116 sec
Size of the 3-external file                ...       192 MB
Size of the 4-external file                ...      1384 MB
Size of the IKJL file                      ...         0 MB
Size of the all 3-external file            ...      2016 MB
Size of the 1-external file                ...         4 MB

Making pair/pair overlap matrices          ... done (    4.839 sec)
Size of the pair overlap file              ... 501 MB
Redoing the guess amplitudes               ... done (    0.004 sec)

-------------------------
FINAL STARTUP INFORMATION
-------------------------

E(0)                                       ...   -309.156509108
E(L-MP2)                                   ...     -1.274036432
E(L-MP2) including corrections             ...     -1.274036432
Initial E(tot)                             ...   -310.430545540
<T|T>                                      ...      0.346546706
Number of pairs included                   ... 231
Total number of pairs                      ... 231

------------------------------------------------
                  RHF COUPLED CLUSTER ITERATIONS
------------------------------------------------

Number of PNO amplitudes to be optimized   ...       463075
Number of non-PNO amplitudes               ...     28297500
Untruncated number of regular amplitudes   ...     28297500

Iter       E(tot)           E(Corr)          Delta-E          Residual     Time
  0   -310.393264947     -1.235414963      0.038621469      0.014164499   14.04
                           *** Turning on DIIS ***
  1   -310.449998957     -1.292148973     -0.056734010      0.007703236   13.82
  2   -310.482895067     -1.325045083     -0.032896110      0.002522012   13.66
  3   -310.488941233     -1.331091249     -0.006046166      0.001182869   13.42
  4   -310.490217142     -1.332367158     -0.001275909      0.000389256   13.66
  5   -310.490451155     -1.332601172     -0.000234013      0.000237793   13.73
  6   -310.490506431     -1.332656447     -0.000055276      0.000091758   13.71
  7   -310.490514819     -1.332664835     -0.000008388      0.000045009   13.67
  8   -310.490515938     -1.332665954     -0.000001119      0.000014712   13.68
  9   -310.490515031     -1.332665047      0.000000907      0.000004003   13.68
               --- The Coupled-Cluster iterations have converged ---

----------------------
COUPLED CLUSTER ENERGY
----------------------

E(0)                                       ...   -309.156509108
E(CORR)(strong-pairs)                      ...     -1.332665047
E(CORR)(weak-pairs)                        ...     -0.001340876
E(CORR)(corrected)                         ...     -1.334005923
E(TOT)                                     ...   -310.490515031
Singles Norm <S|S>**1/2                    ...      0.059883037  
T1 diagnostic                              ...      0.009240153  

------------------
LARGEST AMPLITUDES
------------------
  19-> 34  19-> 34       0.034880
  26-> 34  26-> 34       0.034880
  10-> 28  10-> 28       0.033983
   9-> 28   9-> 28       0.033979
  17-> 35  17-> 35       0.033724
  23-> 33  23-> 33       0.030679
  26-> 28  26-> 28       0.028853
  19-> 28  19-> 28       0.028852
  17-> 28  17-> 28       0.028659
  21-> 28  21-> 28       0.027678
  24-> 28  24-> 28       0.027678
  22-> 28  22-> 28       0.027658
  27-> 28  27-> 28       0.027658
  23-> 28  23-> 28       0.027173
  18-> 28  18-> 28       0.026931
  16-> 28  16-> 28       0.026930


-------------------------------------------
DLPNO BASED TRIPLES CORRECTION
-------------------------------------------

Singles multiplier          ...  1.000000
TCutTNO                     ... 1.000e-09
TCutMP2Pairs                ... 1.000e-06
TCutDOStrong                ... 1.000e-02
TCutMKNStrong               ... 1.000e-02
TCutDOWeak                  ... 2.000e-02
TCutMKNWeak                 ... 1.000e-01

Fragment selection                          .... not used
Number of Triples that are to be computed   ...      1750

 . . . . . . . . .
10% done  
20% done  
30% done  
40% done  
50% done  
60% done  
70% done  
80% done  
90% done               (    298.433 sec)
Triples timings:
Total time for T0               ...   316.053 sec
Total time for Iterative (T)    ...     0.000 sec
Total time of overall (T)       ...   318.142 sec

Triples List generation         ...     0.000 sec
TNO generation                  ...    17.610 sec
Pair density generation         ...     0.005 sec
Look up tables                  ...     0.000 sec
Generating 3-index integrals    ...   224.774 sec
  Make 4-ind.int. from 3-ind.int...    22.470 sec
  Projecting amplitudes (D + S) ...    21.517 sec
  Downprojecting integrals      ...     0.004 sec
  Energy contr. (sum over a,b,c)...     8.441 sec
Fitting ET(->0)                 ...     0.000 sec

Everything after 3-index        ...    73.659 sec

Timing details:
 TNO integrals                  ...   244.214 sec
   Reading 3-index integrals    ...     0.659 sec
   Sorting integrals            ...    42.272 sec
       Sorting integrals 1      ...     0.002 sec
       Sorting integrals 2      ...    33.019 sec
       Sorting integrals 3      ...     0.933 sec
       Sorting integrals 4      ...     0.051 sec
       Sorting integrals 5      ...     0.328 sec
       Sorting integrals 6      ...     7.939 sec
   Calculating local VM**-1/2   ...     0.716 sec
   Orthogonal. integrals        ...     1.140 sec
   Multipl. 3-index integrals   ...   199.427 sec
   All concerning IRIab (w/TNO) ...    12.056 sec

 Calculate W0/W1                ...    21.218 sec
 W 3-ext contribution           ...    11.387 sec
 W 3-int contribution           ...     3.227 sec
 Sorting W                      ...     6.308 sec

 V exchange contribution        ...     2.798 sec

 Timings for Triples without generation
     of 3-index integrals       ...    73.656 sec
       0 weak pairs             ...    73.656 sec
       1 weak pair              ...     0.000 sec
       2 weak pairs             ...     0.000 sec
       3 weak pairs             ...     0.000 sec
  Extra time for extrapolation  ...     0.000 sec

Number of Triples   (0, 1, 2, 3 weak pairs; overall):   1750       0       0       0  (  1750)
Number of Atoms     (0, 1, 2, 3 weak pairs; overall):   18.4     0.0     0.0     0.0  (    19)
Number of PAOs      (0, 1, 2, 3 weak pairs; overall):  369.2     0.0     0.0     0.0  (   378)
Number of AuxFcns   (0, 1, 2, 3 weak pairs; overall):  432.1     0.0     0.0     0.0  (   927)
Number of TNOs      (0, 1, 2, 3 weak pairs         ):  101.7     0.0     0.0     0.0
Aver. Number of NTNO, Atoms, PAOs, AuxFcns / Triples:   1750   101.7    18.4   369.2   432.1

Triples Correction (T)                     ...     -0.052611231
Final correlation energy                   ...     -1.386617154
E(CCSD)                                    ...   -310.490515031
E(CCSD(T))                                 ...   -310.543126262


Maximum memory used throughout the entire calculation: 7835.3 MB


------------------------------------------------------------------------------- 
                                     TIMINGS                                   
------------------------------------------------------------------------------- 


Total execution time                   ...      629.577 sec

Localization of occupied MO's          ...        0.607 sec (  0.1%)
Fock Matrix Formation                  ...        2.730 sec (  0.4%)
Global overlap, Fock, MKN matrices     ...        0.201 sec (  0.0%)
Differential overlap integrals         ...        0.146 sec (  0.0%)
Organizing maps                        ...        0.050 sec (  0.0%)
RI 3-index integral generations        ...       12.056 sec (  1.9%)
RI-PNO integral transformation         ...      129.726 sec ( 20.6%)
Initial Guess                          ...       27.916 sec (  4.4%)
DIIS Solver                            ...        6.780 sec (  1.1%)
State Vector Update                    ...        0.036 sec (  0.0%)
Sigma-vector construction              ...      136.742 sec ( 21.7%)
  <D|H|D>(0-ext)                       ...        3.572 sec (  2.6% of sigma)
  <D|H|D>(2-ext Fock)                  ...        0.015 sec (  0.0% of sigma)
  <D|H|D>(2-ext)                       ...       20.166 sec ( 14.7% of sigma)
  <D|H|D>(4-ext)                       ...       14.185 sec ( 10.4% of sigma)
  <D|H|D>(4-ext-corr)                  ...       72.024 sec ( 52.7% of sigma)
  CCSD doubles correction              ...        0.225 sec (  0.2% of sigma)
  <S|H|S>                              ...        0.561 sec (  0.4% of sigma)
  <S|H|D>(1-ext)                       ...        0.447 sec (  0.3% of sigma)
  <D|H|S>(1-ext)                       ...        0.013 sec (  0.0% of sigma)
  <S|H|D>(3-ext)                       ...        0.546 sec (  0.4% of sigma)
  Fock-dressing                        ...       18.152 sec ( 13.3% of sigma)
  Singles amplitudes                   ...        0.600 sec (  0.4% of sigma)
  (ik|jl)-dressing                     ...        2.591 sec (  1.9% of sigma)
  (ij|ab),(ia|jb)-dressing             ...        2.749 sec (  2.0% of sigma)
  Pair energies                        ...        0.008 sec (  0.0% of sigma)
Total Time for computing (T)           ...      318.247 sec ( 50.5% of ALL)


-------------------------   --------------------
FINAL SINGLE POINT ENERGY      -310.543126262148
-------------------------   --------------------


                            ***************************************
                            *     ORCA property calculations      *
                            ***************************************

                                    ---------------------
                                    Active property flags
                                    ---------------------
   (+) Dipole Moment


------------------------------------------------------------------------------
                       ORCA ELECTRIC PROPERTIES CALCULATION
------------------------------------------------------------------------------

Dipole Moment Calculation                       ... on
Quadrupole Moment Calculation                   ... off
Polarizability Calculation                      ... off
GBWName                                         ... 4_Me_THP_ax.gbw
Electron density file                           ... 4_Me_THP_ax.scfp.tmp
The origin for moment calculation is the CENTER OF MASS  = ( 0.093029,  0.000003  0.016975)

-------------
DIPOLE MOMENT
-------------
                                X             Y             Z
Electronic contribution:      4.56937       0.00002       0.90569
Nuclear contribution   :     -5.20946      -0.00006      -0.95069
                        -----------------------------------------
Total Dipole Moment    :     -0.64009      -0.00004      -0.04500
                        -----------------------------------------
Magnitude (a.u.)       :      0.64167
Magnitude (Debye)      :      1.63100



--------------------
Rotational spectrum 
--------------------
 
Rotational constants in cm-1:     0.125130     0.083973     0.064625 
Rotational constants in MHz :  3751.317239  2517.442590  1937.399493 

 Dipole components along the rotational axes: 
x,y,z [a.u.] :     0.639497    -0.000035    -0.052785 
x,y,z [Debye]:     1.625473    -0.000088    -0.134169 

 

Timings for individual modules:

Sum of individual times         ...      649.636 sec (=  10.827 min)
GTO integral calculation        ...        0.692 sec (=   0.012 min)   0.1 %
SCF iterations                  ...       18.987 sec (=   0.316 min)   2.9 %
MDCI module                     ...      629.957 sec (=  10.499 min)  97.0 %
                             ****ORCA TERMINATED NORMALLY****
TOTAL RUN TIME: 0 days 0 hours 10 minutes 49 seconds 953 msec
4_Me_THP_ax.gbw -> /home1/pantazis/klk/xyz_1/Oxygen_compounds/4_Me_THP_ax.gbw
4_Me_THP_ax.job -> /home1/pantazis/klk/xyz_1/Oxygen_compounds/4_Me_THP_ax.job
4_Me_THP_ax.loc -> /home1/pantazis/klk/xyz_1/Oxygen_compounds/4_Me_THP_ax.loc
4_Me_THP_ax.nodes -> /home1/pantazis/klk/xyz_1/Oxygen_compounds/4_Me_THP_ax.nodes
4_Me_THP_ax.prop -> /home1/pantazis/klk/xyz_1/Oxygen_compounds/4_Me_THP_ax.prop
4_Me_THP_ax_property.txt -> /home1/pantazis/klk/xyz_1/Oxygen_compounds/4_Me_THP_ax_property.txt
4_Me_THP_ax.xyz -> /home1/pantazis/klk/xyz_1/Oxygen_compounds/4_Me_THP_ax.xyz
cp: cannot stat 4_Me_THP_ax.asa.inp: No such file or directory
