! Job execution by suborca V 6.07 on ZEUS !
Job started from zeus1, running /scratch/pantazis/aagtxgtx6060__nURdfL/orca/orca copied from /opt/orca on zeussn129 in /scratch/pantazis/aagtxgtx6060__nURdfL
Job execution start: Thu Jun 27 14:36:02 CEST 2019
Shared library path: /scratch/pantazis/aagtxgtx6060__nURdfL/orca:/opt/openmpi_1.10.2/lib:/opt/intel/mkl/lib/intel64:/opt/intel/lib/intel64:
PBS Job ID is: 158123.icqc
izeussn129
izeussn129
izeussn129
izeussn129
izeussn129
izeussn129
izeussn129
izeussn129
izeussn129
izeussn129
izeussn129
izeussn129
izeussn129
izeussn129
izeussn129
izeussn129

                                 *****************
                                 * O   R   C   A *
                                 *****************

           --- An Ab Initio, DFT and Semiempirical electronic structure package ---

                  #######################################################
                  #                        -***-                        #
                  #          Department of theory and spectroscopy      #
                  #               Directorship: Frank Neese             #
                  #        Max Planck Institute fuer Kohlenforschung    #
                  #                Kaiser Wilhelm Platz 1               #
                  #                 D-45470 Muelheim/Ruhr               #
                  #                      Germany                        #
                  #                                                     #
                  #                  All rights reserved                #
                  #                        -***-                        #
                  #######################################################


                         Program Version 4.1.x  -  STABLE  -
                                (SVN: $Rev: 14094$)
                ($Date: 2019-06-14 15:01:15 +0200 (Fri, 14 Jun 2019) $)

                         (BUILD: $Sun Jun 23 06:18:31 CEST 2019$)


 With contributions from (in alphabetic order):
   Daniel Aravena         : Magnetic Properties
   Michael Atanasov       : Ab Initio Ligand Field Theory
   Alexander A. Auer      : GIAO ZORA
   Ute Becker             : Parallelization
   Giovanni Bistoni       : ED, Open-shell LED
   Martin Brehm           : Molecular dynamics
   Dmytro Bykov           : SCF Hessian
   Vijay G. Chilkuri      : MRCI spin determinant printing
   Dipayan Datta          : RHF DLPNO-CCSD density
   Achintya Kumar Dutta   : EOM-CC, STEOM-CC
   Dmitry Ganyushin       : Spin-Orbit,Spin-Spin,Magnetic field MRCI
   Miquel Garcia          : C-PCM Hessian
   Yang Guo               : DLPNO-NEVPT2, CIM, IAO-localization
   Andreas Hansen         : Spin unrestricted coupled pair/coupled cluster methods
   Benjamin Helmich-Paris : CASSCF linear response (MC-RPA)
   Lee Huntington         : MR-EOM, pCC
   Robert Izsak           : Overlap fitted RIJCOSX, COSX-SCS-MP3, EOM
   Christian Kollmar      : KDIIS, OOCD, Brueckner-CCSD(T), CCSD density
   Simone Kossmann        : Meta GGA functionals, TD-DFT gradient, OOMP2, MP2 Hessian
   Martin Krupicka        : AUTO-CI
   Lucas Lang             : DCDCAS
   Dagmar Lenk            : GEPOL surface, SMD
   Dimitrios Liakos       : Extrapolation schemes; parallel MDCI
   Dimitrios Manganas     : ROCIS; embedding schemes
   Dimitrios Pantazis     : SARC Basis sets
   Taras Petrenko         : DFT Hessian,TD-DFT gradient, ASA, ECA, R-Raman, ABS, FL, XAS/XES, NRVS
   Peter Pinski           : DLPNO-MP2, DLPNO-MP2 Gradient
   Christoph Reimann      : Effective Core Potentials
   Marius Retegan         : Local ZFS, SOC
   Christoph Riplinger    : Optimizer, TS searches, QM/MM, DLPNO-CCSD(T), (RO)-DLPNO pert. Triples
   Tobias Risthaus        : Range-separated hybrids, TD-DFT gradient, RPA, STAB
   Michael Roemelt        : Restricted open shell CIS
   Masaaki Saitow         : Open-shell DLPNO
   Barbara Sandhoefer     : DKH picture change effects
   Avijit Sen             : IP-ROCIS
   Kantharuban Sivalingam : CASSCF convergence, NEVPT2, FIC-MRCI
   Bernardo de Souza      : ESD, SOC TD-DFT
   Georgi Stoychev        : AutoAux, RI-MP2 NMR
   Willem Van den Heuvel  : Paramagnetic NMR
   Boris Wezisla          : Elementary symmetry handling
   Frank Wennmohs         : Technical directorship


 We gratefully acknowledge several colleagues who have allowed us to
 interface, adapt or use parts of their codes:
   Stefan Grimme, W. Hujo, H. Kruse,             : VdW corrections, initial TS optimization,
                  C. Bannwarth                     DFT functionals, gCP, sTDA/sTD-DF
   Ed Valeev                                     : LibInt (2-el integral package), F12 methods
   Garnet Chan, S. Sharma, J. Yang, R. Olivares  : DMRG
   Ulf Ekstrom                                   : XCFun DFT Library
   Mihaly Kallay                                 : mrcc  (arbitrary order and MRCC methods)
   Andreas Klamt, Michael Diedenhofen            : otool_cosmo (COSMO solvation model)
   Jiri Pittner, Ondrej Demel                    : Mk-CCSD
   Frank Weinhold                                : gennbo (NPA and NBO analysis)
   Christopher J. Cramer and Donald G. Truhlar   : smd solvation model
   Lars Goerigk                                  : TD-DFT with DH, B97 family of functionals
   V. Asgeirsson, H. Jonsson                     : NEB implementation
   FAccTs GmbH                                   : IRC, NEB, NEB-TS, Multilevel


 Your calculation uses the libint2 library for the computation of 2-el integrals
 For citations please refer to: http://libint.valeyev.net

 This ORCA versions uses:
   CBLAS   interface :  Fast vector & matrix operations
   LAPACKE interface :  Fast linear algebra routines
   SCALAPACK package :  Parallel linear algebra routines




***************************************
The coordinates will be read from file: aagtxgtx6060.xyz
***************************************


----- Orbital basis set information -----
Your calculation utilizes the basis: cc-pVTZ 
       H, B-Ne : Obtained from the ccRepo (grant-hill.group.shef.ac.uk/ccrepo) Feb. 2017
                 T. H. Dunning, Jr., J. Chem. Phys. 90, 1007 (1989)
            He : Obtained from the ccRepo (grant-hill.group.shef.ac.uk/ccrepo) Feb. 2017
                 D. E. Woon, T. H. Dunning, Jr., J. Chem. Phys. 100, 2975 (1994)
  Li-Be, Na-Mg : Obtained from the ccRepo (grant-hill.group.shef.ac.uk/ccrepo) Feb. 2017
                 B. P. Prascher, D. E. Woon, K. A. Peterson, T. H. Dunning, Jr., A. K. Wilson, Theor. Chem. Acc. 128, 69 (2011)
         Al-Ar : Obtained from the ccRepo (grant-hill.group.shef.ac.uk/ccrepo) Feb. 2017
                 D. E. Woon, T. H. Dunning, Jr., J. Chem. Phys. 98, 1358 (1993)
            Ca : Obtained from the Peterson Research Group Website (tyr0.chem.wsu.edu/~kipeters) Feb. 2017
                 J. Koput, K. A. Peterson, J. Phys. Chem. 106, 9595 (2002)
         Sc-Zn : Obtained from the ccRepo (grant-hill.group.shef.ac.uk/ccrepo) Feb. 2017
                 N. B. Balabanov, K. A. Peterson, J. Chem. Phys. 123, 064107 (2005)
                 N. B. Balabanov, K. A. Peterson, J. Chem. Phys. 125, 074110 (2006)
         Ga-Kr : Obtained from the ccRepo (grant-hill.group.shef.ac.uk/ccrepo) Feb. 2017
                 A. K. Wilson, D. E. Woon, K. A. Peterson, T. H. Dunning, Jr., J. Chem. Phys. 110, 7667 (1999)
             Y : Obtained from the ccRepo (grant-hill.group.shef.ac.uk/ccrepo) Feb. 2017
                 K. A. Peterson, D. Figgen, M. Dolg, H. Stoll, J. Chem. Phys. 126, 124101 (2007)
        Ag, Au : Obtained from the Peterson Research Group Website (tyr0.chem.wsu.edu/~kipeters) Feb. 2017
                 K. A. Peterson, C. Puzzarini, Theor. Chem. Acc. 114, 283 (2005)

----- AuxC basis set information -----
Your calculation utilizes the auxiliary basis: cc-pVTZ/C 
  Obtained from the EMSL Basis Set Exchange (bse.pnl.gov) Feb. 2017
  H-He, B-F, Al-Ar, Ga-Kr : F. Weigend, A. Kohn, C. Hattig, J. Chem. Phys. 116, 3175 (2002)
             Li-Be, Na-Mg : C. Haettig, Phys. Chem. Chem. Phys. 7, 59 (2005)
                       Ne : C. Haettig, Phys. Chem. Chem. Phys. 7, 59 (2005)
                            F. Weigend, A. Kohn, C. Hattig, J. Chem. Phys. 116, 3175 (2002)
                    Sc-Zn : J. G. Hill, J. A. Platts, J. Chem. Phys. 128, 044104 (2008)

----- AuxJK basis set information -----
Your calculation utilizes the auxiliary basis: cc-pVTZ/JK 
  H, B-F, Al-Cl, Ga-Br : Obtained from the TURBOMOLE 7.0 basis set library

================================================================================
                                        WARNINGS
                       Please study these warnings very carefully!
================================================================================


WARNING: MDCI localization with Augmented Hessian Foster-Boys
  ===> : Switching off randomization!

WARNING: Post HF methods need fully converged wavefunctions
  ===> : Setting SCFConvForced true
         You can overwrite this default with %scf ConvForced false 


INFO   : the flag for use of LIBINT has been found!

================================================================================
                                       INPUT FILE
================================================================================
NAME = aagtxgtx6060.inp
|  1> ! RHF DLPNO-CCSD(T) cc-pVTZ RIJK cc-pVTZ/JK cc-pVTZ/C
|  2> ! KDIIS SOSCF TightSCF TightPNO
|  3> 
|  4> %pal nprocs 16 end
|  5> 
|  6> %maxcore 7000
|  7> 
|  8> %scf maxiter 300
|  9>      shift shift 0.2 erroff 0.1 end
| 10> end
| 11> 
| 12> * xyzfile 0 1 aagtxgtx6060.xyz 
| 13> 
| 14> 
| 15>                          ****END OF INPUT****
================================================================================

                       ****************************
                       * Single Point Calculation *
                       ****************************

---------------------------------
CARTESIAN COORDINATES (ANGSTROEM)
---------------------------------
  C      3.570300    0.275800   -0.337500
  C      2.603800    1.027200   -1.249500
  C      2.785800   -0.646400    0.600200
  O      1.803000    0.122800    1.334600
  C      1.559200    1.784200   -0.424300
  C      0.866600    0.845000    0.574500
  O     -0.000000   -0.000000   -0.190800
  C     -0.866600   -0.845000    0.574500
  O     -1.803000   -0.122800    1.334600
  C     -1.559200   -1.784200   -0.424300
  C     -2.785800    0.646400    0.600200
  C     -3.570300   -0.275800   -0.337500
  C     -2.603800   -1.027200   -1.249500
  H      4.123500    1.015000    0.263800
  O      4.473700   -0.527600   -1.085100
  H      2.096000    0.294300   -1.896200
  O      3.375900    1.917600   -2.048200
  H      2.276500   -1.422500    0.015000
  C      3.661100   -1.314200    1.654700
  O      0.634100    2.462600   -1.266600
  H      2.066900    2.565700    0.150200
  H      0.272500    1.407000    1.299800
  H     -0.272500   -1.407000    1.299800
  H     -2.067000   -2.565700    0.150100
  O     -0.634100   -2.462600   -1.266600
  H     -2.276500    1.422500    0.015100
  C     -3.661100    1.314200    1.654700
  O     -4.473700    0.527700   -1.085100
  H     -4.123500   -1.015000    0.263800
  O     -3.375900   -1.917500   -2.048300
  H     -2.096000   -0.294200   -1.896200
  H      4.187700   -0.539500    2.232200
  H      4.404000   -1.939500    1.156200
  O      2.909000   -2.164800    2.508700
  H     -4.187700    0.539500    2.232200
  H     -4.404000    1.939500    1.156200
  O     -2.909000    2.164800    2.508700
  H     -2.256200    1.616800    2.965500
  H      0.010800   -1.811400   -1.581300
  H     -2.765100   -2.488500   -2.537200
  H     -4.877700   -0.037400   -1.759600
  H     -0.010900    1.811400   -1.581300
  H      2.765100    2.488500   -2.537100
  H      4.877700    0.037400   -1.759600
  H      2.256200   -1.616800    2.965400

----------------------------
CARTESIAN COORDINATES (A.U.)
----------------------------
  NO LB      ZA    FRAG     MASS         X           Y           Z
   0 C     6.0000    0    12.011    6.746889    0.521186   -0.637783
   1 C     6.0000    0    12.011    4.920469    1.941127   -2.361213
   2 C     6.0000    0    12.011    5.264399   -1.221519    1.134214
   3 O     8.0000    0    15.999    3.407176    0.232058    2.522028
   4 C     6.0000    0    12.011    2.946461    3.371649   -0.801811
   5 C     6.0000    0    12.011    1.637637    1.596819    1.085648
   6 O     8.0000    0    15.999   -0.000000   -0.000000   -0.360560
   7 C     6.0000    0    12.011   -1.637637   -1.596819    1.085648
   8 O     8.0000    0    15.999   -3.407176   -0.232058    2.522028
   9 C     6.0000    0    12.011   -2.946461   -3.371649   -0.801811
  10 C     6.0000    0    12.011   -5.264399    1.221519    1.134214
  11 C     6.0000    0    12.011   -6.746889   -0.521186   -0.637783
  12 C     6.0000    0    12.011   -4.920469   -1.941127   -2.361213
  13 H     1.0000    0     1.008    7.792286    1.918072    0.498510
  14 O     8.0000    0    15.999    8.454068   -0.997020   -2.050542
  15 H     1.0000    0     1.008    3.960866    0.556146   -3.583299
  16 O     8.0000    0    15.999    6.379526    3.623739   -3.870537
  17 H     1.0000    0     1.008    4.301962   -2.688135    0.028346
  18 C     6.0000    0    12.011    6.918476   -2.483478    3.126930
  19 O     8.0000    0    15.999    1.198275    4.653640   -2.393527
  20 H     1.0000    0     1.008    3.905875    4.848470    0.283837
  21 H     1.0000    0     1.008    0.514950    2.658845    2.456266
  22 H     1.0000    0     1.008   -0.514950   -2.658845    2.456266
  23 H     1.0000    0     1.008   -3.906064   -4.848470    0.283648
  24 O     8.0000    0    15.999   -1.198275   -4.653640   -2.393527
  25 H     1.0000    0     1.008   -4.301962    2.688135    0.028535
  26 C     6.0000    0    12.011   -6.918476    2.483478    3.126930
  27 O     8.0000    0    15.999   -8.454068    0.997208   -2.050542
  28 H     1.0000    0     1.008   -7.792286   -1.918072    0.498510
  29 O     8.0000    0    15.999   -6.379526   -3.623550   -3.870726
  30 H     1.0000    0     1.008   -3.960866   -0.555957   -3.583299
  31 H     1.0000    0     1.008    7.913606   -1.019507    4.218247
  32 H     1.0000    0     1.008    8.322354   -3.665124    2.184901
  33 O     8.0000    0    15.999    5.497213   -4.090879    4.740756
  34 H     1.0000    0     1.008   -7.913606    1.019507    4.218247
  35 H     1.0000    0     1.008   -8.322354    3.665124    2.184901
  36 O     8.0000    0    15.999   -5.497213    4.090879    4.740756
  37 H     1.0000    0     1.008   -4.263600    3.055309    5.603983
  38 H     1.0000    0     1.008    0.020409   -3.423050   -2.988224
  39 H     1.0000    0     1.008   -5.225282   -4.702583   -4.794613
  40 H     1.0000    0     1.008   -9.217517   -0.070676   -3.325162
  41 H     1.0000    0     1.008   -0.020598    3.423050   -2.988224
  42 H     1.0000    0     1.008    5.225282    4.702583   -4.794424
  43 H     1.0000    0     1.008    9.217517    0.070676   -3.325162
  44 H     1.0000    0     1.008    4.263600   -3.055309    5.603794

--------------------------------
INTERNAL COORDINATES (ANGSTROEM)
--------------------------------
 C      0   0   0     0.000000000000     0.00000000     0.00000000
 C      1   0   0     1.526587111828     0.00000000     0.00000000
 C      1   2   0     1.531396219141   109.74789697     0.00000000
 O      3   1   2     1.448070385030   109.77590113   304.56520167
 C      2   1   3     1.531402363848   110.68619490    55.31520017
 C      4   3   1     1.405763070364   116.79264091    57.46762043
 O      6   4   3     1.432028159639   112.88725081    64.88312771
 C      7   6   4     1.432028159639   115.39125342    64.69319861
 O      8   7   6     1.405763070364   112.88725081    64.69319861
 C      8   7   6     1.536031523114   106.62821138   187.37479320
 C      9   8   7     1.448070385030   116.79264091    64.88312771
 C     11   9   8     1.531396219141   109.77590113    57.46762043
 C     12  11   9     1.526587111828   109.74789697   304.56520167
 H      1   2   3     1.101820570692   108.28117698   241.01698543
 O      1   2   3     1.421439017334   111.49177450   119.48597975
 H      2   1   3     1.101464543233   108.36840168   295.44914623
 O      2   1   3     1.423682640198   107.43587295   177.00890315
 H      3   1   2     1.097349871281   109.70153014    64.73271225
 C      3   1   2     1.524492433566   113.15406612   186.68505681
 O      5   2   1     1.423202677063   111.10650123   181.37738071
 H      5   2   1     1.094783901051   108.62079833    65.43702311
 H      6   4   3     1.093096015911   105.50942340   184.08201707
 H      8   7   6     1.093096015911   109.21261667   307.66168369
 H     10   8   7     1.094777808507   107.72540723   168.75903720
 O     10   8   7     1.423202677063   112.53234599    52.56068841
 H     11   9   8     1.097296546062   109.33662432   297.07538311
 C     11   9   8     1.524492433566   105.75721019   179.85327027
 O     12  11   9     1.421495539916   107.89108929   182.90005088
 H     12  11   9     1.101820570692   109.08972521    63.04944025
 O     13  12  11     1.423676206165   107.43639805   177.01483709
 H     13  12  11     1.101531084446   108.36455483   295.44970233
 H     19   3   1     1.100442592778   109.23074243    56.65067899
 H     19   3   1     1.091513971509   109.01531352   298.24982417
 O     19   3   1     1.420735995884   111.96860935   180.09385176
 H     27  11   9     1.100442592778   109.23074243   296.45070127
 H     27  11   9     1.091513971509   109.01531352   178.04984645
 O     27  11   9     1.420735995884   111.96860935    59.89387404
 H     37  27  11     0.967015036078   107.57950036   298.51675430
 H     25  10   8     0.969016790360   107.72619011   314.48358818
 H     30  13  12     0.968576713534   108.05156756   188.06550093
 H     28  12  11     0.968248036404   107.55642188   172.27982700
 H     20   5   2     0.969083345229   107.72896701    79.44269878
 H     17   2   1     0.968517764421   108.04908715   188.06132150
 H     15   1   2     0.968189676665   107.56421135    51.69939569
 H     34  19   3     0.966967801946   107.57665094   298.52134539

---------------------------
INTERNAL COORDINATES (A.U.)
---------------------------
 C      0   0   0     0.000000000000     0.00000000     0.00000000
 C      1   0   0     2.884831560929     0.00000000     0.00000000
 C      1   2   0     2.893919456699   109.74789697     0.00000000
 O      3   1   2     2.736456450348   109.77590113   304.56520167
 C      2   1   3     2.893931068513   110.68619490    55.31520017
 C      4   3   1     2.656507212169   116.79264091    57.46762043
 O      6   4   3     2.706141037782   112.88725081    64.88312771
 C      7   6   4     2.706141037782   115.39125342    64.69319861
 O      8   7   6     2.656507212169   112.88725081    64.69319861
 C      8   7   6     2.902678911755   106.62821138   187.37479320
 C      9   8   7     2.736456450348   116.79264091    64.88312771
 C     11   9   8     2.893919456699   109.77590113    57.46762043
 C     12  11   9     2.884831560929   109.74789697   304.56520167
 H      1   2   3     2.082139127329   108.28117698   241.01698543
 O      1   2   3     2.686130458832   111.49177450   119.48597975
 H      2   1   3     2.081466332935   108.36840168   295.44914623
 O      2   1   3     2.690370291591   107.43587295   177.00890315
 H      3   1   2     2.073690729814   109.70153014    64.73271225
 C      3   1   2     2.880873192675   113.15406612   186.68505681
 O      5   2   1     2.689463292713   111.10650123   181.37738071
 H      5   2   1     2.068841748812   108.62079833    65.43702311
 H      6   4   3     2.065652108152   105.50942340   184.08201707
 H      8   7   6     2.065652108152   109.21261667   307.66168369
 H     10   8   7     2.068830235573   107.72540723   168.75903720
 O     10   8   7     2.689463292713   112.53234599    52.56068841
 H     11   9   8     2.073589959755   109.33662432   297.07538311
 C     11   9   8     2.880873192675   105.75721019   179.85327027
 O     12  11   9     2.686237271031   107.89108929   182.90005088
 H     12  11   9     2.082139127329   109.08972521    63.04944025
 O     13  12  11     2.690358133032   107.43639805   177.01483709
 H     13  12  11     2.081592077604   108.36455483   295.44970233
 H     19   3   1     2.079535126453   109.23074243    56.65067899
 H     19   3   1     2.062662477501   109.01531352   298.24982417
 O     19   3   1     2.684801940824   111.96860935   180.09385176
 H     27  11   9     2.079535126453   109.23074243   296.45070127
 H     27  11   9     2.062662477501   109.01531352   178.04984645
 O     27  11   9     2.684801940824   111.96860935    59.89387404
 H     37  27  11     1.827393585570   107.57950036   298.51675430
 H     25  10   8     1.831176352952   107.72619011   314.48358818
 H     30  13  12     1.830344728272   108.05156756   188.06550093
 H     28  12  11     1.829723618510   107.55642188   172.27982700
 H     20   5   2     1.831302123427   107.72896701    79.44269878
 H     17   2   1     1.830233330594   108.04908715   188.06132150
 H     15   1   2     1.829613334586   107.56421135    51.69939569
 H     34  19   3     1.827304325997   107.57665094   298.52134539

---------------------
BASIS SET INFORMATION
---------------------
There are 3 groups of distinct atoms

 Group   1 Type C   : 18s5p2d1f contracted to 4s3p2d1f pattern {8811/311/11/1}
 Group   2 Type O   : 18s5p2d1f contracted to 4s3p2d1f pattern {8811/311/11/1}
 Group   3 Type H   : 5s2p1d contracted to 3s2p1d pattern {311/11/1}

Atom   0C    basis set group =>   1
Atom   1C    basis set group =>   1
Atom   2C    basis set group =>   1
Atom   3O    basis set group =>   2
Atom   4C    basis set group =>   1
Atom   5C    basis set group =>   1
Atom   6O    basis set group =>   2
Atom   7C    basis set group =>   1
Atom   8O    basis set group =>   2
Atom   9C    basis set group =>   1
Atom  10C    basis set group =>   1
Atom  11C    basis set group =>   1
Atom  12C    basis set group =>   1
Atom  13H    basis set group =>   3
Atom  14O    basis set group =>   2
Atom  15H    basis set group =>   3
Atom  16O    basis set group =>   2
Atom  17H    basis set group =>   3
Atom  18C    basis set group =>   1
Atom  19O    basis set group =>   2
Atom  20H    basis set group =>   3
Atom  21H    basis set group =>   3
Atom  22H    basis set group =>   3
Atom  23H    basis set group =>   3
Atom  24O    basis set group =>   2
Atom  25H    basis set group =>   3
Atom  26C    basis set group =>   1
Atom  27O    basis set group =>   2
Atom  28H    basis set group =>   3
Atom  29O    basis set group =>   2
Atom  30H    basis set group =>   3
Atom  31H    basis set group =>   3
Atom  32H    basis set group =>   3
Atom  33O    basis set group =>   2
Atom  34H    basis set group =>   3
Atom  35H    basis set group =>   3
Atom  36O    basis set group =>   2
Atom  37H    basis set group =>   3
Atom  38H    basis set group =>   3
Atom  39H    basis set group =>   3
Atom  40H    basis set group =>   3
Atom  41H    basis set group =>   3
Atom  42H    basis set group =>   3
Atom  43H    basis set group =>   3
Atom  44H    basis set group =>   3
-------------------------------
AUXILIARY BASIS SET INFORMATION
-------------------------------
There are 3 groups of distinct atoms

 Group   1 Type C   : 8s6p5d3f1g contracted to 8s6p5d3f1g pattern {11111111/111111/11111/111/1}
 Group   2 Type O   : 8s6p5d3f1g contracted to 8s6p5d3f1g pattern {11111111/111111/11111/111/1}
 Group   3 Type H   : 4s3p2d1f contracted to 4s3p2d1f pattern {1111/111/11/1}

Atom   0C    basis set group =>   1
Atom   1C    basis set group =>   1
Atom   2C    basis set group =>   1
Atom   3O    basis set group =>   2
Atom   4C    basis set group =>   1
Atom   5C    basis set group =>   1
Atom   6O    basis set group =>   2
Atom   7C    basis set group =>   1
Atom   8O    basis set group =>   2
Atom   9C    basis set group =>   1
Atom  10C    basis set group =>   1
Atom  11C    basis set group =>   1
Atom  12C    basis set group =>   1
Atom  13H    basis set group =>   3
Atom  14O    basis set group =>   2
Atom  15H    basis set group =>   3
Atom  16O    basis set group =>   2
Atom  17H    basis set group =>   3
Atom  18C    basis set group =>   1
Atom  19O    basis set group =>   2
Atom  20H    basis set group =>   3
Atom  21H    basis set group =>   3
Atom  22H    basis set group =>   3
Atom  23H    basis set group =>   3
Atom  24O    basis set group =>   2
Atom  25H    basis set group =>   3
Atom  26C    basis set group =>   1
Atom  27O    basis set group =>   2
Atom  28H    basis set group =>   3
Atom  29O    basis set group =>   2
Atom  30H    basis set group =>   3
Atom  31H    basis set group =>   3
Atom  32H    basis set group =>   3
Atom  33O    basis set group =>   2
Atom  34H    basis set group =>   3
Atom  35H    basis set group =>   3
Atom  36O    basis set group =>   2
Atom  37H    basis set group =>   3
Atom  38H    basis set group =>   3
Atom  39H    basis set group =>   3
Atom  40H    basis set group =>   3
Atom  41H    basis set group =>   3
Atom  42H    basis set group =>   3
Atom  43H    basis set group =>   3
Atom  44H    basis set group =>   3
-------------------------------
AUXILIARY BASIS SET INFORMATION
-------------------------------
There are 3 groups of distinct atoms

 Group   1 Type C   : 10s7p5d2f1g contracted to 10s7p5d2f1g pattern {1111111111/1111111/11111/11/1}
 Group   2 Type O   : 10s7p5d2f1g contracted to 10s7p5d2f1g pattern {1111111111/1111111/11111/11/1}
 Group   3 Type H   : 4s3p2d1f contracted to 4s3p2d1f pattern {1111/111/11/1}

Atom   0C    basis set group =>   1
Atom   1C    basis set group =>   1
Atom   2C    basis set group =>   1
Atom   3O    basis set group =>   2
Atom   4C    basis set group =>   1
Atom   5C    basis set group =>   1
Atom   6O    basis set group =>   2
Atom   7C    basis set group =>   1
Atom   8O    basis set group =>   2
Atom   9C    basis set group =>   1
Atom  10C    basis set group =>   1
Atom  11C    basis set group =>   1
Atom  12C    basis set group =>   1
Atom  13H    basis set group =>   3
Atom  14O    basis set group =>   2
Atom  15H    basis set group =>   3
Atom  16O    basis set group =>   2
Atom  17H    basis set group =>   3
Atom  18C    basis set group =>   1
Atom  19O    basis set group =>   2
Atom  20H    basis set group =>   3
Atom  21H    basis set group =>   3
Atom  22H    basis set group =>   3
Atom  23H    basis set group =>   3
Atom  24O    basis set group =>   2
Atom  25H    basis set group =>   3
Atom  26C    basis set group =>   1
Atom  27O    basis set group =>   2
Atom  28H    basis set group =>   3
Atom  29O    basis set group =>   2
Atom  30H    basis set group =>   3
Atom  31H    basis set group =>   3
Atom  32H    basis set group =>   3
Atom  33O    basis set group =>   2
Atom  34H    basis set group =>   3
Atom  35H    basis set group =>   3
Atom  36O    basis set group =>   2
Atom  37H    basis set group =>   3
Atom  38H    basis set group =>   3
Atom  39H    basis set group =>   3
Atom  40H    basis set group =>   3
Atom  41H    basis set group =>   3
Atom  42H    basis set group =>   3
Atom  43H    basis set group =>   3
Atom  44H    basis set group =>   3


           ************************************************************
           *        Program running with 16 parallel MPI-processes    *
           *              working on a common directory               *
           ************************************************************
------------------------------------------------------------------------------
                           ORCA GTO INTEGRAL CALCULATION
                           -- RI-GTO INTEGRALS CHOSEN --
------------------------------------------------------------------------------

                         BASIS SET STATISTICS AND STARTUP INFO

Gaussian basis set:
 # of primitive gaussian shells          ...  774
 # of primitive gaussian functions       ... 1502
 # of contracted shells                  ...  362
 # of contracted basis functions         ...  998
 Highest angular momentum                ...    3
 Maximum contraction depth               ...    8
Auxiliary gaussian basis set:
 # of primitive gaussian shells          ...  795
 # of primitive gaussian functions       ... 2477
 # of contracted shells                  ...  795
 # of contracted aux-basis functions     ... 2477
 Highest angular momentum                ...    4
 Maximum contraction depth               ...    1
Ratio of auxiliary to basis functions    ...  2.48
Integral package used                  ... LIBINT
 One Electron integrals                  ... done
 Ordering auxiliary basis shells         ... done
 Integral threshhold             Thresh  ...  2.500e-11
 Primitive cut-off               TCut    ...  2.500e-12
 Pre-screening matrix                    ... done
 Shell pair data                         ... 
 Ordering of the shell pairs             ... done (   0.010 sec) 45597 of 65703 pairs
 Determination of significant pairs      ... done (   0.000 sec)
 Creation of shell pair data             ... done (   0.010 sec)
 Storage of shell pair data              ... done (   0.011 sec)
 Shell pair data done in (   0.032 sec)
 Computing two index integrals           ... done
 Cholesky decomposition of the V-matrix  ... done


Timings:
 Total evaluation time                   ...   2.928 sec (  0.049 min)
 One electron matrix time                ...   0.796 sec (  0.013 min) = 27.2%
 Schwartz matrix evaluation time         ...   1.193 sec (  0.020 min) = 40.8%
 Two index repulsion integral time       ...   0.341 sec (  0.006 min) = 11.7%
 Cholesky decomposition of V             ...   0.539 sec (  0.009 min) = 18.4%
 Three index repulsion integral time     ...   0.000 sec (  0.000 min) =  0.0%



           ************************************************************
           *        Program running with 16 parallel MPI-processes    *
           *              working on a common directory               *
           ************************************************************
-------------------------------------------------------------------------------
                                 ORCA SCF
-------------------------------------------------------------------------------

------------
SCF SETTINGS
------------
Hamiltonian:
 Ab initio Hamiltonian  Method          .... Hartree-Fock(GTOs)
 RI-approximation to the Coulomb term is turned on
   Number of auxiliary basis functions  .... 2477
   RI-JK (J+K treated both via RI)      .... on


General Settings:
 Integral files         IntName         .... aagtxgtx6060
 Hartree-Fock type      HFTyp           .... RHF
 Total Charge           Charge          ....    0
 Multiplicity           Mult            ....    1
 Number of Electrons    NEL             ....  182
 Basis Dimension        Dim             ....  998
 Nuclear Repulsion      ENuc            ....   2333.1350648193 Eh

Convergence Acceleration:
 DIIS                   CNVDIIS         .... off
 Newton-Raphson         CNVNR           .... off
 SOSCF                  CNVSOSCF        .... on
   Start iteration      SOSCFMaxIt      ....   150
   Startup grad/error   SOSCFStart      ....  0.003300
 Level Shifting         CNVShift        .... on
   Level shift para.    LevelShift      ....    0.2000
   Turn off err/grad.   ShiftErr        ....    0.1000
 Zerner damping         CNVZerner       .... off
 Static damping         CNVDamp         .... off
 Fernandez-Rico         CNVRico         .... off

SCF Procedure:
 Maximum # iterations   MaxIter         ....   300
 SCF integral mode      SCFMode         .... Direct
   Integral package                     .... LIBINT
 Reset frequency        DirectResetFreq ....    20
 Integral Threshold     Thresh          ....  2.500e-11 Eh
 Primitive CutOff       TCut            ....  2.500e-12 Eh

Convergence Tolerance:
 Convergence Check Mode ConvCheckMode   .... Total+1el-Energy
 Convergence forced     ConvForced      .... 1
 Energy Change          TolE            ....  1.000e-08 Eh
 1-El. energy change                    ....  1.000e-05 Eh
 Orbital Gradient       TolG            ....  1.000e-05
 Orbital Rotation angle TolX            ....  1.000e-05


Diagonalization of the overlap matrix:
Smallest eigenvalue                        ... 1.789e-04
Time for diagonalization                   ...    0.272 sec
Threshold for overlap eigenvalues          ... 1.000e-08
Number of eigenvalues below threshold      ... 0
Time for construction of square roots      ...    0.204 sec
Total time needed                          ...    0.480 sec

-------------------
DFT GRID GENERATION
-------------------

General Integration Accuracy     IntAcc      ...  4.340
Radial Grid Type                 RadialGrid  ... Gauss-Chebyshev
Angular Grid (max. acc.)         AngularGrid ... Lebedev-110
Angular grid pruning method      GridPruning ... 3 (G Style)
Weight generation scheme         WeightScheme... Becke
Basis function cutoff            BFCut       ...    1.0000e-11
Integration weight cutoff        WCut        ...    1.0000e-14
Grids for H and He will be reduced by one unit

# of grid points (after initial pruning)     ...  56216 (   0.0 sec)
# of grid points (after weights+screening)   ...  49444 (   0.1 sec)
nearest neighbour list constructed           ...    0.0 sec
Grid point re-assignment to atoms done       ...    0.0 sec
Grid point division into batches done        ...    0.0 sec
Reduced shell lists constructed in    0.4 sec

Total number of grid points                  ...    49444
Total number of batches                      ...      795
Average number of points per batch           ...       62
Average number of grid points per atom       ...     1099
Average number of shells per batch           ...   187.63 (51.83%)
Average number of basis functions per batch  ...   473.82 (47.48%)
Average number of large shells per batch     ...   127.06 (67.72%)
Average number of large basis fcns per batch ...   325.61 (68.72%)
Average number of aux-shells per batch       ...   187.63 (23.60%)
Average number of aux functions per batch    ...   473.82 (19.13%)
Maximum spatial batch extension              ...   5.21,  4.78, 13.35 au
Average spatial batch extension              ...   0.10,  0.10,  0.12 au

Time for grid setup =    0.582 sec

------------------------------
INITIAL GUESS: MODEL POTENTIAL
------------------------------
Loading Hartree-Fock densities                     ... done
Calculating cut-offs                               ... done
Setting up the integral package                    ... done
Initializing the effective Hamiltonian             ... done
Starting the Coulomb interaction                   ... done (   0.4 sec)
Reading the grid                                   ... done
Mapping shells                                     ... done
Starting the XC term evaluation                    ... done (   0.2 sec)
Transforming the Hamiltonian                       ... done (   0.1 sec)
Diagonalizing the Hamiltonian                      ... done (   0.3 sec)
Back transforming the eigenvectors                 ... done (   0.0 sec)
Now organizing SCF variables                       ... done
                      ------------------
                      INITIAL GUESS DONE (   1.8 sec)
                      ------------------
--------------
SCF ITERATIONS
--------------
ITER       Energy         Delta-E        Max-DP      RMS-DP      [F,P]   Gradient Norm
                             ****Turning on KDIIS(Cayley)****
  0  -1290.2780614437   0.000000000000 0.00983468  0.00014451  0.1239790   0.156504050
  1  -1290.5114321239  -0.233370680245 0.01815808  0.00018122  0.1134575   0.136692613
  2  -1290.7306665093  -0.219234385332 0.03006540  0.00029897  0.0914212   0.110722771
  3  -1290.9945062475  -0.263839738251 0.04593342  0.00047635  0.0550847   0.067437400
                      *** Initiating the SOSCF procedure ***
                           *** Shutting down KDIIS ***
                      *** Re-Reading the Fockian *** 
                      *** Removing any level shift *** 
ITER      Energy       Delta-E        Grad      Rot      Max-DP    RMS-DP
  4  -1291.15770051  -0.1631942619  0.000948  0.000948  0.001650  0.000024
  5  -1291.15798945  -0.0002889423  0.000253  0.000323  0.000609  0.000009
  6  -1291.15800548  -0.0000160270  0.000181  0.000119  0.000355  0.000005
  7  -1291.15801243  -0.0000069479  0.000026  0.000050  0.000162  0.000002
  8  -1291.15801274  -0.0000003124  0.000015  0.000016  0.000053  0.000001
  9  -1291.15801281  -0.0000000723  0.000004  0.000004  0.000010  0.000000
                  ***Gradient check signals convergence***
              ***Rediagonalizing the Fockian in SOSCF/NRSCF***

               *****************************************************
               *                     SUCCESS                       *
               *           SCF CONVERGED AFTER  10 CYCLES          *
               *****************************************************


----------------
TOTAL SCF ENERGY
----------------

Total Energy       :        -1291.15801282 Eh          -35134.19572 eV

Components:
Nuclear Repulsion  :         2333.13506482 Eh           63487.83277 eV
Electronic Energy  :        -3624.29307763 Eh          -98622.02849 eV
One Electron Energy:        -6418.63712911 Eh         -174659.99583 eV
Two Electron Energy:         2794.34405148 Eh           76037.96734 eV

Virial components:
Potential Energy   :        -2580.10452664 Eh          -70208.21349 eV
Kinetic Energy     :         1288.94651383 Eh           35074.01777 eV
Virial Ratio       :            2.00171574


---------------
SCF CONVERGENCE
---------------

  Last Energy change         ...   -3.6243e-09  Tolerance :   1.0000e-08
  Last MAX-Density change    ...    6.6385e-06  Tolerance :   1.0000e-07
  Last RMS-Density change    ...    8.1285e-08  Tolerance :   5.0000e-09
  Last Orbital Gradient      ...    2.0437e-06  Tolerance :   1.0000e-05
  Last Orbital Rotation      ...    2.0523e-06  Tolerance :   1.0000e-05

             **** THE GBW FILE WAS UPDATED (aagtxgtx6060.gbw) ****
             **** DENSITY FILE WAS UPDATED (aagtxgtx6060.scfp.tmp) ****
             **** ENERGY FILE WAS UPDATED (aagtxgtx6060.en.tmp) ****
----------------
ORBITAL ENERGIES
----------------

  NO   OCC          E(Eh)            E(eV) 
   0   2.0000     -20.604895      -560.6877 
   1   2.0000     -20.593883      -560.3881 
   2   2.0000     -20.593880      -560.3880 
   3   2.0000     -20.584979      -560.1458 
   4   2.0000     -20.584978      -560.1457 
   5   2.0000     -20.577232      -559.9349 
   6   2.0000     -20.577222      -559.9347 
   7   2.0000     -20.571819      -559.7876 
   8   2.0000     -20.571810      -559.7874 
   9   2.0000     -20.558775      -559.4327 
  10   2.0000     -20.558771      -559.4326 
  11   2.0000     -11.366309      -309.2930 
  12   2.0000     -11.366292      -309.2925 
  13   2.0000     -11.308890      -307.7305 
  14   2.0000     -11.308884      -307.7304 
  15   2.0000     -11.302807      -307.5650 
  16   2.0000     -11.302800      -307.5648 
  17   2.0000     -11.302284      -307.5508 
  18   2.0000     -11.302283      -307.5508 
  19   2.0000     -11.301715      -307.5353 
  20   2.0000     -11.301714      -307.5353 
  21   2.0000     -11.283043      -307.0272 
  22   2.0000     -11.283042      -307.0272 
  23   2.0000      -1.465791       -39.8862 
  24   2.0000      -1.420874       -38.6640 
  25   2.0000      -1.398290       -38.0494 
  26   2.0000      -1.397273       -38.0217 
  27   2.0000      -1.388103       -37.7722 
  28   2.0000      -1.383233       -37.6397 
  29   2.0000      -1.368502       -37.2388 
  30   2.0000      -1.363900       -37.1136 
  31   2.0000      -1.363886       -37.1132 
  32   2.0000      -1.358854       -36.9763 
  33   2.0000      -1.352464       -36.8024 
  34   2.0000      -1.077019       -29.3072 
  35   2.0000      -1.076344       -29.2888 
  36   2.0000      -1.071572       -29.1590 
  37   2.0000      -1.042329       -28.3632 
  38   2.0000      -0.960073       -26.1249 
  39   2.0000      -0.938946       -25.5500 
  40   2.0000      -0.896592       -24.3975 
  41   2.0000      -0.876786       -23.8586 
  42   2.0000      -0.857668       -23.3383 
  43   2.0000      -0.854928       -23.2638 
  44   2.0000      -0.826720       -22.4962 
  45   2.0000      -0.792217       -21.5573 
  46   2.0000      -0.756494       -20.5852 
  47   2.0000      -0.756424       -20.5833 
  48   2.0000      -0.739004       -20.1093 
  49   2.0000      -0.735663       -20.0184 
  50   2.0000      -0.724284       -19.7088 
  51   2.0000      -0.711913       -19.3721 
  52   2.0000      -0.711500       -19.3609 
  53   2.0000      -0.695050       -18.9133 
  54   2.0000      -0.682643       -18.5757 
  55   2.0000      -0.671868       -18.2825 
  56   2.0000      -0.671607       -18.2754 
  57   2.0000      -0.663601       -18.0575 
  58   2.0000      -0.660443       -17.9716 
  59   2.0000      -0.636718       -17.3260 
  60   2.0000      -0.636506       -17.3202 
  61   2.0000      -0.629470       -17.1288 
  62   2.0000      -0.626984       -17.0611 
  63   2.0000      -0.625788       -17.0286 
  64   2.0000      -0.605140       -16.4667 
  65   2.0000      -0.600519       -16.3410 
  66   2.0000      -0.593685       -16.1550 
  67   2.0000      -0.586439       -15.9578 
  68   2.0000      -0.582319       -15.8457 
  69   2.0000      -0.576892       -15.6980 
  70   2.0000      -0.561467       -15.2783 
  71   2.0000      -0.561413       -15.2768 
  72   2.0000      -0.550237       -14.9727 
  73   2.0000      -0.550145       -14.9702 
  74   2.0000      -0.545829       -14.8528 
  75   2.0000      -0.540109       -14.6971 
  76   2.0000      -0.519471       -14.1355 
  77   2.0000      -0.517144       -14.0722 
  78   2.0000      -0.512053       -13.9337 
  79   2.0000      -0.500542       -13.6204 
  80   2.0000      -0.500186       -13.6108 
  81   2.0000      -0.492878       -13.4119 
  82   2.0000      -0.487581       -13.2678 
  83   2.0000      -0.468203       -12.7404 
  84   2.0000      -0.465614       -12.6700 
  85   2.0000      -0.460367       -12.5272 
  86   2.0000      -0.458542       -12.4776 
  87   2.0000      -0.444769       -12.1028 
  88   2.0000      -0.442847       -12.0505 
  89   2.0000      -0.438166       -11.9231 
  90   2.0000      -0.435339       -11.8462 
  91   0.0000       0.111903         3.0450 
  92   0.0000       0.134521         3.6605 
  93   0.0000       0.137283         3.7357 
  94   0.0000       0.147316         4.0087 
  95   0.0000       0.150212         4.0875 
  96   0.0000       0.153387         4.1739 
  97   0.0000       0.160001         4.3538 
  98   0.0000       0.171705         4.6723 
  99   0.0000       0.172972         4.7068 
 100   0.0000       0.178742         4.8638 
 101   0.0000       0.187437         5.1004 
 102   0.0000       0.197147         5.3646 
 103   0.0000       0.199921         5.4401 
 104   0.0000       0.206734         5.6255 
 105   0.0000       0.216105         5.8805 
 106   0.0000       0.219825         5.9818 
 107   0.0000       0.236254         6.4288 
 108   0.0000       0.248719         6.7680 
 109   0.0000       0.249084         6.7779 
 110   0.0000       0.261962         7.1284 
 111   0.0000       0.264255         7.1907 
 112   0.0000       0.271763         7.3950 
 113   0.0000       0.276733         7.5303 
 114   0.0000       0.281258         7.6534 
 115   0.0000       0.289579         7.8798 
 116   0.0000       0.313283         8.5249 
 117   0.0000       0.321821         8.7572 
 118   0.0000       0.326821         8.8933 
 119   0.0000       0.328025         8.9260 
 120   0.0000       0.329910         8.9773 
 121   0.0000       0.343513         9.3475 
 122   0.0000       0.349068         9.4986 
 123   0.0000       0.350626         9.5410 
 124   0.0000       0.364443         9.9170 
 125   0.0000       0.366068         9.9612 
 126   0.0000       0.380348        10.3498 
 127   0.0000       0.387490        10.5441 
 128   0.0000       0.399295        10.8654 
 129   0.0000       0.400510        10.8984 
 130   0.0000       0.422072        11.4852 
 131   0.0000       0.422241        11.4898 
 132   0.0000       0.441184        12.0052 
 133   0.0000       0.445182        12.1140 
 134   0.0000       0.447134        12.1671 
 135   0.0000       0.452625        12.3166 
 136   0.0000       0.462552        12.5867 
 137   0.0000       0.466503        12.6942 
 138   0.0000       0.473256        12.8780 
 139   0.0000       0.484028        13.1711 
 140   0.0000       0.491924        13.3859 
 141   0.0000       0.498729        13.5711 
 142   0.0000       0.499039        13.5795 
 143   0.0000       0.500036        13.6067 
 144   0.0000       0.506417        13.7803 
 145   0.0000       0.511293        13.9130 
 146   0.0000       0.519092        14.1252 
 147   0.0000       0.527064        14.3421 
 148   0.0000       0.531829        14.4718 
 149   0.0000       0.535012        14.5584 
 150   0.0000       0.538858        14.6631 
 151   0.0000       0.541063        14.7231 
 152   0.0000       0.553256        15.0549 
 153   0.0000       0.554326        15.0840 
 154   0.0000       0.562238        15.2993 
 155   0.0000       0.565379        15.3847 
 156   0.0000       0.568403        15.4670 
 157   0.0000       0.569563        15.4986 
 158   0.0000       0.570801        15.5323 
 159   0.0000       0.575170        15.6512 
 160   0.0000       0.578254        15.7351 
 161   0.0000       0.583889        15.8884 
 162   0.0000       0.583918        15.8892 
 163   0.0000       0.593578        16.1521 
 164   0.0000       0.594360        16.1733 
 165   0.0000       0.601333        16.3631 
 166   0.0000       0.606222        16.4961 
 167   0.0000       0.607501        16.5310 
 168   0.0000       0.612055        16.6549 
 169   0.0000       0.614821        16.7301 
 170   0.0000       0.615929        16.7603 
 171   0.0000       0.624447        16.9921 
 172   0.0000       0.630380        17.1535 
 173   0.0000       0.630509        17.1570 
 174   0.0000       0.635334        17.2883 
 175   0.0000       0.636777        17.3276 
 176   0.0000       0.642731        17.4896 
 177   0.0000       0.644253        17.5310 
 178   0.0000       0.646022        17.5791 
 179   0.0000       0.646778        17.5997 
 180   0.0000       0.661808        18.0087 
 181   0.0000       0.662143        18.0178 
 182   0.0000       0.669871        18.2281 
 183   0.0000       0.670388        18.2422 
 184   0.0000       0.681479        18.5440 
 185   0.0000       0.684818        18.6348 
 186   0.0000       0.692798        18.8520 
 187   0.0000       0.696093        18.9416 
 188   0.0000       0.710917        19.3450 
 189   0.0000       0.713248        19.4085 
 190   0.0000       0.714309        19.4373 
 191   0.0000       0.716817        19.5056 
 192   0.0000       0.730168        19.8689 
 193   0.0000       0.744860        20.2687 
 194   0.0000       0.746458        20.3121 
 195   0.0000       0.756501        20.5854 
 196   0.0000       0.759720        20.6730 
 197   0.0000       0.760681        20.6992 
 198   0.0000       0.778122        21.1738 
 199   0.0000       0.789637        21.4871 
 200   0.0000       0.794006        21.6060 
 201   0.0000       0.801613        21.8130 
 202   0.0000       0.807805        21.9815 
 203   0.0000       0.813572        22.1384 
 204   0.0000       0.821572        22.3561 
 205   0.0000       0.825363        22.4593 
 206   0.0000       0.830864        22.6090 
 207   0.0000       0.837266        22.7832 
 208   0.0000       0.841658        22.9027 
 209   0.0000       0.849569        23.1179 
 210   0.0000       0.859948        23.4004 
 211   0.0000       0.870473        23.6868 
 212   0.0000       0.871724        23.7208 
 213   0.0000       0.877360        23.8742 
 214   0.0000       0.879722        23.9384 
 215   0.0000       0.887010        24.1368 
 216   0.0000       0.897409        24.4198 
 217   0.0000       0.899826        24.4855 
 218   0.0000       0.902446        24.5568 
 219   0.0000       0.911808        24.8116 
 220   0.0000       0.929705        25.2986 
 221   0.0000       0.934258        25.4225 
 222   0.0000       0.942444        25.6452 
 223   0.0000       0.945709        25.7340 
 224   0.0000       0.952534        25.9198 
 225   0.0000       0.953783        25.9538 
 226   0.0000       0.958147        26.0725 
 227   0.0000       0.961241        26.1567 
 228   0.0000       0.965232        26.2653 
 229   0.0000       0.973431        26.4884 
 230   0.0000       0.975690        26.5499 
 231   0.0000       0.981665        26.7125 
 232   0.0000       0.990556        26.9544 
 233   0.0000       1.001088        27.2410 
 234   0.0000       1.006018        27.3751 
 235   0.0000       1.007572        27.4174 
 236   0.0000       1.009926        27.4815 
 237   0.0000       1.021069        27.7847 
 238   0.0000       1.023086        27.8396 
 239   0.0000       1.043835        28.4042 
 240   0.0000       1.044926        28.4339 
 241   0.0000       1.046837        28.4859 
 242   0.0000       1.057323        28.7712 
 243   0.0000       1.058163        28.7941 
 244   0.0000       1.072168        29.1752 
 245   0.0000       1.078284        29.3416 
 246   0.0000       1.086042        29.5527 
 247   0.0000       1.089034        29.6341 
 248   0.0000       1.096664        29.8417 
 249   0.0000       1.106168        30.1004 
 250   0.0000       1.110333        30.2137 
 251   0.0000       1.117992        30.4221 
 252   0.0000       1.125201        30.6183 
 253   0.0000       1.142079        31.0775 
 254   0.0000       1.143838        31.1254 
 255   0.0000       1.148024        31.2393 
 256   0.0000       1.172435        31.9036 
 257   0.0000       1.179915        32.1071 
 258   0.0000       1.181362        32.1465 
 259   0.0000       1.181562        32.1519 
 260   0.0000       1.198462        32.6118 
 261   0.0000       1.201333        32.6899 
 262   0.0000       1.209394        32.9093 
 263   0.0000       1.210767        32.9467 
 264   0.0000       1.217453        33.1286 
 265   0.0000       1.222955        33.2783 
 266   0.0000       1.233829        33.5742 
 267   0.0000       1.236843        33.6562 
 268   0.0000       1.245722        33.8978 
 269   0.0000       1.247747        33.9529 
 270   0.0000       1.250170        34.0188 
 271   0.0000       1.264833        34.4179 
 272   0.0000       1.272248        34.6196 
 273   0.0000       1.274465        34.6799 
 274   0.0000       1.277787        34.7703 
 275   0.0000       1.281655        34.8756 
 276   0.0000       1.293309        35.1927 
 277   0.0000       1.294224        35.2176 
 278   0.0000       1.301317        35.4106 
 279   0.0000       1.310677        35.6653 
 280   0.0000       1.315260        35.7900 
 281   0.0000       1.322724        35.9932 
 282   0.0000       1.325151        36.0592 
 283   0.0000       1.332900        36.2700 
 284   0.0000       1.335399        36.3380 
 285   0.0000       1.353111        36.8200 
 286   0.0000       1.354104        36.8471 
 287   0.0000       1.363814        37.1113 
 288   0.0000       1.369825        37.2748 
 289   0.0000       1.375446        37.4278 
 290   0.0000       1.379744        37.5448 
 291   0.0000       1.383397        37.6442 
 292   0.0000       1.389749        37.8170 
 293   0.0000       1.392413        37.8895 
 294   0.0000       1.396291        37.9950 
 295   0.0000       1.406920        38.2842 
 296   0.0000       1.409399        38.3517 
 297   0.0000       1.428049        38.8592 
 298   0.0000       1.432099        38.9694 
 299   0.0000       1.432508        38.9805 
 300   0.0000       1.444761        39.3139 
 301   0.0000       1.454959        39.5915 
 302   0.0000       1.458223        39.6803 
 303   0.0000       1.462046        39.7843 
 304   0.0000       1.466771        39.9129 
 305   0.0000       1.479860        40.2690 
 306   0.0000       1.484626        40.3987 
 307   0.0000       1.490752        40.5654 
 308   0.0000       1.491028        40.5729 
 309   0.0000       1.495209        40.6867 
 310   0.0000       1.498012        40.7630 
 311   0.0000       1.506841        41.0032 
 312   0.0000       1.511869        41.1400 
 313   0.0000       1.517053        41.2811 
 314   0.0000       1.517255        41.2866 
 315   0.0000       1.525478        41.5104 
 316   0.0000       1.527387        41.5623 
 317   0.0000       1.530747        41.6537 
 318   0.0000       1.545572        42.0571 
 319   0.0000       1.545741        42.0618 
 320   0.0000       1.551838        42.2277 
 321   0.0000       1.553389        42.2699 
 322   0.0000       1.564754        42.5791 
 323   0.0000       1.568882        42.6915 
 324   0.0000       1.570993        42.7489 
 325   0.0000       1.572233        42.7826 
 326   0.0000       1.581347        43.0306 
 327   0.0000       1.588919        43.2367 
 328   0.0000       1.593302        43.3559 
 329   0.0000       1.605312        43.6828 
 330   0.0000       1.614062        43.9209 
 331   0.0000       1.620948        44.1082 
 332   0.0000       1.622256        44.1438 
 333   0.0000       1.633008        44.4364 
 334   0.0000       1.648407        44.8554 
 335   0.0000       1.652989        44.9801 
 336   0.0000       1.654217        45.0135 
 337   0.0000       1.661872        45.2218 
 338   0.0000       1.665676        45.3253 
 339   0.0000       1.681897        45.7667 
 340   0.0000       1.690419        45.9986 
 341   0.0000       1.694807        46.1181 
 342   0.0000       1.704045        46.3694 
 343   0.0000       1.709374        46.5144 
 344   0.0000       1.711348        46.5682 
 345   0.0000       1.720868        46.8272 
 346   0.0000       1.730519        47.0898 
 347   0.0000       1.734799        47.2063 
 348   0.0000       1.754951        47.7546 
 349   0.0000       1.772910        48.2433 
 350   0.0000       1.790786        48.7298 
 351   0.0000       1.792863        48.7863 
 352   0.0000       1.804719        49.1089 
 353   0.0000       1.813193        49.3395 
 354   0.0000       1.816723        49.4355 
 355   0.0000       1.821069        49.5538 
 356   0.0000       1.844538        50.1924 
 357   0.0000       1.857724        50.5512 
 358   0.0000       1.859467        50.5987 
 359   0.0000       1.873595        50.9831 
 360   0.0000       1.884320        51.2750 
 361   0.0000       1.907201        51.8976 
 362   0.0000       1.917136        52.1679 
 363   0.0000       1.932460        52.5849 
 364   0.0000       1.939530        52.7773 
 365   0.0000       1.951281        53.0971 
 366   0.0000       1.959734        53.3271 
 367   0.0000       1.988741        54.1164 
 368   0.0000       1.991842        54.2008 
 369   0.0000       2.007692        54.6321 
 370   0.0000       2.009689        54.6864 
 371   0.0000       2.024036        55.0768 
 372   0.0000       2.057521        55.9880 
 373   0.0000       2.058890        56.0252 
 374   0.0000       2.088608        56.8339 
 375   0.0000       2.114587        57.5408 
 376   0.0000       2.129614        57.9497 
 377   0.0000       2.131412        57.9987 
 378   0.0000       2.133513        58.0558 
 379   0.0000       2.159753        58.7699 
 380   0.0000       2.161220        58.8098 
 381   0.0000       2.177503        59.2529 
 382   0.0000       2.181322        59.3568 
 383   0.0000       2.188254        59.5454 
 384   0.0000       2.209366        60.1199 
 385   0.0000       2.212576        60.2073 
 386   0.0000       2.214057        60.2476 
 387   0.0000       2.231377        60.7188 
 388   0.0000       2.238734        60.9191 
 389   0.0000       2.241659        60.9986 
 390   0.0000       2.256152        61.3930 
 391   0.0000       2.258862        61.4668 
 392   0.0000       2.264161        61.6110 
 393   0.0000       2.274692        61.8975 
 394   0.0000       2.285456        62.1904 
 395   0.0000       2.290031        62.3149 
 396   0.0000       2.293955        62.4217 
 397   0.0000       2.308593        62.8200 
 398   0.0000       2.319621        63.1201 
 399   0.0000       2.325282        63.2741 
 400   0.0000       2.334684        63.5300 
 401   0.0000       2.341753        63.7223 
 402   0.0000       2.347321        63.8738 
 403   0.0000       2.351415        63.9853 
 404   0.0000       2.364308        64.3361 
 405   0.0000       2.385603        64.9156 
 406   0.0000       2.395636        65.1886 
 407   0.0000       2.399009        65.2803 
 408   0.0000       2.400630        65.3245 
 409   0.0000       2.407771        65.5188 
 410   0.0000       2.409833        65.5749 
 411   0.0000       2.411273        65.6141 
 412   0.0000       2.425017        65.9881 
 413   0.0000       2.430119        66.1269 
 414   0.0000       2.438934        66.3668 
 415   0.0000       2.444744        66.5249 
 416   0.0000       2.446264        66.5662 
 417   0.0000       2.462366        67.0044 
 418   0.0000       2.474113        67.3241 
 419   0.0000       2.480515        67.4983 
 420   0.0000       2.484538        67.6077 
 421   0.0000       2.497912        67.9716 
 422   0.0000       2.519360        68.5553 
 423   0.0000       2.520796        68.5943 
 424   0.0000       2.545284        69.2607 
 425   0.0000       2.561933        69.7137 
 426   0.0000       2.569799        69.9278 
 427   0.0000       2.577781        70.1450 
 428   0.0000       2.581757        70.2532 
 429   0.0000       2.605461        70.8982 
 430   0.0000       2.623855        71.3987 
 431   0.0000       2.630683        71.5845 
 432   0.0000       2.695464        73.3473 
 433   0.0000       2.713520        73.8386 
 434   0.0000       2.717723        73.9530 
 435   0.0000       2.728256        74.2396 
 436   0.0000       2.750825        74.8538 
 437   0.0000       2.755789        74.9888 
 438   0.0000       2.770079        75.3777 
 439   0.0000       2.772564        75.4453 
 440   0.0000       2.794233        76.0349 
 441   0.0000       2.803215        76.2794 
 442   0.0000       2.824067        76.8468 
 443   0.0000       2.830926        77.0334 
 444   0.0000       2.836985        77.1983 
 445   0.0000       2.849929        77.5505 
 446   0.0000       2.856494        77.7291 
 447   0.0000       2.861062        77.8535 
 448   0.0000       2.875235        78.2391 
 449   0.0000       2.881681        78.4145 
 450   0.0000       2.886078        78.5342 
 451   0.0000       2.889960        78.6398 
 452   0.0000       2.904364        79.0318 
 453   0.0000       2.905961        79.0752 
 454   0.0000       2.908415        79.1420 
 455   0.0000       2.914393        79.3047 
 456   0.0000       2.929374        79.7123 
 457   0.0000       2.931282        79.7642 
 458   0.0000       2.953228        80.3614 
 459   0.0000       2.953291        80.3631 
 460   0.0000       2.963041        80.6285 
 461   0.0000       2.967966        80.7625 
 462   0.0000       2.969591        80.8067 
 463   0.0000       2.987889        81.3046 
 464   0.0000       2.999293        81.6149 
 465   0.0000       3.002615        81.7053 
 466   0.0000       3.019338        82.1604 
 467   0.0000       3.020746        82.1987 
 468   0.0000       3.029173        82.4280 
 469   0.0000       3.036911        82.6385 
 470   0.0000       3.038843        82.6911 
 471   0.0000       3.056934        83.1834 
 472   0.0000       3.057814        83.2073 
 473   0.0000       3.064885        83.3998 
 474   0.0000       3.087097        84.0042 
 475   0.0000       3.090813        84.1053 
 476   0.0000       3.092433        84.1494 
 477   0.0000       3.103554        84.4520 
 478   0.0000       3.106941        84.5442 
 479   0.0000       3.116390        84.8013 
 480   0.0000       3.120718        84.9190 
 481   0.0000       3.129324        85.1532 
 482   0.0000       3.135334        85.3168 
 483   0.0000       3.151473        85.7559 
 484   0.0000       3.163320        86.0783 
 485   0.0000       3.167897        86.2029 
 486   0.0000       3.172976        86.3411 
 487   0.0000       3.180765        86.5530 
 488   0.0000       3.181914        86.5843 
 489   0.0000       3.186766        86.7163 
 490   0.0000       3.195583        86.9562 
 491   0.0000       3.206333        87.2488 
 492   0.0000       3.211094        87.3783 
 493   0.0000       3.215121        87.4879 
 494   0.0000       3.229942        87.8912 
 495   0.0000       3.232326        87.9561 
 496   0.0000       3.236597        88.0723 
 497   0.0000       3.244309        88.2821 
 498   0.0000       3.252096        88.4940 
 499   0.0000       3.259634        88.6992 
 500   0.0000       3.264162        88.8224 
 501   0.0000       3.265545        88.8600 
 502   0.0000       3.277083        89.1740 
 503   0.0000       3.286261        89.4237 
 504   0.0000       3.287545        89.4586 
 505   0.0000       3.289124        89.5016 
 506   0.0000       3.295184        89.6665 
 507   0.0000       3.305256        89.9406 
 508   0.0000       3.305615        89.9504 
 509   0.0000       3.314067        90.1804 
 510   0.0000       3.314885        90.2026 
 511   0.0000       3.332106        90.6712 
 512   0.0000       3.339070        90.8607 
 513   0.0000       3.341090        90.9157 
 514   0.0000       3.344510        91.0087 
 515   0.0000       3.362610        91.5013 
 516   0.0000       3.363600        91.5282 
 517   0.0000       3.378480        91.9331 
 518   0.0000       3.381368        92.0117 
 519   0.0000       3.388887        92.2163 
 520   0.0000       3.390471        92.2594 
 521   0.0000       3.395392        92.3933 
 522   0.0000       3.397730        92.4569 
 523   0.0000       3.403242        92.6069 
 524   0.0000       3.405025        92.6554 
 525   0.0000       3.409518        92.7777 
 526   0.0000       3.419365        93.0457 
 527   0.0000       3.422078        93.1195 
 528   0.0000       3.431805        93.3842 
 529   0.0000       3.440886        93.6313 
 530   0.0000       3.446957        93.7965 
 531   0.0000       3.449162        93.8565 
 532   0.0000       3.452245        93.9404 
 533   0.0000       3.462157        94.2101 
 534   0.0000       3.464512        94.2742 
 535   0.0000       3.474244        94.5390 
 536   0.0000       3.486496        94.8724 
 537   0.0000       3.489404        94.9515 
 538   0.0000       3.494662        95.0946 
 539   0.0000       3.495320        95.1125 
 540   0.0000       3.501989        95.2940 
 541   0.0000       3.509768        95.5056 
 542   0.0000       3.512337        95.5755 
 543   0.0000       3.528729        96.0216 
 544   0.0000       3.531006        96.0836 
 545   0.0000       3.533789        96.1593 
 546   0.0000       3.540959        96.3544 
 547   0.0000       3.546828        96.5141 
 548   0.0000       3.557502        96.8046 
 549   0.0000       3.568190        97.0954 
 550   0.0000       3.571872        97.1956 
 551   0.0000       3.582351        97.4807 
 552   0.0000       3.586335        97.5891 
 553   0.0000       3.589892        97.6859 
 554   0.0000       3.594359        97.8075 
 555   0.0000       3.597586        97.8953 
 556   0.0000       3.606117        98.1274 
 557   0.0000       3.609821        98.2282 
 558   0.0000       3.626050        98.6698 
 559   0.0000       3.628863        98.7464 
 560   0.0000       3.636623        98.9575 
 561   0.0000       3.645874        99.2093 
 562   0.0000       3.652031        99.3768 
 563   0.0000       3.658576        99.5549 
 564   0.0000       3.666870        99.7806 
 565   0.0000       3.668196        99.8167 
 566   0.0000       3.681659       100.1830 
 567   0.0000       3.686592       100.3173 
 568   0.0000       3.690849       100.4331 
 569   0.0000       3.708497       100.9133 
 570   0.0000       3.709156       100.9313 
 571   0.0000       3.717702       101.1638 
 572   0.0000       3.737551       101.7039 
 573   0.0000       3.738032       101.7170 
 574   0.0000       3.741381       101.8081 
 575   0.0000       3.750158       102.0470 
 576   0.0000       3.753312       102.1328 
 577   0.0000       3.772025       102.6420 
 578   0.0000       3.773557       102.6837 
 579   0.0000       3.775587       102.7390 
 580   0.0000       3.778710       102.8239 
 581   0.0000       3.787154       103.0537 
 582   0.0000       3.789513       103.1179 
 583   0.0000       3.801250       103.4373 
 584   0.0000       3.806327       103.5754 
 585   0.0000       3.811871       103.7263 
 586   0.0000       3.820185       103.9525 
 587   0.0000       3.820873       103.9712 
 588   0.0000       3.822851       104.0251 
 589   0.0000       3.825893       104.1078 
 590   0.0000       3.841811       104.5410 
 591   0.0000       3.843108       104.5763 
 592   0.0000       3.849741       104.7568 
 593   0.0000       3.850632       104.7810 
 594   0.0000       3.854694       104.8916 
 595   0.0000       3.872209       105.3682 
 596   0.0000       3.878251       105.5326 
 597   0.0000       3.879399       105.5638 
 598   0.0000       3.885695       105.7351 
 599   0.0000       3.889317       105.8337 
 600   0.0000       3.891238       105.8860 
 601   0.0000       3.903635       106.2233 
 602   0.0000       3.903984       106.2328 
 603   0.0000       3.911690       106.4425 
 604   0.0000       3.924183       106.7825 
 605   0.0000       3.931508       106.9818 
 606   0.0000       3.950361       107.4948 
 607   0.0000       3.952029       107.5402 
 608   0.0000       3.958079       107.7048 
 609   0.0000       3.964296       107.8740 
 610   0.0000       3.973347       108.1203 
 611   0.0000       3.973497       108.1243 
 612   0.0000       3.984488       108.4234 
 613   0.0000       3.984794       108.4318 
 614   0.0000       3.989842       108.5691 
 615   0.0000       3.997472       108.7768 
 616   0.0000       4.010378       109.1279 
 617   0.0000       4.012329       109.1810 
 618   0.0000       4.016836       109.3037 
 619   0.0000       4.019564       109.3779 
 620   0.0000       4.027943       109.6059 
 621   0.0000       4.039309       109.9152 
 622   0.0000       4.040014       109.9344 
 623   0.0000       4.046736       110.1173 
 624   0.0000       4.062194       110.5379 
 625   0.0000       4.065686       110.6329 
 626   0.0000       4.072650       110.8224 
 627   0.0000       4.083919       111.1291 
 628   0.0000       4.092538       111.3636 
 629   0.0000       4.093686       111.3949 
 630   0.0000       4.096931       111.4832 
 631   0.0000       4.109038       111.8126 
 632   0.0000       4.111707       111.8852 
 633   0.0000       4.128797       112.3503 
 634   0.0000       4.140361       112.6650 
 635   0.0000       4.140857       112.6784 
 636   0.0000       4.146981       112.8451 
 637   0.0000       4.149580       112.9158 
 638   0.0000       4.150774       112.9483 
 639   0.0000       4.155082       113.0655 
 640   0.0000       4.167880       113.4138 
 641   0.0000       4.168170       113.4217 
 642   0.0000       4.170957       113.4975 
 643   0.0000       4.173124       113.5565 
 644   0.0000       4.184014       113.8528 
 645   0.0000       4.186783       113.9282 
 646   0.0000       4.191832       114.0656 
 647   0.0000       4.191909       114.0676 
 648   0.0000       4.197092       114.2087 
 649   0.0000       4.208593       114.5216 
 650   0.0000       4.211566       114.6025 
 651   0.0000       4.225774       114.9891 
 652   0.0000       4.232938       115.1841 
 653   0.0000       4.240139       115.3800 
 654   0.0000       4.247097       115.5694 
 655   0.0000       4.247707       115.5860 
 656   0.0000       4.253654       115.7478 
 657   0.0000       4.254032       115.7581 
 658   0.0000       4.265814       116.0787 
 659   0.0000       4.270639       116.2100 
 660   0.0000       4.280362       116.4746 
 661   0.0000       4.280741       116.4849 
 662   0.0000       4.284458       116.5860 
 663   0.0000       4.287414       116.6665 
 664   0.0000       4.291526       116.7784 
 665   0.0000       4.293541       116.8332 
 666   0.0000       4.306420       117.1836 
 667   0.0000       4.311922       117.3334 
 668   0.0000       4.318600       117.5151 
 669   0.0000       4.323102       117.6376 
 670   0.0000       4.326671       117.7347 
 671   0.0000       4.333199       117.9123 
 672   0.0000       4.346947       118.2864 
 673   0.0000       4.348889       118.3393 
 674   0.0000       4.358952       118.6131 
 675   0.0000       4.367214       118.8379 
 676   0.0000       4.369651       118.9043 
 677   0.0000       4.379661       119.1766 
 678   0.0000       4.387776       119.3975 
 679   0.0000       4.405615       119.8829 
 680   0.0000       4.417712       120.2120 
 681   0.0000       4.427754       120.4853 
 682   0.0000       4.430121       120.5497 
 683   0.0000       4.440473       120.8314 
 684   0.0000       4.440982       120.8453 
 685   0.0000       4.452554       121.1602 
 686   0.0000       4.452788       121.1665 
 687   0.0000       4.466984       121.5528 
 688   0.0000       4.470673       121.6532 
 689   0.0000       4.472781       121.7106 
 690   0.0000       4.477521       121.8395 
 691   0.0000       4.488444       122.1368 
 692   0.0000       4.491768       122.2272 
 693   0.0000       4.495238       122.3217 
 694   0.0000       4.507812       122.6638 
 695   0.0000       4.515268       122.8667 
 696   0.0000       4.520966       123.0217 
 697   0.0000       4.527679       123.2044 
 698   0.0000       4.540117       123.5429 
 699   0.0000       4.545442       123.6878 
 700   0.0000       4.553786       123.9148 
 701   0.0000       4.556673       123.9934 
 702   0.0000       4.558300       124.0376 
 703   0.0000       4.562435       124.1502 
 704   0.0000       4.567317       124.2830 
 705   0.0000       4.571099       124.3859 
 706   0.0000       4.585978       124.7908 
 707   0.0000       4.586796       124.8131 
 708   0.0000       4.601861       125.2230 
 709   0.0000       4.604515       125.2952 
 710   0.0000       4.609773       125.4383 
 711   0.0000       4.614835       125.5760 
 712   0.0000       4.624036       125.8264 
 713   0.0000       4.624705       125.8446 
 714   0.0000       4.634770       126.1185 
 715   0.0000       4.636424       126.1635 
 716   0.0000       4.648737       126.4986 
 717   0.0000       4.664540       126.9286 
 718   0.0000       4.674709       127.2053 
 719   0.0000       4.683401       127.4418 
 720   0.0000       4.690262       127.6285 
 721   0.0000       4.690862       127.6448 
 722   0.0000       4.706607       128.0733 
 723   0.0000       4.719491       128.4239 
 724   0.0000       4.730881       128.7338 
 725   0.0000       4.737000       128.9003 
 726   0.0000       4.737098       128.9030 
 727   0.0000       4.743925       129.0888 
 728   0.0000       4.749050       129.2282 
 729   0.0000       4.761943       129.5791 
 730   0.0000       4.776588       129.9776 
 731   0.0000       4.777868       130.0124 
 732   0.0000       4.786732       130.2536 
 733   0.0000       4.794539       130.4660 
 734   0.0000       4.806042       130.7790 
 735   0.0000       4.808843       130.8553 
 736   0.0000       4.812352       130.9507 
 737   0.0000       4.825485       131.3081 
 738   0.0000       4.848194       131.9261 
 739   0.0000       4.852146       132.0336 
 740   0.0000       4.853851       132.0800 
 741   0.0000       4.870386       132.5299 
 742   0.0000       4.887008       132.9823 
 743   0.0000       4.906492       133.5124 
 744   0.0000       4.918629       133.8427 
 745   0.0000       4.930592       134.1682 
 746   0.0000       4.937005       134.3427 
 747   0.0000       4.942281       134.4863 
 748   0.0000       4.960024       134.9691 
 749   0.0000       4.967950       135.1848 
 750   0.0000       4.990589       135.8008 
 751   0.0000       5.002573       136.1269 
 752   0.0000       5.006461       136.2327 
 753   0.0000       5.010095       136.3316 
 754   0.0000       5.019728       136.5937 
 755   0.0000       5.029875       136.8699 
 756   0.0000       5.035078       137.0114 
 757   0.0000       5.043070       137.2289 
 758   0.0000       5.051485       137.4579 
 759   0.0000       5.071877       138.0128 
 760   0.0000       5.076916       138.1499 
 761   0.0000       5.080162       138.2382 
 762   0.0000       5.087179       138.4292 
 763   0.0000       5.096301       138.6774 
 764   0.0000       5.096384       138.6797 
 765   0.0000       5.112493       139.1180 
 766   0.0000       5.130496       139.6079 
 767   0.0000       5.130946       139.6201 
 768   0.0000       5.143621       139.9650 
 769   0.0000       5.146436       140.0416 
 770   0.0000       5.151261       140.1729 
 771   0.0000       5.163063       140.4941 
 772   0.0000       5.169336       140.6648 
 773   0.0000       5.178523       140.9148 
 774   0.0000       5.178712       140.9199 
 775   0.0000       5.205628       141.6523 
 776   0.0000       5.216268       141.9419 
 777   0.0000       5.231657       142.3606 
 778   0.0000       5.256045       143.0243 
 779   0.0000       5.261270       143.1664 
 780   0.0000       5.273688       143.5044 
 781   0.0000       5.275315       143.5486 
 782   0.0000       5.287534       143.8811 
 783   0.0000       5.294313       144.0656 
 784   0.0000       5.301920       144.2726 
 785   0.0000       5.308726       144.4578 
 786   0.0000       5.326828       144.9504 
 787   0.0000       5.329075       145.0115 
 788   0.0000       5.342371       145.3733 
 789   0.0000       5.344929       145.4429 
 790   0.0000       5.354488       145.7030 
 791   0.0000       5.355413       145.7282 
 792   0.0000       5.359627       145.8429 
 793   0.0000       5.367382       146.0539 
 794   0.0000       5.371150       146.1564 
 795   0.0000       5.374825       146.2564 
 796   0.0000       5.395621       146.8223 
 797   0.0000       5.396656       146.8505 
 798   0.0000       5.425957       147.6478 
 799   0.0000       5.426947       147.6747 
 800   0.0000       5.432855       147.8355 
 801   0.0000       5.442344       148.0937 
 802   0.0000       5.450537       148.3166 
 803   0.0000       5.465649       148.7279 
 804   0.0000       5.477906       149.0614 
 805   0.0000       5.486267       149.2889 
 806   0.0000       5.515781       150.0920 
 807   0.0000       5.519010       150.1799 
 808   0.0000       5.536935       150.6677 
 809   0.0000       5.554332       151.1411 
 810   0.0000       5.596859       152.2983 
 811   0.0000       5.602135       152.4419 
 812   0.0000       5.636253       153.3702 
 813   0.0000       5.636372       153.3735 
 814   0.0000       5.651652       153.7893 
 815   0.0000       5.661077       154.0457 
 816   0.0000       5.673317       154.3788 
 817   0.0000       5.711457       155.4167 
 818   0.0000       5.711813       155.4263 
 819   0.0000       5.720975       155.6756 
 820   0.0000       5.721943       155.7020 
 821   0.0000       5.758141       156.6870 
 822   0.0000       5.774950       157.1444 
 823   0.0000       5.779963       157.2808 
 824   0.0000       5.789131       157.5303 
 825   0.0000       5.792306       157.6166 
 826   0.0000       5.801382       157.8636 
 827   0.0000       5.807556       158.0316 
 828   0.0000       5.814697       158.2259 
 829   0.0000       5.829487       158.6284 
 830   0.0000       5.841257       158.9487 
 831   0.0000       5.870446       159.7430 
 832   0.0000       5.874588       159.8557 
 833   0.0000       5.911758       160.8671 
 834   0.0000       5.912237       160.8802 
 835   0.0000       5.946510       161.8128 
 836   0.0000       5.956430       162.0827 
 837   0.0000       5.957337       162.1074 
 838   0.0000       5.960412       162.1911 
 839   0.0000       5.970275       162.4594 
 840   0.0000       5.971191       162.4844 
 841   0.0000       5.972128       162.5099 
 842   0.0000       5.976943       162.6409 
 843   0.0000       5.981094       162.7538 
 844   0.0000       5.986984       162.9141 
 845   0.0000       6.002012       163.3231 
 846   0.0000       6.003976       163.3765 
 847   0.0000       6.021212       163.8455 
 848   0.0000       6.021442       163.8518 
 849   0.0000       6.091676       165.7629 
 850   0.0000       6.100927       166.0147 
 851   0.0000       6.124920       166.6675 
 852   0.0000       6.125170       166.6743 
 853   0.0000       6.128395       166.7621 
 854   0.0000       6.134761       166.9353 
 855   0.0000       6.151724       167.3969 
 856   0.0000       6.155054       167.4875 
 857   0.0000       6.163246       167.7105 
 858   0.0000       6.169978       167.8936 
 859   0.0000       6.172661       167.9666 
 860   0.0000       6.176813       168.0796 
 861   0.0000       6.191607       168.4822 
 862   0.0000       6.209157       168.9598 
 863   0.0000       6.217777       169.1943 
 864   0.0000       6.229905       169.5243 
 865   0.0000       6.287434       171.0898 
 866   0.0000       6.295822       171.3180 
 867   0.0000       6.306499       171.6086 
 868   0.0000       6.314833       171.8353 
 869   0.0000       6.336359       172.4211 
 870   0.0000       6.339969       172.5193 
 871   0.0000       6.353417       172.8853 
 872   0.0000       6.358894       173.0343 
 873   0.0000       6.405319       174.2976 
 874   0.0000       6.406563       174.3314 
 875   0.0000       6.439610       175.2307 
 876   0.0000       6.440362       175.2512 
 877   0.0000       6.515546       177.2970 
 878   0.0000       6.543593       178.0602 
 879   0.0000       6.627339       180.3391 
 880   0.0000       6.634994       180.5474 
 881   0.0000       6.643844       180.7882 
 882   0.0000       6.646392       180.8575 
 883   0.0000       6.656488       181.1322 
 884   0.0000       6.667472       181.4311 
 885   0.0000       6.685554       181.9232 
 886   0.0000       6.710008       182.5886 
 887   0.0000       6.717611       182.7955 
 888   0.0000       6.763153       184.0347 
 889   0.0000       6.765590       184.1011 
 890   0.0000       6.777591       184.4276 
 891   0.0000       6.782716       184.5671 
 892   0.0000       6.805394       185.1842 
 893   0.0000       6.884232       187.3295 
 894   0.0000       6.938642       188.8101 
 895   0.0000       6.963235       189.4793 
 896   0.0000       6.970262       189.6705 
 897   0.0000       6.973031       189.7458 
 898   0.0000       6.973183       189.7500 
 899   0.0000       6.978184       189.8860 
 900   0.0000       6.978461       189.8936 
 901   0.0000       6.983705       190.0363 
 902   0.0000       6.984531       190.0588 
 903   0.0000       6.985105       190.0744 
 904   0.0000       7.106889       193.3883 
 905   0.0000       7.111150       193.5042 
 906   0.0000       7.114269       193.5891 
 907   0.0000       7.116111       193.6392 
 908   0.0000       7.142854       194.3669 
 909   0.0000       7.148017       194.5074 
 910   0.0000       7.150883       194.5854 
 911   0.0000       7.155255       194.7044 
 912   0.0000       7.156666       194.7428 
 913   0.0000       7.158010       194.7794 
 914   0.0000       7.167819       195.0463 
 915   0.0000       7.170222       195.1117 
 916   0.0000       7.177246       195.3028 
 917   0.0000       7.177656       195.3140 
 918   0.0000       7.186902       195.5656 
 919   0.0000       7.190787       195.6713 
[...]
   MOs        -> AO shells       294.2
   PAOs       -> AO shells       344.9

Calculating integrals (6.1 sec, 1251.062 MB)
Sorting integrals (2.1 sec, 1251.034 MB)
Total time for the integral transformation: 8.4 sec
--------------------------------
INITIAL GUESS AND PNO GENERATION
--------------------------------

PNO truncation parameters                   .... 
    ScaleTCutPNO       =        1.000e-02
    PAOOverlapThresh   =        1.000e-08

    TCutPairs          =        1.000e-05
    TCutPNO            =        1.000e-07
    TCutPNOSingles     =        3.000e-09
    TCutMP2Pairs       =        1.000e-06
    TCutMKN            =        1.000e-03
    TCutDO             =        5.000e-03

Pair selection                          .... not used
Type of local MP2 treatment                 .... full local PMP2
Strategy for PNO selection                  .... occupation number selection
Pair density normalization                  .... MP2 norm
Spin component scaling                      .... not used

PASS-1: Formation of initial guess LMP2 amplitudes
Initial amplitudes guess done. Entering LMP2 iteration loop:
   Max. no of iterations          ...  50
   Energy convergence tolerance   ...    1.0e-07
   Residual convergence tolerance ...    5.0e-07
   Fock matrix cutoff             ...    1.0e-05 Eh
   DIIS convergence acceleration parameters:
        Max # vectors in DIIS     ... 7
        Start iteration of DIIS   ... 0
        Levelshift                ... 2.000e-01
        Damping factor 1          ... 5.000e-01
        Damping factor 2          ... 1.000e+00
   L-MP2 PNO cut-off              ...   1.0e-09
   L-MP2 PNO cut-off (core)       ...   1.0e-11
                           *** Turning on DIIS ***
LMP2-Iter=   0:  ELMP2= -4.571267319451  DE=   1.1e-01 RMAX=   6.8e-03
LMP2-Iter=   1:  ELMP2= -4.621190238588  DE=   5.0e-02 RMAX=   3.6e-03
LMP2-Iter=   2:  ELMP2= -4.629082784128  DE=   7.9e-03 RMAX=   6.3e-04
LMP2-Iter=   3:  ELMP2= -4.630030242747  DE=   9.5e-04 RMAX=   2.3e-04
LMP2-Iter=   4:  ELMP2= -4.630084614007  DE=   5.4e-05 RMAX=   2.5e-05
LMP2-Iter=   5:  ELMP2= -4.630079730045  DE=   4.9e-06 RMAX=   7.8e-06
LMP2-Iter=   6:  ELMP2= -4.630078708943  DE=   1.0e-06 RMAX=   1.3e-06
LMP2-Iter=   7:  ELMP2= -4.630078530339  DE=   1.8e-07 RMAX=   2.8e-07
LMP2-Iter=   8:  ELMP2= -4.630078553731  DE=   2.3e-08 RMAX=   5.0e-08 => CONVERGED
PASS-2: Formation of Pair natural orbitals
   .... Finished loop over pairs

 PNO Occupation Number Statistics: 
  | Av. % of trace(Dij) retained        ...  97.606567285118
  | sigma^2 in % of trace(Dij) retained ...   1.60e+01
  | Av. % of trace(Di) retained         ...  99.999700798276
  | sigma^2 in % of trace(Di) retained  ...   1.08e-08
 Distributions of % trace(Dij) recovered:
  |       >= 99.9  ...   240 ( 12.4 % of all pairs)
  |   [60.0, 70.0) ...     2 (  0.1 % of all pairs)
  |   [70.0, 80.0) ...    28 (  1.4 % of all pairs)
  |   [80.0, 90.0) ...    69 (  3.6 % of all pairs)
  |   [90.0, 99.0) ...   924 ( 47.7 % of all pairs)
  |   [99.0, 99.9) ...   673 ( 34.8 % of all pairs)
 Distributions of % trace(Di) recovered :
  |       >= 99.9  ...    68 (100.0 % of all I-pairs )

Making pair pair interaction lists          ... done

                       ===========================
                       1277 OF 1936 PAIRS ARE KEPT
                       ===========================

Total time spent in the initial guess                 ...   256.169 sec
L-MP2 correlation energy (all non-screened pairs)     ...      -4.630078553731 Eh
L-MP2 PNO error correction                            ...      -0.000191955736 Eh
                                                          --------------------
Initial total L-MP2 energy (non-screened pairs)       ...      -4.630270509467 Eh

Initial PNO correlation energy                        ...      -4.621953171780 Eh
sum of pair energies estimated for screened out pairs ...      -0.000190053245 Eh
sum of MP2 pair energies for pairs that were not kept ...      -0.003243023075 Eh
sum of PNO error estimates for the kept pairs         ...      -0.005607453011 Eh
                                                          --------------------
sum of all corrections                                         -0.009040529332
Initial total correlation energy                               -4.630993701112
Thresholds for map construction and integral transformation for fine MP2 and CCSD(T) calculation:
   TCutMKN   ...     1.0e-03
   TCutDO    ...     5.0e-03
   TCutPairs ...     1.0e-05
   TCutCMO   ...     1.0e-03
   TCutCPAO  ...     1.0e-03

Time for aux screen maps:            0.044
Time for maps after fine MP2:            0.206
-----------------------------
LOCAL RI TRANSFORMATION (IJV)
-----------------------------

Orbital window:      23 to 90
Basis functions:    998 (362 shells)
Aux. functions:    2523 (749 shells)

Processing maps (0.0 sec)
Average map sizes:
   Aux shells -> MOs(i)           58.9
   Aux shells -> MOs(j)           68.0
   MOs        -> AO shells       294.2

Calculating integrals (30.8 sec, 77.357 MB)
Sorting integrals (0.2 sec, 77.329 MB)
Total time for the integral transformation: 31.1 sec
--------------------------------
LOCAL RI TRANSFORMATION (VABPAO)
--------------------------------

Number of PAOs:     998
Basis functions:    998 (362 shells)
Aux. functions:    2523 (749 shells)

Processing maps (0.0 sec)
Average map sizes:
   Aux shells -> PAOs            994.4
   PAOs       -> AO shells       344.9

Calculating integrals (83.4 sec, 36896.714 MB)
Finished


-------------------------------------
Pair Pair Term precalculation with     
RI-(ij|mn) and (im|jn) transformation  
ON THE FLY                             
-------------------------------------

   IBatch   1 (of   5)              ... done (  223.506 sec)
   IBatch   2 (of   5)              ... done (  151.228 sec)
   IBatch   3 (of   5)              ... done (  178.023 sec)
   IBatch   4 (of   5)              ... done (  456.966 sec)
   IBatch   5 (of   5)              ... done (  201.076 sec)
Total EXT                           ...        1210.800 sec

---------------------
RI-PNO TRANSFORMATION
---------------------

Total Number of PNOs                   ... 36321
Average number of PNOs per pair        ...    28
Maximal number of PNOs per pair        ...    67
   #pairs with  1 -  5 PNOs   :    0
   #pairs with  6 - 10 PNOs   :  293
   #pairs with 11 - 15 PNOs   :  128
   #pairs with 16 - 20 PNOs   :  130
   #pairs with 21 - 25 PNOs   :  128
   #pairs with 26 - 30 PNOs   :  119
   #pairs with 31 - 35 PNOs   :   55
   #pairs with 36 - 40 PNOs   :   50
   #pairs with 41 - 45 PNOs   :   68
   #pairs with 46 - 50 PNOs   :   92
   #pairs with 51 - 55 PNOs   :   78
   #pairs with 56 - 60 PNOs   :   53
   #pairs with 61 - 65 PNOs   :   63
   #pairs with 66 - 70 PNOs   :   20

Generation of (ij|ab)[P] integrals            ... on
Generation of (ia|bc)[P],(ja|bc)[P] integrals ... on
Storage of 3 and 4 external integrals         ... on
Generation of ALL (ka|bc)[P] integrals        ... on
Keep RI integrals in memory                   ... off

Ibatch:  1 (of  1)
Starting 2-4 index PNO integral generation ... done

Timings:
Total PNO integral transformation time     ...       1188.580 sec
Size of the 3-external file                ...       543 MB
Size of the 4-external file                ...      3615 MB
Size of the IKJL file                      ...         1 MB
Size of the all 3-external file            ...     17744 MB
Size of the 1-external file                ...        54 MB

Making pair/pair overlap matrices          ... done (  455.227 sec)
Size of the pair overlap file              ... 6569 MB
Redoing the guess amplitudes               ... done (    9.741 sec)

-------------------------
FINAL STARTUP INFORMATION
-------------------------

E(0)                                       ...  -1291.158012816
E(L-MP2)                                   ...     -4.630270509
E(L-MP2) including corrections             ...     -4.630993701
Initial E(tot)                             ...  -1295.789006517
<T|T>                                      ...      1.088583607
Number of pairs included                   ... 1277
Total number of pairs                      ... 2346

------------------------------------------------
                  RHF COUPLED CLUSTER ITERATIONS
------------------------------------------------

Number of PNO amplitudes to be optimized   ...      1457701
Number of non-PNO amplitudes               ...   1050522773
Untruncated number of regular amplitudes   ...   1929934554

Iter       E(tot)           E(Corr)          Delta-E          Residual     Time
  0  -1295.623201496     -4.456148151      0.174122359      0.017991687  156.53
                           *** Turning on DIIS ***
  1  -1295.743437396     -4.576384051     -0.120235901      0.009330223  142.28
  2  -1295.846614137     -4.679560792     -0.103176740      0.002751812  141.58
  3  -1295.867076409     -4.700023064     -0.020462273      0.001422514  139.21
  4  -1295.872453041     -4.705399696     -0.005376632      0.000526661  136.19
  5  -1295.873465468     -4.706412123     -0.001012428      0.000271766  133.50
  6  -1295.873671253     -4.706617908     -0.000205784      0.000094983  131.12
  7  -1295.873700588     -4.706647243     -0.000029335      0.000037048  129.85
  8  -1295.873706194     -4.706652849     -0.000005607      0.000015268  129.74
  9  -1295.873702702     -4.706649357      0.000003492      0.000004244  129.60
               --- The Coupled-Cluster iterations have converged ---

----------------------
COUPLED CLUSTER ENERGY
----------------------

E(0)                                       ...  -1291.158012816
E(CORR)(strong-pairs)                      ...     -4.706649357
E(CORR)(weak-pairs)                        ...     -0.009040529
E(CORR)(corrected)                         ...     -4.715689886
E(TOT)                                     ...  -1295.873702702
Singles Norm <S|S>**1/2                    ...      0.125014007  
T1 diagnostic                              ...      0.010719863  

------------------
LARGEST AMPLITUDES
------------------
  55-> 91  55-> 91       0.043340
  47-> 91  47-> 91       0.043337
  54-> 93  54-> 93       0.041678
  50-> 93  50-> 93       0.041676
  57-> 94  57-> 94       0.034167
  48-> 94  48-> 94       0.034156
  52-> 91  52-> 91       0.034143
  51-> 91  51-> 91       0.034141
  72-> 94  72-> 94       0.032277
  64-> 94  64-> 94       0.032277
  81-> 98  81-> 98       0.032207
  78-> 98  78-> 98       0.032202
  46-> 94  46-> 94       0.032109
  56-> 94  56-> 94       0.032093
  65-> 92  65-> 92       0.031967
  70-> 92  70-> 92       0.031961


-------------------------------------------
DLPNO BASED TRIPLES CORRECTION
-------------------------------------------

Singles multiplier          ...  1.000000
TCutTNO                     ... 1.000e-09
TCutMP2Pairs                ... 1.000e-06
TCutDOStrong                ... 1.000e-02
TCutMKNStrong               ... 1.000e-02
TCutDOWeak                  ... 2.000e-02
TCutMKNWeak                 ... 1.000e-01

Fragment selection                          .... not used
Number of Triples that are to be computed   ...     23088

 . . . . . . . . .
10% done  
20% done               (   2122.667 sec)
 . . . . . . . . .
30% done  
40% done  
50% done               (   2966.282 sec)
 . . . . . . . . .
60% done  
70% done  
80% done  
90% done               (   3263.441 sec)
Triples timings:
Total time for T0               ...  8950.499 sec
Total time for Iterative (T)    ...     0.000 sec
Total time of overall (T)       ...  9032.894 sec

Triples List generation         ...     0.000 sec
TNO generation                  ...   597.626 sec
Pair density generation         ...     0.155 sec
Look up tables                  ...     0.000 sec
Generating 3-index integrals    ...  4284.752 sec
  Make 4-ind.int. from 3-ind.int...   188.408 sec
  Projecting amplitudes (D + S) ...  3610.907 sec
  Downprojecting integrals      ...     0.077 sec
  Energy contr. (sum over a,b,c)...    51.423 sec
Fitting ET(->0)                 ...     0.000 sec

Everything after 3-index        ...  4067.638 sec

Timing details:
 TNO integrals                  ...  4451.609 sec
   Reading 3-index integrals    ...    34.106 sec
   Sorting integrals            ...   433.192 sec
       Sorting integrals 1      ...     0.026 sec
       Sorting integrals 2      ...   323.371 sec
       Sorting integrals 3      ...     5.923 sec
       Sorting integrals 4      ...     1.100 sec
       Sorting integrals 5      ...     3.824 sec
       Sorting integrals 6      ...    98.947 sec
   Calculating local VM**-1/2   ...    15.203 sec
   Orthogonal. integrals        ...     9.064 sec
   Multipl. 3-index integrals   ...  3960.043 sec
   All concerning IRIab (w/TNO) ...    58.376 sec

 Calculate W0/W1                ...   216.716 sec
 W 3-ext contribution           ...    74.169 sec
 W 3-int contribution           ...    58.237 sec
 Sorting W                      ...    81.109 sec

 V exchange contribution        ...    10.281 sec

 Timings for Triples without generation
     of 3-index integrals       ...  4067.594 sec
       0 weak pairs             ...  2704.698 sec
       1 weak pair              ...  1362.896 sec
       2 weak pairs             ...     0.000 sec
       3 weak pairs             ...     0.000 sec
  Extra time for extrapolation  ...     0.000 sec

Number of Triples   (0, 1, 2, 3 weak pairs; overall):  13730    9358       0       0  ( 23088)
Number of Atoms     (0, 1, 2, 3 weak pairs; overall):   26.1    25.2     0.0     0.0  (    45)
Number of PAOs      (0, 1, 2, 3 weak pairs; overall):  594.7   589.0     0.0     0.0  (   998)
Number of AuxFcns   (0, 1, 2, 3 weak pairs; overall):  498.1   354.5     0.0     0.0  (  2523)
Number of TNOs      (0, 1, 2, 3 weak pairs         ):   80.2    48.3     0.0     0.0
Aver. Number of NTNO, Atoms, PAOs, AuxFcns / Triples:  23088    67.3    25.7   592.4   439.9

Triples Correction (T)                     ...     -0.186036390
Final correlation energy                   ...     -4.901726276
E(CCSD)                                    ...  -1295.873702702
E(CCSD(T))                                 ...  -1296.059739091


Maximum memory used throughout the entire calculation: 7096.9 MB


------------------------------------------------------------------------------- 
                                     TIMINGS                                   
------------------------------------------------------------------------------- 


Total execution time                   ...    13820.293 sec

Localization of occupied MO's          ...        5.657 sec (  0.0%)
Fock Matrix Formation                  ...       36.498 sec (  0.3%)
Global overlap, Fock, MKN matrices     ...        0.949 sec (  0.0%)
Differential overlap integrals         ...        0.647 sec (  0.0%)
Organizing maps                        ...        0.614 sec (  0.0%)
RI 3-index integral generations        ...      131.449 sec (  1.0%)
RI-PNO integral transformation         ...     2866.892 sec ( 20.7%)
Initial Guess                          ...      323.766 sec (  2.3%)
DIIS Solver                            ...        7.067 sec (  0.1%)
State Vector Update                    ...        0.237 sec (  0.0%)
Sigma-vector construction              ...     1368.133 sec (  9.9%)
  <0|H|D>                              ...        0.002 sec (  0.0% of sigma)
  <D|H|D>(0-ext)                       ...       42.121 sec (  3.1% of sigma)
  <D|H|D>(2-ext Fock)                  ...        0.044 sec (  0.0% of sigma)
  <D|H|D>(2-ext)                       ...      711.644 sec ( 52.0% of sigma)
  <D|H|D>(4-ext)                       ...       51.139 sec (  3.7% of sigma)
  <D|H|D>(4-ext-corr)                  ...      304.816 sec ( 22.3% of sigma)
  CCSD doubles correction              ...        1.514 sec (  0.1% of sigma)
  <S|H|S>                              ...        5.318 sec (  0.4% of sigma)
  <S|H|D>(1-ext)                       ...        3.109 sec (  0.2% of sigma)
  <D|H|S>(1-ext)                       ...        0.067 sec (  0.0% of sigma)
  <S|H|D>(3-ext)                       ...        0.968 sec (  0.1% of sigma)
  CCSD singles correction              ...        0.004 sec (  0.0% of sigma)
  Fock-dressing                        ...      124.920 sec (  9.1% of sigma)
  Singles amplitudes                   ...       10.590 sec (  0.8% of sigma)
  (ik|jl)-dressing                     ...       28.692 sec (  2.1% of sigma)
  (ij|ab),(ia|jb)-dressing             ...        9.429 sec (  0.7% of sigma)
  Pair energies                        ...        0.056 sec (  0.0% of sigma)
Total Time for computing (T)           ...     9039.069 sec ( 65.4% of ALL)


-------------------------   --------------------
FINAL SINGLE POINT ENERGY     -1296.059739091479
-------------------------   --------------------


                            ***************************************
                            *     ORCA property calculations      *
                            ***************************************

                                    ---------------------
                                    Active property flags
                                    ---------------------
   (+) Dipole Moment


------------------------------------------------------------------------------
                       ORCA ELECTRIC PROPERTIES CALCULATION
------------------------------------------------------------------------------

Dipole Moment Calculation                       ... on
Quadrupole Moment Calculation                   ... off
Polarizability Calculation                      ... off
GBWName                                         ... aagtxgtx6060.gbw
Electron density file                           ... aagtxgtx6060.scfp.tmp
The origin for moment calculation is the CENTER OF MASS  = (-0.000001,  0.000018 -0.003258)

-------------
DIPOLE MOMENT
-------------
                                X             Y             Z
Electronic contribution:      0.00014      -0.00008      -1.21785
Nuclear contribution   :     -0.00018      -0.00010       0.59525
                        -----------------------------------------
Total Dipole Moment    :     -0.00004      -0.00019      -0.62260
                        -----------------------------------------
Magnitude (a.u.)       :      0.62260
Magnitude (Debye)      :      1.58252



--------------------
Rotational spectrum 
--------------------
 
Rotational constants in cm-1:     0.012267     0.005060     0.005022 
Rotational constants in MHz :   367.760799   151.683431   150.562271 

 Dipole components along the rotational axes: 
x,y,z [a.u.] :     0.000042    -0.000153    -0.622599 
x,y,z [Debye]:     0.000106    -0.000388    -1.582521 

 

Timings for individual modules:

Sum of individual times         ...    14135.525 sec (= 235.592 min)
GTO integral calculation        ...        3.065 sec (=   0.051 min)   0.0 %
SCF iterations                  ...      272.640 sec (=   4.544 min)   1.9 %
MDCI module                     ...    13859.820 sec (= 230.997 min)  98.0 %
                             ****ORCA TERMINATED NORMALLY****
TOTAL RUN TIME: 0 days 3 hours 55 minutes 37 seconds 419 msec
aagtxgtx6060.gbw -> /home1/pantazis/klk/xyz_1/Oxygen_compounds/aagtxgtx6060.gbw
aagtxgtx6060.job -> /home1/pantazis/klk/xyz_1/Oxygen_compounds/aagtxgtx6060.job
aagtxgtx6060.loc -> /home1/pantazis/klk/xyz_1/Oxygen_compounds/aagtxgtx6060.loc
aagtxgtx6060.nodes -> /home1/pantazis/klk/xyz_1/Oxygen_compounds/aagtxgtx6060.nodes
aagtxgtx6060.prop -> /home1/pantazis/klk/xyz_1/Oxygen_compounds/aagtxgtx6060.prop
aagtxgtx6060_property.txt -> /home1/pantazis/klk/xyz_1/Oxygen_compounds/aagtxgtx6060_property.txt
aagtxgtx6060.xyz -> /home1/pantazis/klk/xyz_1/Oxygen_compounds/aagtxgtx6060.xyz
cp: cannot stat aagtxgtx6060.asa.inp: No such file or directory
