! Job execution by suborca V 6.07 on ZEUS !
Job started from zeus1, running /scratch/pantazis/Adamantyl_CMe2Cl__4jqZpr/orca/orca copied from /opt/orca on zeussn129 in /scratch/pantazis/Adamantyl_CMe2Cl__4jqZpr
Job execution start: Fri Jun 28 01:10:49 CEST 2019
Shared library path: /scratch/pantazis/Adamantyl_CMe2Cl__4jqZpr/orca:/opt/openmpi_1.10.2/lib:/opt/intel/mkl/lib/intel64:/opt/intel/lib/intel64:
PBS Job ID is: 158291.icqc
izeussn129
izeussn129
izeussn129
izeussn129
izeussn129
izeussn129
izeussn129
izeussn129

                                 *****************
                                 * O   R   C   A *
                                 *****************

           --- An Ab Initio, DFT and Semiempirical electronic structure package ---

                  #######################################################
                  #                        -***-                        #
                  #          Department of theory and spectroscopy      #
                  #               Directorship: Frank Neese             #
                  #        Max Planck Institute fuer Kohlenforschung    #
                  #                Kaiser Wilhelm Platz 1               #
                  #                 D-45470 Muelheim/Ruhr               #
                  #                      Germany                        #
                  #                                                     #
                  #                  All rights reserved                #
                  #                        -***-                        #
                  #######################################################


                         Program Version 4.1.x  -  STABLE  -
                                (SVN: $Rev: 14094$)
                ($Date: 2019-06-14 15:01:15 +0200 (Fri, 14 Jun 2019) $)

                         (BUILD: $Sun Jun 23 06:18:31 CEST 2019$)


 With contributions from (in alphabetic order):
   Daniel Aravena         : Magnetic Properties
   Michael Atanasov       : Ab Initio Ligand Field Theory
   Alexander A. Auer      : GIAO ZORA
   Ute Becker             : Parallelization
   Giovanni Bistoni       : ED, Open-shell LED
   Martin Brehm           : Molecular dynamics
   Dmytro Bykov           : SCF Hessian
   Vijay G. Chilkuri      : MRCI spin determinant printing
   Dipayan Datta          : RHF DLPNO-CCSD density
   Achintya Kumar Dutta   : EOM-CC, STEOM-CC
   Dmitry Ganyushin       : Spin-Orbit,Spin-Spin,Magnetic field MRCI
   Miquel Garcia          : C-PCM Hessian
   Yang Guo               : DLPNO-NEVPT2, CIM, IAO-localization
   Andreas Hansen         : Spin unrestricted coupled pair/coupled cluster methods
   Benjamin Helmich-Paris : CASSCF linear response (MC-RPA)
   Lee Huntington         : MR-EOM, pCC
   Robert Izsak           : Overlap fitted RIJCOSX, COSX-SCS-MP3, EOM
   Christian Kollmar      : KDIIS, OOCD, Brueckner-CCSD(T), CCSD density
   Simone Kossmann        : Meta GGA functionals, TD-DFT gradient, OOMP2, MP2 Hessian
   Martin Krupicka        : AUTO-CI
   Lucas Lang             : DCDCAS
   Dagmar Lenk            : GEPOL surface, SMD
   Dimitrios Liakos       : Extrapolation schemes; parallel MDCI
   Dimitrios Manganas     : ROCIS; embedding schemes
   Dimitrios Pantazis     : SARC Basis sets
   Taras Petrenko         : DFT Hessian,TD-DFT gradient, ASA, ECA, R-Raman, ABS, FL, XAS/XES, NRVS
   Peter Pinski           : DLPNO-MP2, DLPNO-MP2 Gradient
   Christoph Reimann      : Effective Core Potentials
   Marius Retegan         : Local ZFS, SOC
   Christoph Riplinger    : Optimizer, TS searches, QM/MM, DLPNO-CCSD(T), (RO)-DLPNO pert. Triples
   Tobias Risthaus        : Range-separated hybrids, TD-DFT gradient, RPA, STAB
   Michael Roemelt        : Restricted open shell CIS
   Masaaki Saitow         : Open-shell DLPNO
   Barbara Sandhoefer     : DKH picture change effects
   Avijit Sen             : IP-ROCIS
   Kantharuban Sivalingam : CASSCF convergence, NEVPT2, FIC-MRCI
   Bernardo de Souza      : ESD, SOC TD-DFT
   Georgi Stoychev        : AutoAux, RI-MP2 NMR
   Willem Van den Heuvel  : Paramagnetic NMR
   Boris Wezisla          : Elementary symmetry handling
   Frank Wennmohs         : Technical directorship


 We gratefully acknowledge several colleagues who have allowed us to
 interface, adapt or use parts of their codes:
   Stefan Grimme, W. Hujo, H. Kruse,             : VdW corrections, initial TS optimization,
                  C. Bannwarth                     DFT functionals, gCP, sTDA/sTD-DF
   Ed Valeev                                     : LibInt (2-el integral package), F12 methods
   Garnet Chan, S. Sharma, J. Yang, R. Olivares  : DMRG
   Ulf Ekstrom                                   : XCFun DFT Library
   Mihaly Kallay                                 : mrcc  (arbitrary order and MRCC methods)
   Andreas Klamt, Michael Diedenhofen            : otool_cosmo (COSMO solvation model)
   Jiri Pittner, Ondrej Demel                    : Mk-CCSD
   Frank Weinhold                                : gennbo (NPA and NBO analysis)
   Christopher J. Cramer and Donald G. Truhlar   : smd solvation model
   Lars Goerigk                                  : TD-DFT with DH, B97 family of functionals
   V. Asgeirsson, H. Jonsson                     : NEB implementation
   FAccTs GmbH                                   : IRC, NEB, NEB-TS, Multilevel


 Your calculation uses the libint2 library for the computation of 2-el integrals
 For citations please refer to: http://libint.valeyev.net

 This ORCA versions uses:
   CBLAS   interface :  Fast vector & matrix operations
   LAPACKE interface :  Fast linear algebra routines
   SCALAPACK package :  Parallel linear algebra routines




***************************************
The coordinates will be read from file: Adamantyl_CMe2Cl.xyz
***************************************


----- Orbital basis set information -----
Your calculation utilizes the basis: cc-pVTZ 
       H, B-Ne : Obtained from the ccRepo (grant-hill.group.shef.ac.uk/ccrepo) Feb. 2017
                 T. H. Dunning, Jr., J. Chem. Phys. 90, 1007 (1989)
            He : Obtained from the ccRepo (grant-hill.group.shef.ac.uk/ccrepo) Feb. 2017
                 D. E. Woon, T. H. Dunning, Jr., J. Chem. Phys. 100, 2975 (1994)
  Li-Be, Na-Mg : Obtained from the ccRepo (grant-hill.group.shef.ac.uk/ccrepo) Feb. 2017
                 B. P. Prascher, D. E. Woon, K. A. Peterson, T. H. Dunning, Jr., A. K. Wilson, Theor. Chem. Acc. 128, 69 (2011)
         Al-Ar : Obtained from the ccRepo (grant-hill.group.shef.ac.uk/ccrepo) Feb. 2017
                 D. E. Woon, T. H. Dunning, Jr., J. Chem. Phys. 98, 1358 (1993)
            Ca : Obtained from the Peterson Research Group Website (tyr0.chem.wsu.edu/~kipeters) Feb. 2017
                 J. Koput, K. A. Peterson, J. Phys. Chem. 106, 9595 (2002)
         Sc-Zn : Obtained from the ccRepo (grant-hill.group.shef.ac.uk/ccrepo) Feb. 2017
                 N. B. Balabanov, K. A. Peterson, J. Chem. Phys. 123, 064107 (2005)
                 N. B. Balabanov, K. A. Peterson, J. Chem. Phys. 125, 074110 (2006)
         Ga-Kr : Obtained from the ccRepo (grant-hill.group.shef.ac.uk/ccrepo) Feb. 2017
                 A. K. Wilson, D. E. Woon, K. A. Peterson, T. H. Dunning, Jr., J. Chem. Phys. 110, 7667 (1999)
             Y : Obtained from the ccRepo (grant-hill.group.shef.ac.uk/ccrepo) Feb. 2017
                 K. A. Peterson, D. Figgen, M. Dolg, H. Stoll, J. Chem. Phys. 126, 124101 (2007)
        Ag, Au : Obtained from the Peterson Research Group Website (tyr0.chem.wsu.edu/~kipeters) Feb. 2017
                 K. A. Peterson, C. Puzzarini, Theor. Chem. Acc. 114, 283 (2005)

----- AuxC basis set information -----
Your calculation utilizes the auxiliary basis: cc-pVTZ/C 
  Obtained from the EMSL Basis Set Exchange (bse.pnl.gov) Feb. 2017
  H-He, B-F, Al-Ar, Ga-Kr : F. Weigend, A. Kohn, C. Hattig, J. Chem. Phys. 116, 3175 (2002)
             Li-Be, Na-Mg : C. Haettig, Phys. Chem. Chem. Phys. 7, 59 (2005)
                       Ne : C. Haettig, Phys. Chem. Chem. Phys. 7, 59 (2005)
                            F. Weigend, A. Kohn, C. Hattig, J. Chem. Phys. 116, 3175 (2002)
                    Sc-Zn : J. G. Hill, J. A. Platts, J. Chem. Phys. 128, 044104 (2008)

----- AuxJK basis set information -----
Your calculation utilizes the auxiliary basis: cc-pVTZ/JK 
  H, B-F, Al-Cl, Ga-Br : Obtained from the TURBOMOLE 7.0 basis set library

================================================================================
                                        WARNINGS
                       Please study these warnings very carefully!
================================================================================


WARNING: MDCI localization with Augmented Hessian Foster-Boys
  ===> : Switching off randomization!

WARNING: Post HF methods need fully converged wavefunctions
  ===> : Setting SCFConvForced true
         You can overwrite this default with %scf ConvForced false 


INFO   : the flag for use of LIBINT has been found!

================================================================================
                                       INPUT FILE
================================================================================
NAME = Adamantyl_CMe2Cl.inp
|  1> ! RHF DLPNO-CCSD(T) cc-pVTZ RIJK cc-pVTZ/JK cc-pVTZ/C
|  2> ! KDIIS SOSCF TightSCF TightPNO
|  3> 
|  4> %pal nprocs 8 end
|  5> 
|  6> %maxcore 8000
|  7> 
|  8> %scf maxiter 300
|  9>      shift shift 0.2 erroff 0.1 end
| 10> end
| 11> 
| 12> * xyzfile 0 1 Adamantyl_CMe2Cl.xyz 
| 13> 
| 14> 
| 15>                          ****END OF INPUT****
================================================================================

                       ****************************
                       * Single Point Calculation *
                       ****************************

---------------------------------
CARTESIAN COORDINATES (ANGSTROEM)
---------------------------------
  C      2.136100   -1.591500    0.000300
  C      1.717500   -0.806400   -1.248800
  C      0.193100   -0.611800   -1.253200
  C      1.717600   -0.805800    1.249100
  C      0.193200   -0.611200    1.253500
  C     -0.276400    0.168800   -0.000000
  C      2.409300    0.562900   -1.252300
  C      1.986300    1.341600   -0.000300
  C      0.460000    1.536500   -0.000300
  C      2.409400    0.563400    1.252000
  C     -1.831100    0.394200   -0.000000
  C     -2.360500    1.112700    1.245000
  C     -2.360500    1.112700   -1.245000
  Cl    -2.678700   -1.253600   -0.000000
  H      3.212300   -1.754200    0.000300
  H      1.666600   -2.573100    0.000500
  H      1.998800   -1.360800   -2.141400
  H     -0.296800   -1.577900   -1.293700
  H     -0.083700   -0.076600   -2.156100
  H      1.998900   -1.359800    2.141900
  H     -0.083600   -0.075700    2.156200
  H     -0.296800   -1.577300    1.294500
  H      2.139300    1.117400   -2.149300
  H      3.490500    0.440500   -1.269900
  H      2.459000    2.321400   -0.000500
  H      0.182500    2.118900   -0.873700
  H      0.182600    2.119200    0.872800
  H      3.490600    0.441000    1.269600
  H      2.139400    1.118300    2.148700
  H     -3.439200    1.189200    1.187200
  H     -2.115800    0.589700    2.158200
  H     -1.958300    2.118200    1.299000
  H     -3.439200    1.189300   -1.187100
  H     -1.958200    2.118200   -1.299100
  H     -2.115900    0.589700   -2.158200

----------------------------
CARTESIAN COORDINATES (A.U.)
----------------------------
  NO LB      ZA    FRAG     MASS         X           Y           Z
   0 C     6.0000    0    12.011    4.036644   -3.007499    0.000567
   1 C     6.0000    0    12.011    3.245605   -1.523875   -2.359890
   2 C     6.0000    0    12.011    0.364906   -1.156134   -2.368205
   3 C     6.0000    0    12.011    3.245794   -1.522741    2.360457
   4 C     6.0000    0    12.011    0.365095   -1.155001    2.368772
   5 C     6.0000    0    12.011   -0.522320    0.318986   -0.000000
   6 C     6.0000    0    12.011    4.552917    1.063727   -2.366504
   7 C     6.0000    0    12.011    3.753563    2.535257   -0.000567
   8 C     6.0000    0    12.011    0.869274    2.903564   -0.000567
   9 C     6.0000    0    12.011    4.553106    1.064672    2.365937
  10 C     6.0000    0    12.011   -3.460278    0.744930   -0.000000
  11 C     6.0000    0    12.011   -4.460699    2.102698    2.352709
  12 C     6.0000    0    12.011   -4.460699    2.102698   -2.352709
  13 Cl   17.0000    0    35.453   -5.062009   -2.368961   -0.000000
  14 H     1.0000    0     1.008    6.070367   -3.314958    0.000567
  15 H     1.0000    0     1.008    3.149418   -4.862454    0.000945
  16 H     1.0000    0     1.008    3.777185   -2.571539   -4.046660
  17 H     1.0000    0     1.008   -0.560871   -2.981799   -2.444739
  18 H     1.0000    0     1.008   -0.158170   -0.144753   -4.074439
  19 H     1.0000    0     1.008    3.777374   -2.569650    4.047604
  20 H     1.0000    0     1.008   -0.157981   -0.143052    4.074627
  21 H     1.0000    0     1.008   -0.560871   -2.980665    2.446250
  22 H     1.0000    0     1.008    4.042691    2.111580   -4.061588
  23 H     1.0000    0     1.008    6.596089    0.832424   -2.399763
  24 H     1.0000    0     1.008    4.646837    4.386810   -0.000945
  25 H     1.0000    0     1.008    0.344875    4.004141   -1.651054
  26 H     1.0000    0     1.008    0.345064    4.004708    1.649353
  27 H     1.0000    0     1.008    6.596278    0.833369    2.399196
  28 H     1.0000    0     1.008    4.042880    2.113281    4.060455
  29 H     1.0000    0     1.008   -6.499146    2.247262    2.243483
  30 H     1.0000    0     1.008   -3.998283    1.114372    4.078407
  31 H     1.0000    0     1.008   -3.700651    4.002818    2.454754
  32 H     1.0000    0     1.008   -6.499146    2.247451   -2.243294
  33 H     1.0000    0     1.008   -3.700462    4.002818   -2.454943
  34 H     1.0000    0     1.008   -3.998472    1.114372   -4.078407

--------------------------------
INTERNAL COORDINATES (ANGSTROEM)
--------------------------------
 C      0   0   0     0.000000000000     0.00000000     0.00000000
 C      1   0   0     1.533577119026     0.00000000     0.00000000
 C      2   1   0     1.536777108106   109.74999063     0.00000000
 C      1   2   3     1.533612786853   109.05490873   299.90697022
 C      4   1   2     1.536777108106   109.74855649    60.09223831
 C      5   4   1     1.549253500884   111.22979881   300.14226083
 C      2   1   3     1.534138839871   109.61546235   120.33175142
 C      7   2   1     1.533886139842   109.08075902   299.57624778
 C      8   7   2     1.538693504243   109.74610615   299.99620658
 C      8   7   2     1.533904866672   109.43623875    60.48296013
 C      6   5   4     1.570954248220   111.85228410   180.82501567
 C     11   6   5     1.531839289873   114.16213052    56.36626354
 C     11   6   5     1.531839289873   114.16213052   182.31157973
 Cl    11   6   5     1.853016621620   108.97126083   299.33892164
 H      1   2   3     1.088429019275   110.26822189   178.69391607
 H      1   2   3     1.088103326895   110.13326307    60.87552964
 H      2   1   3     1.087760915827   109.68557002   240.78407805
 H      3   2   1     1.083970234831   109.60644606   297.97304542
 H      3   2   1     1.085488687182   108.52765559   181.38725373
 H      4   1   2     1.087721255653   109.68553972   179.30463824
 H      5   4   1     1.085470303601   108.53006374   178.60578836
 H      5   4   1     1.084034229164   109.61088715    62.02810238
 H      7   2   1     1.088567522021   110.16262932   178.47408429
 H      7   2   1     1.088248574545   110.34449791    60.69380941
 H      8   7   2     1.087866430220   109.70982172   180.89919843
 H      9   8   7     1.085828517769   108.75038682   298.28858449
 H      9   8   7     1.085722644141   108.74887308   182.00949257
 H     10   8   7     1.088248574545   110.13973981    60.76093107
 H     10   8   7     1.088524184389   110.21226415   178.45093748
 H     12  11   6     1.082952805989   109.51145429   182.47967464
 H     12  11   6     1.080435713034   112.43453950   302.23259858
 H     12  11   6     1.084302121182   110.31857757    63.91851025
 H     13  11   6     1.082965216431   109.50929244   177.52789273
 H     13  11   6     1.084344202733   110.32038641   296.08884881
 H     13  11   6     1.080413069155   112.43701814    57.77230431

---------------------------
INTERNAL COORDINATES (A.U.)
---------------------------
 C      0   0   0     0.000000000000     0.00000000     0.00000000
 C      1   0   0     2.898040760207     0.00000000     0.00000000
 C      2   1   0     2.904087863201   109.74999063     0.00000000
 C      1   2   3     2.898108162633   109.05490873   299.90697022
 C      4   1   2     2.904087863201   109.74855649    60.09223831
 C      5   4   1     2.927664828689   111.22979881   300.14226083
 C      2   1   3     2.899102258767   109.61546235   120.33175142
 C      7   2   1     2.898624724919   109.08075902   299.57624778
 C      8   7   2     2.907709327063   109.74610615   299.99620658
 C      8   7   2     2.898660113499   109.43623875    60.48296013
 C      6   5   4     2.968673298056   111.85228410   180.82501567
 C     11   6   5     2.894756739041   114.16213052    56.36626354
 C     11   6   5     2.894756739041   114.16213052   182.31157973
 Cl    11   6   5     3.501693936466   108.97126083   299.33892164
 H      1   2   3     2.056832762642   110.26822189   178.69391607
 H      1   2   3     2.056217293240   110.13326307    60.87552964
 H      2   1   3     2.055570230096   109.68557002   240.78407805
 H      3   2   1     2.048406881153   109.60644606   297.97304542
 H      3   2   1     2.051276340244   108.52765559   181.38725373
 H      4   1   2     2.055495283230   109.68553972   179.30463824
 H      5   4   1     2.051241600311   108.53006374   178.60578836
 H      5   4   1     2.048527812917   109.61088715    62.02810238
 H      7   2   1     2.057094494902   110.16262932   178.47408429
 H      7   2   1     2.056491771521   110.34449791    60.69380941
 H      8   7   2     2.055769623403   109.70982172   180.89919843
 H      9   8   7     2.051918526985   108.75038682   298.28858449
 H      9   8   7     2.051718454823   108.74887308   182.00949257
 H     10   8   7     2.056491771521   110.13973981    60.76093107
 H     10   8   7     2.057012598645   110.21226415   178.45093748
 H     12  11   6     2.046484219281   109.51145429   182.47967464
 H     12  11   6     2.041727602943   112.43453950   302.23259858
 H     12  11   6     2.049034055464   110.31857757    63.91851025
 H     13  11   6     2.046507671618   109.50929244   177.52789273
 H     13  11   6     2.049113578070   110.32038641   296.08884881
 H     13  11   6     2.041684812211   112.43701814    57.77230431

---------------------
BASIS SET INFORMATION
---------------------
There are 3 groups of distinct atoms

 Group   1 Type C   : 18s5p2d1f contracted to 4s3p2d1f pattern {8811/311/11/1}
 Group   2 Type Cl  : 41s16p2d1f contracted to 5s4p2d1f pattern {13131311/7711/11/1}
 Group   3 Type H   : 5s2p1d contracted to 3s2p1d pattern {311/11/1}

Atom   0C    basis set group =>   1
Atom   1C    basis set group =>   1
Atom   2C    basis set group =>   1
Atom   3C    basis set group =>   1
Atom   4C    basis set group =>   1
Atom   5C    basis set group =>   1
Atom   6C    basis set group =>   1
Atom   7C    basis set group =>   1
Atom   8C    basis set group =>   1
Atom   9C    basis set group =>   1
Atom  10C    basis set group =>   1
Atom  11C    basis set group =>   1
Atom  12C    basis set group =>   1
Atom  13Cl   basis set group =>   2
Atom  14H    basis set group =>   3
Atom  15H    basis set group =>   3
Atom  16H    basis set group =>   3
Atom  17H    basis set group =>   3
Atom  18H    basis set group =>   3
Atom  19H    basis set group =>   3
Atom  20H    basis set group =>   3
Atom  21H    basis set group =>   3
Atom  22H    basis set group =>   3
Atom  23H    basis set group =>   3
Atom  24H    basis set group =>   3
Atom  25H    basis set group =>   3
Atom  26H    basis set group =>   3
Atom  27H    basis set group =>   3
Atom  28H    basis set group =>   3
Atom  29H    basis set group =>   3
Atom  30H    basis set group =>   3
Atom  31H    basis set group =>   3
Atom  32H    basis set group =>   3
Atom  33H    basis set group =>   3
Atom  34H    basis set group =>   3
-------------------------------
AUXILIARY BASIS SET INFORMATION
-------------------------------
There are 3 groups of distinct atoms

 Group   1 Type C   : 8s6p5d3f1g contracted to 8s6p5d3f1g pattern {11111111/111111/11111/111/1}
 Group   2 Type Cl  : 10s8p7d5f2g contracted to 10s8p7d5f2g pattern {1111111111/11111111/1111111/11111/11}
 Group   3 Type H   : 4s3p2d1f contracted to 4s3p2d1f pattern {1111/111/11/1}

Atom   0C    basis set group =>   1
Atom   1C    basis set group =>   1
Atom   2C    basis set group =>   1
Atom   3C    basis set group =>   1
Atom   4C    basis set group =>   1
Atom   5C    basis set group =>   1
Atom   6C    basis set group =>   1
Atom   7C    basis set group =>   1
Atom   8C    basis set group =>   1
Atom   9C    basis set group =>   1
Atom  10C    basis set group =>   1
Atom  11C    basis set group =>   1
Atom  12C    basis set group =>   1
Atom  13Cl   basis set group =>   2
Atom  14H    basis set group =>   3
Atom  15H    basis set group =>   3
Atom  16H    basis set group =>   3
Atom  17H    basis set group =>   3
Atom  18H    basis set group =>   3
Atom  19H    basis set group =>   3
Atom  20H    basis set group =>   3
Atom  21H    basis set group =>   3
Atom  22H    basis set group =>   3
Atom  23H    basis set group =>   3
Atom  24H    basis set group =>   3
Atom  25H    basis set group =>   3
Atom  26H    basis set group =>   3
Atom  27H    basis set group =>   3
Atom  28H    basis set group =>   3
Atom  29H    basis set group =>   3
Atom  30H    basis set group =>   3
Atom  31H    basis set group =>   3
Atom  32H    basis set group =>   3
Atom  33H    basis set group =>   3
Atom  34H    basis set group =>   3
-------------------------------
AUXILIARY BASIS SET INFORMATION
-------------------------------
There are 3 groups of distinct atoms

 Group   1 Type C   : 10s7p5d2f1g contracted to 10s7p5d2f1g pattern {1111111111/1111111/11111/11/1}
 Group   2 Type Cl  : 13s11p9d3f1g contracted to 13s11p9d3f1g pattern {1111111111111/11111111111/111111111/111/1}
 Group   3 Type H   : 4s3p2d1f contracted to 4s3p2d1f pattern {1111/111/11/1}

Atom   0C    basis set group =>   1
Atom   1C    basis set group =>   1
Atom   2C    basis set group =>   1
Atom   3C    basis set group =>   1
Atom   4C    basis set group =>   1
Atom   5C    basis set group =>   1
Atom   6C    basis set group =>   1
Atom   7C    basis set group =>   1
Atom   8C    basis set group =>   1
Atom   9C    basis set group =>   1
Atom  10C    basis set group =>   1
Atom  11C    basis set group =>   1
Atom  12C    basis set group =>   1
Atom  13Cl   basis set group =>   2
Atom  14H    basis set group =>   3
Atom  15H    basis set group =>   3
Atom  16H    basis set group =>   3
Atom  17H    basis set group =>   3
Atom  18H    basis set group =>   3
Atom  19H    basis set group =>   3
Atom  20H    basis set group =>   3
Atom  21H    basis set group =>   3
Atom  22H    basis set group =>   3
Atom  23H    basis set group =>   3
Atom  24H    basis set group =>   3
Atom  25H    basis set group =>   3
Atom  26H    basis set group =>   3
Atom  27H    basis set group =>   3
Atom  28H    basis set group =>   3
Atom  29H    basis set group =>   3
Atom  30H    basis set group =>   3
Atom  31H    basis set group =>   3
Atom  32H    basis set group =>   3
Atom  33H    basis set group =>   3
Atom  34H    basis set group =>   3


           ************************************************************
           *        Program running with 8 parallel MPI-processes     *
           *              working on a common directory               *
           ************************************************************
------------------------------------------------------------------------------
                           ORCA GTO INTEGRAL CALCULATION
                           -- RI-GTO INTEGRALS CHOSEN --
------------------------------------------------------------------------------

                         BASIS SET STATISTICS AND STARTUP INFO

Gaussian basis set:
 # of primitive gaussian shells          ...  566
 # of primitive gaussian functions       ... 1092
 # of contracted shells                  ...  268
 # of contracted basis functions         ...  718
 Highest angular momentum                ...    3
 Maximum contraction depth               ...   13
Auxiliary gaussian basis set:
 # of primitive gaussian shells          ...  572
 # of primitive gaussian functions       ... 1778
 # of contracted shells                  ...  572
 # of contracted aux-basis functions     ... 1778
 Highest angular momentum                ...    4
 Maximum contraction depth               ...    1
Ratio of auxiliary to basis functions    ...  2.48
Integral package used                  ... LIBINT
 One Electron integrals                  ... done
 Ordering auxiliary basis shells         ... done
 Integral threshhold             Thresh  ...  2.500e-11
 Primitive cut-off               TCut    ...  2.500e-12
 Pre-screening matrix                    ... done
 Shell pair data                         ... 
 Ordering of the shell pairs             ... done (   0.007 sec) 31996 of 36046 pairs
 Determination of significant pairs      ... done (   0.000 sec)
 Creation of shell pair data             ... done (   0.008 sec)
 Storage of shell pair data              ... done (   0.008 sec)
 Shell pair data done in (   0.022 sec)
 Computing two index integrals           ... done
 Cholesky decomposition of the V-matrix  ... done


Timings:
 Total evaluation time                   ...   1.913 sec (  0.032 min)
 One electron matrix time                ...   0.529 sec (  0.009 min) = 27.7%
 Schwartz matrix evaluation time         ...   0.817 sec (  0.014 min) = 42.7%
 Two index repulsion integral time       ...   0.206 sec (  0.003 min) = 10.8%
 Cholesky decomposition of V             ...   0.311 sec (  0.005 min) = 16.2%
 Three index repulsion integral time     ...   0.000 sec (  0.000 min) =  0.0%



           ************************************************************
           *        Program running with 8 parallel MPI-processes     *
           *              working on a common directory               *
           ************************************************************
-------------------------------------------------------------------------------
                                 ORCA SCF
-------------------------------------------------------------------------------

------------
SCF SETTINGS
------------
Hamiltonian:
 Ab initio Hamiltonian  Method          .... Hartree-Fock(GTOs)
 RI-approximation to the Coulomb term is turned on
   Number of auxiliary basis functions  .... 1778
   RI-JK (J+K treated both via RI)      .... on


General Settings:
 Integral files         IntName         .... Adamantyl_CMe2Cl
 Hartree-Fock type      HFTyp           .... RHF
 Total Charge           Charge          ....    0
 Multiplicity           Mult            ....    1
 Number of Electrons    NEL             ....  116
 Basis Dimension        Dim             ....  718
 Nuclear Repulsion      ENuc            ....   1143.6057075567 Eh

Convergence Acceleration:
 DIIS                   CNVDIIS         .... off
 Newton-Raphson         CNVNR           .... off
 SOSCF                  CNVSOSCF        .... on
   Start iteration      SOSCFMaxIt      ....   150
   Startup grad/error   SOSCFStart      ....  0.003300
 Level Shifting         CNVShift        .... on
   Level shift para.    LevelShift      ....    0.2000
   Turn off err/grad.   ShiftErr        ....    0.1000
 Zerner damping         CNVZerner       .... off
 Static damping         CNVDamp         .... off
 Fernandez-Rico         CNVRico         .... off

SCF Procedure:
 Maximum # iterations   MaxIter         ....   300
 SCF integral mode      SCFMode         .... Direct
   Integral package                     .... LIBINT
 Reset frequency        DirectResetFreq ....    20
 Integral Threshold     Thresh          ....  2.500e-11 Eh
 Primitive CutOff       TCut            ....  2.500e-12 Eh

Convergence Tolerance:
 Convergence Check Mode ConvCheckMode   .... Total+1el-Energy
 Convergence forced     ConvForced      .... 1
 Energy Change          TolE            ....  1.000e-08 Eh
 1-El. energy change                    ....  1.000e-05 Eh
 Orbital Gradient       TolG            ....  1.000e-05
 Orbital Rotation angle TolX            ....  1.000e-05


Diagonalization of the overlap matrix:
Smallest eigenvalue                        ... 1.248e-04
Time for diagonalization                   ...    0.129 sec
Threshold for overlap eigenvalues          ... 1.000e-08
Number of eigenvalues below threshold      ... 0
Time for construction of square roots      ...    0.128 sec
Total time needed                          ...    0.259 sec

-------------------
DFT GRID GENERATION
-------------------

General Integration Accuracy     IntAcc      ...  4.340
Radial Grid Type                 RadialGrid  ... Gauss-Chebyshev
Angular Grid (max. acc.)         AngularGrid ... Lebedev-110
Angular grid pruning method      GridPruning ... 3 (G Style)
Weight generation scheme         WeightScheme... Becke
Basis function cutoff            BFCut       ...    1.0000e-11
Integration weight cutoff        WCut        ...    1.0000e-14
Grids for H and He will be reduced by one unit

# of grid points (after initial pruning)     ...  40046 (   0.0 sec)
# of grid points (after weights+screening)   ...  34967 (   0.1 sec)
nearest neighbour list constructed           ...    0.0 sec
Grid point re-assignment to atoms done       ...    0.0 sec
Grid point division into batches done        ...    0.0 sec
Reduced shell lists constructed in    0.6 sec

Total number of grid points                  ...    34967
Total number of batches                      ...      564
Average number of points per batch           ...       61
Average number of grid points per atom       ...      999
Average number of shells per batch           ...   204.64 (76.36%)
Average number of basis functions per batch  ...   532.72 (74.20%)
Average number of large shells per batch     ...   150.33 (73.46%)
Average number of large basis fcns per batch ...   384.92 (72.25%)
Average number of aux-shells per batch       ...   204.64 (35.78%)
Average number of aux functions per batch    ...   532.72 (29.96%)
Maximum spatial batch extension              ...   3.68,  2.56,  2.37 au
Average spatial batch extension              ...   0.20,  0.19,  0.19 au

Time for grid setup =    0.752 sec

------------------------------
INITIAL GUESS: MODEL POTENTIAL
------------------------------
Loading Hartree-Fock densities                     ... done
Calculating cut-offs                               ... done
Setting up the integral package                    ... done
Initializing the effective Hamiltonian             ... done
Starting the Coulomb interaction                   ... done (   0.5 sec)
Reading the grid                                   ... done
Mapping shells                                     ... done
Starting the XC term evaluation                    ... done (   0.3 sec)
Transforming the Hamiltonian                       ... done (   0.1 sec)
Diagonalizing the Hamiltonian                      ... done (   0.1 sec)
Back transforming the eigenvectors                 ... done (   0.0 sec)
Now organizing SCF variables                       ... done
                      ------------------
                      INITIAL GUESS DONE (   1.9 sec)
                      ------------------
--------------
SCF ITERATIONS
--------------
ITER       Energy         Delta-E        Max-DP      RMS-DP      [F,P]   Gradient Norm
                             ****Turning on KDIIS(Cayley)****
  0   -963.5082784795   0.000000000000 0.01625977  0.00018223  0.1083919   0.142759821
  1   -963.7081290575  -0.199850578048 0.02981739  0.00023359  0.0980165   0.124139220
  2   -963.8765649527  -0.168435895145 0.04931455  0.00039972  0.0789530   0.100749747
  3   -964.0829331198  -0.206368167079 0.07540305  0.00064153  0.0476349   0.062204852
  4   -964.2181150869  -0.135181967102 0.00298982  0.00005701  0.0040934   0.003498035
                      *** Initiating the SOSCF procedure ***
                           *** Shutting down KDIIS ***
                      *** Re-Reading the Fockian *** 
                      *** Removing any level shift *** 
ITER      Energy       Delta-E        Grad      Rot      Max-DP    RMS-DP
  5   -964.21891751  -0.0008024220  0.001548  0.001548  0.003072  0.000060
  6   -964.21905298  -0.0001354730  0.000454  0.000602  0.001039  0.000010
  7   -964.21906226  -0.0000092770  0.000240  0.000200  0.000357  0.000003
  8   -964.21906861  -0.0000063538  0.000052  0.000082  0.000225  0.000001
  9   -964.21906870  -0.0000000889  0.000018  0.000038  0.000118  0.000001
 10   -964.21906874  -0.0000000342  0.000009  0.000021  0.000038  0.000000
                  ***Gradient check signals convergence***
              ***Rediagonalizing the Fockian in SOSCF/NRSCF***

               *****************************************************
               *                     SUCCESS                       *
               *           SCF CONVERGED AFTER  11 CYCLES          *
               *****************************************************


----------------
TOTAL SCF ENERGY
----------------

Total Energy       :         -964.21906874 Eh          -26237.73476 eV

Components:
Nuclear Repulsion  :         1143.60570756 Eh           31119.09337 eV
Electronic Energy  :        -2107.82477629 Eh          -57356.82813 eV
One Electron Energy:        -3592.14085997 Eh          -97747.12217 eV
Two Electron Energy:         1484.31608368 Eh           40390.29404 eV

Virial components:
Potential Energy   :        -1928.03085808 Eh          -52464.38689 eV
Kinetic Energy     :          963.81178934 Eh           26226.65213 eV
Virial Ratio       :            2.00042257


---------------
SCF CONVERGENCE
---------------

  Last Energy change         ...   -2.5393e-09  Tolerance :   1.0000e-08
  Last MAX-Density change    ...    9.5213e-06  Tolerance :   1.0000e-07
  Last RMS-Density change    ...    7.9852e-08  Tolerance :   5.0000e-09
  Last Orbital Gradient      ...    1.5573e-06  Tolerance :   1.0000e-05
  Last Orbital Rotation      ...    5.8057e-06  Tolerance :   1.0000e-05

             **** THE GBW FILE WAS UPDATED (Adamantyl_CMe2Cl.gbw) ****
             **** DENSITY FILE WAS UPDATED (Adamantyl_CMe2Cl.scfp.tmp) ****
             **** ENERGY FILE WAS UPDATED (Adamantyl_CMe2Cl.en.tmp) ****
----------------
ORBITAL ENERGIES
----------------

  NO   OCC          E(Eh)            E(eV) 
   0   2.0000    -104.800014     -2851.7534 
   1   2.0000     -11.303667      -307.5884 
   2   2.0000     -11.243195      -305.9429 
   3   2.0000     -11.221394      -305.3497 
   4   2.0000     -11.219822      -305.3069 
   5   2.0000     -11.219807      -305.3065 
   6   2.0000     -11.218049      -305.2586 
   7   2.0000     -11.217844      -305.2531 
   8   2.0000     -11.217833      -305.2527 
   9   2.0000     -11.210820      -305.0619 
  10   2.0000     -11.210793      -305.0612 
  11   2.0000     -11.209281      -305.0200 
  12   2.0000     -11.209267      -305.0197 
  13   2.0000     -11.208507      -304.9990 
  14   2.0000     -10.525656      -286.4177 
  15   2.0000      -7.992234      -217.4797 
  16   2.0000      -7.990767      -217.4398 
  17   2.0000      -7.990748      -217.4393 
  18   2.0000      -1.176865       -32.0241 
  19   2.0000      -1.134154       -30.8619 
  20   2.0000      -1.042825       -28.3767 
  21   2.0000      -1.039509       -28.2865 
  22   2.0000      -1.036812       -28.2131 
  23   2.0000      -1.000799       -27.2331 
  24   2.0000      -0.950025       -25.8515 
  25   2.0000      -0.912153       -24.8209 
  26   2.0000      -0.908282       -24.7156 
  27   2.0000      -0.832507       -22.6537 
  28   2.0000      -0.798631       -21.7318 
  29   2.0000      -0.797375       -21.6977 
  30   2.0000      -0.734279       -19.9808 
  31   2.0000      -0.709007       -19.2931 
  32   2.0000      -0.638318       -17.3695 
  33   2.0000      -0.624528       -16.9943 
  34   2.0000      -0.622241       -16.9320 
  35   2.0000      -0.621104       -16.9011 
  36   2.0000      -0.609399       -16.5826 
  37   2.0000      -0.594749       -16.1840 
  38   2.0000      -0.590866       -16.0783 
  39   2.0000      -0.569398       -15.4941 
  40   2.0000      -0.564747       -15.3675 
  41   2.0000      -0.559392       -15.2218 
  42   2.0000      -0.547885       -14.9087 
  43   2.0000      -0.544890       -14.8272 
  44   2.0000      -0.528370       -14.3777 
  45   2.0000      -0.509651       -13.8683 
  46   2.0000      -0.505743       -13.7620 
  47   2.0000      -0.486930       -13.2500 
  48   2.0000      -0.465937       -12.6788 
  49   2.0000      -0.462473       -12.5845 
  50   2.0000      -0.460710       -12.5366 
  51   2.0000      -0.456601       -12.4247 
  52   2.0000      -0.453069       -12.3286 
  53   2.0000      -0.428563       -11.6618 
  54   2.0000      -0.416657       -11.3378 
  55   2.0000      -0.405429       -11.0323 
  56   2.0000      -0.402529       -10.9534 
  57   2.0000      -0.401208       -10.9174 
  58   0.0000       0.124961         3.4004 
  59   0.0000       0.152309         4.1445 
  60   0.0000       0.156586         4.2609 
  61   0.0000       0.159635         4.3439 
  62   0.0000       0.172317         4.6890 
  63   0.0000       0.177552         4.8314 
  64   0.0000       0.180501         4.9117 
  65   0.0000       0.190129         5.1737 
  66   0.0000       0.196458         5.3459 
  67   0.0000       0.207722         5.6524 
  68   0.0000       0.209584         5.7031 
  69   0.0000       0.216272         5.8851 
  70   0.0000       0.221823         6.0361 
  71   0.0000       0.231769         6.3067 
  72   0.0000       0.232744         6.3333 
  73   0.0000       0.252716         6.8767 
  74   0.0000       0.254891         6.9359 
  75   0.0000       0.259962         7.0739 
  76   0.0000       0.267757         7.2860 
  77   0.0000       0.277533         7.5521 
  78   0.0000       0.289897         7.8885 
  79   0.0000       0.293538         7.9876 
  80   0.0000       0.294905         8.0248 
  81   0.0000       0.304536         8.2868 
  82   0.0000       0.322711         8.7814 
  83   0.0000       0.323888         8.8135 
  84   0.0000       0.343734         9.3535 
  85   0.0000       0.351600         9.5675 
  86   0.0000       0.356431         9.6990 
  87   0.0000       0.362194         9.8558 
  88   0.0000       0.365102         9.9349 
  89   0.0000       0.373951        10.1757 
  90   0.0000       0.385980        10.5030 
  91   0.0000       0.404519        11.0075 
  92   0.0000       0.408024        11.1029 
  93   0.0000       0.408405        11.1133 
  94   0.0000       0.419187        11.4067 
  95   0.0000       0.426219        11.5980 
  96   0.0000       0.428191        11.6517 
  97   0.0000       0.437544        11.9062 
  98   0.0000       0.447532        12.1780 
  99   0.0000       0.453734        12.3467 
 100   0.0000       0.455304        12.3894 
 101   0.0000       0.470120        12.7926 
 102   0.0000       0.475702        12.9445 
 103   0.0000       0.485253        13.2044 
 104   0.0000       0.490757        13.3542 
 105   0.0000       0.491953        13.3867 
 106   0.0000       0.512002        13.9323 
 107   0.0000       0.515458        14.0263 
 108   0.0000       0.537414        14.6238 
 109   0.0000       0.540983        14.7209 
 110   0.0000       0.556088        15.1319 
 111   0.0000       0.566759        15.4223 
 112   0.0000       0.568492        15.4695 
 113   0.0000       0.575199        15.6520 
 114   0.0000       0.577405        15.7120 
 115   0.0000       0.581765        15.8306 
 116   0.0000       0.591189        16.0871 
 117   0.0000       0.604657        16.4535 
 118   0.0000       0.608554        16.5596 
 119   0.0000       0.611672        16.6444 
 120   0.0000       0.612926        16.6786 
 121   0.0000       0.613268        16.6879 
 122   0.0000       0.615878        16.7589 
 123   0.0000       0.628197        17.0941 
 124   0.0000       0.628682        17.1073 
 125   0.0000       0.632996        17.2247 
 126   0.0000       0.636698        17.3254 
 127   0.0000       0.643004        17.4970 
 128   0.0000       0.646823        17.6010 
 129   0.0000       0.647640        17.6232 
 130   0.0000       0.653065        17.7708 
 131   0.0000       0.654082        17.7985 
 132   0.0000       0.663686        18.0598 
 133   0.0000       0.670323        18.2404 
 134   0.0000       0.675379        18.3780 
 135   0.0000       0.681442        18.5430 
 136   0.0000       0.683815        18.6075 
 137   0.0000       0.695510        18.9258 
 138   0.0000       0.699850        19.0439 
 139   0.0000       0.711177        19.3521 
 140   0.0000       0.716759        19.5040 
 141   0.0000       0.726485        19.7687 
 142   0.0000       0.727301        19.7909 
 143   0.0000       0.737992        20.0818 
 144   0.0000       0.738726        20.1017 
 145   0.0000       0.740357        20.1461 
 146   0.0000       0.751268        20.4431 
 147   0.0000       0.755467        20.5573 
 148   0.0000       0.761054        20.7093 
 149   0.0000       0.768836        20.9211 
 150   0.0000       0.771322        20.9887 
 151   0.0000       0.782653        21.2971 
 152   0.0000       0.783839        21.3293 
 153   0.0000       0.798487        21.7279 
 154   0.0000       0.818360        22.2687 
 155   0.0000       0.827840        22.5267 
 156   0.0000       0.828487        22.5443 
 157   0.0000       0.830338        22.5946 
 158   0.0000       0.879576        23.9345 
 159   0.0000       0.892814        24.2947 
 160   0.0000       0.911343        24.7989 
 161   0.0000       0.913437        24.8559 
 162   0.0000       0.919126        25.0107 
 163   0.0000       0.933502        25.4019 
 164   0.0000       0.943346        25.6697 
 165   0.0000       0.967714        26.3328 
 166   0.0000       0.990425        26.9508 
 167   0.0000       0.996273        27.1100 
 168   0.0000       1.013188        27.5703 
 169   0.0000       1.026745        27.9392 
 170   0.0000       1.041062        28.3287 
 171   0.0000       1.041338        28.3362 
 172   0.0000       1.047695        28.5092 
 173   0.0000       1.051343        28.6085 
 174   0.0000       1.055991        28.7350 
 175   0.0000       1.066841        29.0302 
 176   0.0000       1.072224        29.1767 
 177   0.0000       1.074386        29.2355 
 178   0.0000       1.078463        29.3465 
 179   0.0000       1.090621        29.6773 
 180   0.0000       1.095439        29.8084 
 181   0.0000       1.099116        29.9085 
 182   0.0000       1.102735        30.0069 
 183   0.0000       1.113918        30.3113 
 184   0.0000       1.136419        30.9235 
 185   0.0000       1.138818        30.9888 
 186   0.0000       1.151521        31.3345 
 187   0.0000       1.167259        31.7627 
 188   0.0000       1.168528        31.7973 
 189   0.0000       1.176203        32.0061 
 190   0.0000       1.184951        32.2442 
 191   0.0000       1.186611        32.2893 
 192   0.0000       1.192109        32.4389 
 193   0.0000       1.211132        32.9566 
 194   0.0000       1.220907        33.2226 
 195   0.0000       1.221183        33.2301 
 196   0.0000       1.228715        33.4350 
 197   0.0000       1.247656        33.9504 
 198   0.0000       1.255653        34.1681 
 199   0.0000       1.267992        34.5038 
 200   0.0000       1.280840        34.8534 
 201   0.0000       1.283041        34.9133 
 202   0.0000       1.287264        35.0282 
 203   0.0000       1.288754        35.0688 
 204   0.0000       1.295510        35.2526 
 205   0.0000       1.307024        35.5659 
 206   0.0000       1.321075        35.9483 
 207   0.0000       1.324110        36.0309 
 208   0.0000       1.325283        36.0628 
 209   0.0000       1.342438        36.5296 
 210   0.0000       1.344786        36.5935 
 211   0.0000       1.353656        36.8349 
 212   0.0000       1.367310        37.2064 
 213   0.0000       1.371544        37.3216 
 214   0.0000       1.373412        37.3724 
 215   0.0000       1.382650        37.6238 
 216   0.0000       1.389858        37.8200 
 217   0.0000       1.398806        38.0634 
 218   0.0000       1.400177        38.1008 
 219   0.0000       1.407902        38.3110 
 220   0.0000       1.418336        38.5949 
 221   0.0000       1.419315        38.6215 
 222   0.0000       1.423662        38.7398 
 223   0.0000       1.427029        38.8314 
 224   0.0000       1.438935        39.1554 
 225   0.0000       1.448910        39.4268 
 226   0.0000       1.453752        39.5586 
 227   0.0000       1.462009        39.7833 
 228   0.0000       1.474293        40.1175 
 229   0.0000       1.485024        40.4096 
 230   0.0000       1.486049        40.4375 
 231   0.0000       1.496742        40.7284 
 232   0.0000       1.500306        40.8254 
 233   0.0000       1.503744        40.9190 
 234   0.0000       1.506757        41.0010 
 235   0.0000       1.509614        41.0787 
 236   0.0000       1.521569        41.4040 
 237   0.0000       1.524979        41.4968 
 238   0.0000       1.530524        41.6477 
 239   0.0000       1.534222        41.7483 
 240   0.0000       1.550402        42.1886 
 241   0.0000       1.555318        42.3224 
 242   0.0000       1.557736        42.3882 
 243   0.0000       1.560965        42.4760 
 244   0.0000       1.561547        42.4919 
 245   0.0000       1.589663        43.2569 
 246   0.0000       1.600142        43.5421 
 247   0.0000       1.609701        43.8022 
 248   0.0000       1.621094        44.1122 
 249   0.0000       1.626134        44.2494 
 250   0.0000       1.628649        44.3178 
 251   0.0000       1.639848        44.6225 
 252   0.0000       1.650937        44.9243 
 253   0.0000       1.666343        45.3435 
 254   0.0000       1.668648        45.4062 
 255   0.0000       1.679773        45.7089 
 256   0.0000       1.687798        45.9273 
 257   0.0000       1.700712        46.2787 
 258   0.0000       1.703818        46.3632 
 259   0.0000       1.707433        46.4616 
 260   0.0000       1.717458        46.7344 
 261   0.0000       1.724524        46.9267 
 262   0.0000       1.744972        47.4831 
 263   0.0000       1.745666        47.5020 
 264   0.0000       1.745921        47.5089 
 265   0.0000       1.760535        47.9066 
 266   0.0000       1.768208        48.1154 
 267   0.0000       1.776115        48.3306 
 268   0.0000       1.776292        48.3354 
 269   0.0000       1.788490        48.6673 
 270   0.0000       1.791246        48.7423 
 271   0.0000       1.801408        49.0188 
 272   0.0000       1.804654        49.1071 
 273   0.0000       1.813624        49.3512 
 274   0.0000       1.817097        49.4457 
 275   0.0000       1.824791        49.6551 
 276   0.0000       1.828259        49.7495 
 277   0.0000       1.854426        50.4615 
 278   0.0000       1.854513        50.4639 
 279   0.0000       1.866065        50.7782 
 280   0.0000       1.882128        51.2153 
 281   0.0000       1.902659        51.7740 
 282   0.0000       1.906816        51.8871 
 283   0.0000       1.928660        52.4815 
 284   0.0000       1.930354        52.5276 
 285   0.0000       1.937992        52.7354 
 286   0.0000       1.953556        53.1590 
 287   0.0000       1.960415        53.3456 
 288   0.0000       1.978831        53.8467 
 289   0.0000       1.989353        54.1330 
 290   0.0000       1.994066        54.2613 
 291   0.0000       2.000290        54.4307 
 292   0.0000       2.021881        55.0182 
 293   0.0000       2.036873        55.4261 
 294   0.0000       2.050227        55.7895 
 295   0.0000       2.069939        56.3259 
 296   0.0000       2.082472        56.6669 
 297   0.0000       2.092349        56.9357 
 298   0.0000       2.134524        58.0834 
 299   0.0000       2.194663        59.7198 
 300   0.0000       2.196025        59.7569 
 301   0.0000       2.236279        60.8522 
 302   0.0000       2.289072        62.2888 
 303   0.0000       2.323137        63.2158 
 304   0.0000       2.325471        63.2793 
 305   0.0000       2.344283        63.7912 
 306   0.0000       2.379098        64.7385 
 307   0.0000       2.383173        64.8494 
 308   0.0000       2.425952        66.0135 
 309   0.0000       2.468056        67.1592 
 310   0.0000       2.475403        67.3591 
 311   0.0000       2.478197        67.4352 
 312   0.0000       2.530646        68.8624 
 313   0.0000       2.536070        69.0100 
 314   0.0000       2.544899        69.2502 
 315   0.0000       2.561336        69.6975 
 316   0.0000       2.601617        70.7936 
 317   0.0000       2.607278        70.9476 
 318   0.0000       2.658751        72.3483 
 319   0.0000       2.679693        72.9182 
 320   0.0000       2.691409        73.2370 
 321   0.0000       2.707497        73.6747 
 322   0.0000       2.711450        73.7823 
 323   0.0000       2.715515        73.8929 
 324   0.0000       2.730242        74.2937 
 325   0.0000       2.740570        74.5747 
 326   0.0000       2.770508        75.3894 
 327   0.0000       2.778813        75.6154 
 328   0.0000       2.781599        75.6912 
 329   0.0000       2.792933        75.9996 
 330   0.0000       2.795368        76.0658 
 331   0.0000       2.796668        76.1012 
 332   0.0000       2.799602        76.1810 
 333   0.0000       2.807533        76.3968 
 334   0.0000       2.826788        76.9208 
 335   0.0000       2.846823        77.4660 
 336   0.0000       2.854770        77.6822 
 337   0.0000       2.871652        78.1416 
 338   0.0000       2.876557        78.2751 
 339   0.0000       2.881357        78.4057 
 340   0.0000       2.881734        78.4160 
 341   0.0000       2.887347        78.5687 
 342   0.0000       2.889135        78.6174 
 343   0.0000       2.901510        78.9541 
 344   0.0000       2.904025        79.0225 
 345   0.0000       2.911432        79.2241 
 346   0.0000       2.914612        79.3106 
 347   0.0000       2.914738        79.3141 
 348   0.0000       2.930975        79.7559 
 349   0.0000       2.936213        79.8984 
 350   0.0000       2.949049        80.2477 
 351   0.0000       2.956040        80.4379 
 352   0.0000       2.961257        80.5799 
 353   0.0000       2.972129        80.8757 
 354   0.0000       2.981947        81.1429 
 355   0.0000       2.996685        81.5439 
 356   0.0000       2.999680        81.6254 
 357   0.0000       3.014883        82.0391 
 358   0.0000       3.020475        82.1913 
 359   0.0000       3.025993        82.3414 
 360   0.0000       3.038589        82.6842 
 361   0.0000       3.049829        82.9901 
 362   0.0000       3.052846        83.0721 
 363   0.0000       3.061929        83.3193 
 364   0.0000       3.075010        83.6753 
 365   0.0000       3.087029        84.0023 
 366   0.0000       3.090740        84.1033 
 367   0.0000       3.096456        84.2589 
 368   0.0000       3.112547        84.6967 
 369   0.0000       3.115284        84.7712 
 370   0.0000       3.116156        84.7949 
 371   0.0000       3.125482        85.0487 
 372   0.0000       3.128420        85.1286 
 373   0.0000       3.141597        85.4872 
 374   0.0000       3.145770        85.6008 
 375   0.0000       3.149097        85.6913 
 376   0.0000       3.163253        86.0765 
 377   0.0000       3.169882        86.2569 
 378   0.0000       3.172836        86.3373 
 379   0.0000       3.193503        86.8996 
 380   0.0000       3.195226        86.9465 
 381   0.0000       3.206181        87.2446 
 382   0.0000       3.224632        87.7467 
 383   0.0000       3.235059        88.0304 
 384   0.0000       3.249217        88.4157 
 385   0.0000       3.257622        88.6444 
 386   0.0000       3.274208        89.0957 
 387   0.0000       3.288005        89.4712 
 388   0.0000       3.290403        89.5364 
 389   0.0000       3.310030        90.0705 
 390   0.0000       3.321064        90.3707 
 391   0.0000       3.324797        90.4723 
 392   0.0000       3.329679        90.6052 
 393   0.0000       3.331084        90.6434 
 394   0.0000       3.340379        90.8963 
 395   0.0000       3.351394        91.1961 
 396   0.0000       3.352067        91.2144 
 397   0.0000       3.361868        91.4811 
 398   0.0000       3.376775        91.8867 
 399   0.0000       3.378422        91.9315 
 400   0.0000       3.391551        92.2888 
 401   0.0000       3.392699        92.3200 
 402   0.0000       3.412699        92.8643 
 403   0.0000       3.413102        92.8752 
 404   0.0000       3.428379        93.2909 
 405   0.0000       3.436881        93.5223 
 406   0.0000       3.441215        93.6402 
 407   0.0000       3.442544        93.6764 
 408   0.0000       3.444481        93.7291 
 409   0.0000       3.454062        93.9898 
 410   0.0000       3.459568        94.1396 
 411   0.0000       3.466148        94.3187 
 412   0.0000       3.472186        94.4830 
 413   0.0000       3.472828        94.5005 
 414   0.0000       3.480242        94.7022 
 415   0.0000       3.481886        94.7469 
 416   0.0000       3.497039        95.1593 
 417   0.0000       3.500378        95.2501 
 418   0.0000       3.514743        95.6410 
 419   0.0000       3.515476        95.6610 
 420   0.0000       3.519206        95.7625 
 421   0.0000       3.528311        96.0102 
 422   0.0000       3.529385        96.0395 
 423   0.0000       3.533085        96.1401 
 424   0.0000       3.535078        96.1944 
 425   0.0000       3.544706        96.4564 
 426   0.0000       3.555736        96.7565 
 427   0.0000       3.559054        96.8468 
 428   0.0000       3.565788        97.0300 
 429   0.0000       3.584145        97.5295 
 430   0.0000       3.587916        97.6321 
 431   0.0000       3.593954        97.7965 
 432   0.0000       3.616817        98.4186 
 433   0.0000       3.631259        98.8116 
 434   0.0000       3.646169        99.2173 
 435   0.0000       3.651254        99.3557 
 436   0.0000       3.669437        99.8505 
 437   0.0000       3.669876        99.8624 
 438   0.0000       3.682336       100.2015 
 439   0.0000       3.682614       100.2090 
 440   0.0000       3.701221       100.7153 
 441   0.0000       3.701262       100.7165 
 442   0.0000       3.715890       101.1145 
 443   0.0000       3.718562       101.1872 
 444   0.0000       3.728583       101.4599 
 445   0.0000       3.729851       101.4944 
 446   0.0000       3.737681       101.7075 
 447   0.0000       3.743111       101.8552 
 448   0.0000       3.744264       101.8866 
 449   0.0000       3.759987       102.3144 
 450   0.0000       3.773848       102.6916 
 451   0.0000       3.784000       102.9679 
 452   0.0000       3.784191       102.9731 
 453   0.0000       3.795736       103.2872 
 454   0.0000       3.798028       103.3496 
 455   0.0000       3.810223       103.6814 
 456   0.0000       3.821487       103.9879 
 457   0.0000       3.831541       104.2615 
 458   0.0000       3.832192       104.2793 
 459   0.0000       3.836514       104.3969 
 460   0.0000       3.851483       104.8042 
 461   0.0000       3.862187       105.0954 
 462   0.0000       3.876094       105.4739 
 463   0.0000       3.877503       105.5122 
 464   0.0000       3.885539       105.7309 
 465   0.0000       3.897383       106.0532 
 466   0.0000       3.901955       106.1776 
 467   0.0000       3.912464       106.4635 
 468   0.0000       3.913532       106.4926 
 469   0.0000       3.915335       106.5417 
 470   0.0000       3.924914       106.8023 
 471   0.0000       3.929777       106.9347 
 472   0.0000       3.929975       106.9401 
 473   0.0000       3.933945       107.0481 
 474   0.0000       3.939087       107.1880 
 475   0.0000       3.945750       107.3693 
 476   0.0000       3.951686       107.5309 
 477   0.0000       3.952977       107.5660 
 478   0.0000       3.980113       108.3044 
 479   0.0000       3.993518       108.6692 
 480   0.0000       3.998893       108.8154 
 481   0.0000       3.999534       108.8328 
 482   0.0000       4.003034       108.9281 
 483   0.0000       4.005854       109.0048 
 484   0.0000       4.020094       109.3923 
 485   0.0000       4.022470       109.4570 
 486   0.0000       4.027018       109.5807 
 487   0.0000       4.032180       109.7212 
 488   0.0000       4.033018       109.7440 
 489   0.0000       4.042844       110.0114 
 490   0.0000       4.044620       110.0597 
 491   0.0000       4.057807       110.4186 
 492   0.0000       4.059280       110.4586 
 493   0.0000       4.072360       110.8145 
 494   0.0000       4.077917       110.9658 
 495   0.0000       4.081384       111.0601 
 496   0.0000       4.087533       111.2274 
 497   0.0000       4.096993       111.4849 
 498   0.0000       4.108286       111.7922 
 499   0.0000       4.134822       112.5142 
 500   0.0000       4.144496       112.7775 
 501   0.0000       4.148675       112.8912 
 502   0.0000       4.160285       113.2071 
 503   0.0000       4.164851       113.3314 
 504   0.0000       4.165165       113.3399 
 505   0.0000       4.192057       114.0717 
 506   0.0000       4.201899       114.3395 
 507   0.0000       4.208797       114.5272 
 508   0.0000       4.213045       114.6428 
 509   0.0000       4.215790       114.7175 
 510   0.0000       4.238809       115.3438 
 511   0.0000       4.248349       115.6034 
 512   0.0000       4.258242       115.8726 
 513   0.0000       4.277074       116.3851 
 514   0.0000       4.281197       116.4973 
 515   0.0000       4.295368       116.8829 
 516   0.0000       4.310505       117.2948 
 517   0.0000       4.312146       117.3395 
 518   0.0000       4.323710       117.6541 
 519   0.0000       4.347512       118.3018 
 520   0.0000       4.348265       118.3223 
 521   0.0000       4.356881       118.5568 
 522   0.0000       4.361424       118.6804 
 523   0.0000       4.369918       118.9115 
 524   0.0000       4.372671       118.9864 
 525   0.0000       4.375941       119.0754 
 526   0.0000       4.383874       119.2913 
 527   0.0000       4.400512       119.7440 
 528   0.0000       4.406400       119.9042 
 529   0.0000       4.411776       120.0505 
 530   0.0000       4.418952       120.2458 
 531   0.0000       4.420483       120.2875 
 532   0.0000       4.425672       120.4287 
 533   0.0000       4.433400       120.6390 
 534   0.0000       4.443728       120.9200 
 535   0.0000       4.444926       120.9526 
 536   0.0000       4.449840       121.0863 
 537   0.0000       4.453820       121.1946 
 538   0.0000       4.465696       121.5178 
 539   0.0000       4.473537       121.7311 
 540   0.0000       4.479571       121.8953 
 541   0.0000       4.482309       121.9698 
 542   0.0000       4.491192       122.2115 
 543   0.0000       4.497021       122.3702 
 544   0.0000       4.506420       122.6259 
 545   0.0000       4.513846       122.8280 
 546   0.0000       4.523630       123.0942 
 547   0.0000       4.542362       123.6040 
 548   0.0000       4.543962       123.6475 
 549   0.0000       4.554997       123.9478 
 550   0.0000       4.562277       124.1459 
 551   0.0000       4.563849       124.1886 
 552   0.0000       4.572673       124.4288 
 553   0.0000       4.576146       124.5233 
 554   0.0000       4.581503       124.6690 
 555   0.0000       4.590955       124.9262 
 556   0.0000       4.591441       124.9395 
 557   0.0000       4.597939       125.1163 
 558   0.0000       4.605028       125.3092 
 559   0.0000       4.609451       125.4295 
 560   0.0000       4.610804       125.4664 
 561   0.0000       4.617276       125.6425 
 562   0.0000       4.619771       125.7104 
 563   0.0000       4.630947       126.0145 
 564   0.0000       4.631430       126.0276 
 565   0.0000       4.644720       126.3892 
 566   0.0000       4.662270       126.8668 
 567   0.0000       4.673856       127.1821 
 568   0.0000       4.682387       127.4142 
 569   0.0000       4.692864       127.6993 
 570   0.0000       4.707381       128.0944 
 571   0.0000       4.716580       128.3447 
 572   0.0000       4.723300       128.5275 
 573   0.0000       4.725265       128.5810 
 574   0.0000       4.741533       129.0237 
 575   0.0000       4.743267       129.0708 
 576   0.0000       4.744274       129.0983 
 577   0.0000       4.750235       129.2605 
 578   0.0000       4.762932       129.6060 
 579   0.0000       4.768047       129.7451 
 580   0.0000       4.790011       130.3428 
 581   0.0000       4.790497       130.3561 
 582   0.0000       4.796516       130.5198 
 583   0.0000       4.812486       130.9544 
 584   0.0000       4.836304       131.6025 
 585   0.0000       4.868871       132.4887 
 586   0.0000       4.885490       132.9409 
 587   0.0000       4.891537       133.1055 
 588   0.0000       4.893148       133.1493 
 589   0.0000       4.898428       133.2930 
 590   0.0000       4.910100       133.6106 
 591   0.0000       4.919366       133.8628 
 592   0.0000       4.936418       134.3268 
 593   0.0000       4.943795       134.5275 
 594   0.0000       4.947497       134.6282 
 595   0.0000       4.952573       134.7664 
 596   0.0000       4.990200       135.7902 
 597   0.0000       5.007753       136.2679 
 598   0.0000       5.008753       136.2951 
 599   0.0000       5.028100       136.8216 
 600   0.0000       5.035250       137.0161 
 601   0.0000       5.044278       137.2618 
 602   0.0000       5.049903       137.4149 
 603   0.0000       5.056318       137.5894 
 604   0.0000       5.077528       138.1666 
 605   0.0000       5.093439       138.5995 
 606   0.0000       5.096126       138.6726 
 607   0.0000       5.120598       139.3385 
 608   0.0000       5.132497       139.6623 
 609   0.0000       5.134330       139.7122 
 610   0.0000       5.137230       139.7911 
 611   0.0000       5.142752       139.9414 
 612   0.0000       5.188431       141.1844 
 613   0.0000       5.198824       141.4672 
 614   0.0000       5.230074       142.3175 
 615   0.0000       5.236439       142.4908 
 616   0.0000       5.240571       142.6032 
 617   0.0000       5.254620       142.9855 
 618   0.0000       5.259221       143.1107 
 619   0.0000       5.279031       143.6497 
 620   0.0000       5.281212       143.7091 
 621   0.0000       5.284442       143.7970 
 622   0.0000       5.297151       144.1428 
 623   0.0000       5.307191       144.4160 
 624   0.0000       5.313363       144.5840 
 625   0.0000       5.320715       144.7840 
 626   0.0000       5.322895       144.8433 
 627   0.0000       5.323736       144.8662 
 628   0.0000       5.334340       145.1548 
 629   0.0000       5.351662       145.6261 
 630   0.0000       5.355896       145.7413 
 631   0.0000       5.371504       146.1661 
 632   0.0000       5.376507       146.3022 
 633   0.0000       5.390845       146.6923 
 634   0.0000       5.439982       148.0294 
 635   0.0000       5.463171       148.6604 
 636   0.0000       5.474335       148.9642 
 637   0.0000       5.480529       149.1328 
 638   0.0000       5.486199       149.2871 
 639   0.0000       5.493706       149.4913 
 640   0.0000       5.494030       149.5001 
 641   0.0000       5.512058       149.9907 
 642   0.0000       5.524324       150.3245 
 643   0.0000       5.530061       150.4806 
 644   0.0000       5.532876       150.5572 
 645   0.0000       5.540684       150.7697 
 646   0.0000       5.547382       150.9520 
 647   0.0000       5.557425       151.2252 
 648   0.0000       5.568766       151.5338 
 649   0.0000       5.576109       151.7336 
 650   0.0000       5.584784       151.9697 
 651   0.0000       5.613066       152.7393 
 652   0.0000       5.614708       152.7840 
 653   0.0000       5.632101       153.2573 
 654   0.0000       5.635890       153.3604 
 655   0.0000       5.642820       153.5489 
 656   0.0000       5.661899       154.0681 
 657   0.0000       5.670624       154.3055 
 658   0.0000       5.718930       155.6200 
 659   0.0000       5.729675       155.9124 
 660   0.0000       5.731616       155.9652 
 661   0.0000       5.739349       156.1756 
 662   0.0000       5.744650       156.3199 
 663   0.0000       5.757793       156.6775 
 664   0.0000       5.764743       156.8666 
 665   0.0000       5.767106       156.9309 
 666   0.0000       5.770541       157.0244 
 667   0.0000       5.771549       157.0518 
 668   0.0000       5.795997       157.7171 
 669   0.0000       5.814871       158.2307 
 670   0.0000       5.824796       158.5008 
 671   0.0000       5.844910       159.0481 
 672   0.0000       5.848560       159.1474 
 673   0.0000       5.865859       159.6181 
 674   0.0000       5.870295       159.7388 
 675   0.0000       5.876652       159.9118 
 676   0.0000       5.880329       160.0119 
 677   0.0000       5.893657       160.3746 
 678   0.0000       5.927703       161.3010 
 679   0.0000       5.932014       161.4183 
 680   0.0000       5.941898       161.6873 
 681   0.0000       5.943593       161.7334 
 682   0.0000       5.957714       162.1176 
 683   0.0000       5.959252       162.1595 
 684   0.0000       5.990411       163.0074 
 685   0.0000       6.109940       166.2599 
 686   0.0000       6.123327       166.6242 
 687   0.0000       6.151522       167.3914 
 688   0.0000       6.163914       167.7286 
 689   0.0000       6.169719       167.8866 
 690   0.0000       6.225065       169.3926 
 691   0.0000       6.283891       170.9934 
 692   0.0000       6.354420       172.9125 
 693   0.0000       6.355269       172.9356 
 694   0.0000       6.373145       173.4221 
 695   0.0000       6.380176       173.6134 
 696   0.0000       6.415951       174.5869 
 697   0.0000       6.445464       175.3900 
 698   0.0000       6.455083       175.6517 
 699   0.0000       6.513606       177.2442 
 700   0.0000       6.535979       177.8530 
 701   0.0000       6.538707       177.9273 
 702   0.0000       6.566224       178.6760 
 703   0.0000       6.594100       179.4346 
 704   0.0000       6.607597       179.8019 
 705   0.0000      10.552049       287.1358 
 706   0.0000      12.031723       327.3998 
 707   0.0000      12.769149       347.4662 
 708   0.0000      12.779528       347.7486 
 709   0.0000      12.899454       351.0120 
 710   0.0000      13.740370       373.8945 
 711   0.0000      13.992108       380.7446 
 712   0.0000      14.005698       381.1144 
 713   0.0000      14.145781       384.9263 
 714   0.0000      14.162681       385.3861 
 715   0.0000      14.298407       389.0794 
 716   0.0000      14.631890       398.1540 
 717   0.0000      14.677379       399.3918 

                    ********************************
                    * MULLIKEN POPULATION ANALYSIS *
                    ********************************

-----------------------
MULLIKEN ATOMIC CHARGES
-----------------------
   0 C :   -0.232707
   1 C :   -0.088864
   2 C :   -0.244537
   3 C :   -0.088852
   4 C :   -0.244572
   5 C :    0.010739
   6 C :   -0.234177
   7 C :   -0.088328
   8 C :   -0.260418
   9 C :   -0.234180
  10 C :    0.123193
  11 C :   -0.302379
  12 C :   -0.302370
  13 Cl:   -0.272023
  14 H :    0.108559
  15 H :    0.110497
  16 H :    0.114747
  17 H :    0.142008
  18 H :    0.114415
  19 H :    0.114761
  20 H :    0.114429
  21 H :    0.141963
  22 H :    0.106941
  23 H :    0.110103
  24 H :    0.114816
  25 H :    0.122783
  26 H :    0.122847
  27 H :    0.110107
  28 H :    0.106956
  29 H :    0.126577
  30 H :    0.122742
  31 H :    0.102455
  32 H :    0.126568
  33 H :    0.102436
  34 H :    0.122762
Sum of atomic charges:    0.0000000

--------------------------------
MULLIKEN REDUCED ORBITAL CHARGES
--------------------------------
  0 C s       :     3.218698  s :     3.218698
      pz      :     0.886189  p :     2.887192
      px      :     1.027975
      py      :     0.973028
      dz2     :     0.031960  d :     0.119670
      dxz     :     0.016783
      dyz     :     0.022224
      dx2y2   :     0.030372
      dxy     :     0.018331
      f0      :     0.001143  f :     0.007147
      f+1     :     0.000853
      f-1     :     0.001669
      f+2     :     0.001052
      f-2     :     0.000987
      f+3     :     0.001043
      f-3     :     0.000400
  1 C s       :     3.171371  s :     3.171371
      pz      :     0.982786  p :     2.774482
      px      :     0.879613
      py      :     0.912083
      dz2     :     0.027851  d :     0.134363
      dxz     :     0.019627
      dyz     :     0.033113
      dx2y2   :     0.028288
      dxy     :     0.025485
      f0      :     0.001234  f :     0.008648
      f+1     :     0.000992
      f-1     :     0.001599
      f+2     :     0.001084
      f-2     :     0.000778
      f+3     :     0.001492
      f-3     :     0.001469
  2 C s       :     3.213201  s :     3.213201
      pz      :     0.942754  p :     2.897896
      px      :     0.918736
      py      :     1.036406
      dz2     :     0.029514  d :     0.126174
      dxz     :     0.020897
      dyz     :     0.023858
      dx2y2   :     0.023550
      dxy     :     0.028356
      f0      :     0.001001  f :     0.007267
      f+1     :     0.000850
      f-1     :     0.001516
      f+2     :     0.000959
      f-2     :     0.000642
      f+3     :     0.001321
      f-3     :     0.000979
  3 C s       :     3.171344  s :     3.171344
      pz      :     0.982857  p :     2.774494
      px      :     0.879611
      py      :     0.912026
      dz2     :     0.027857  d :     0.134366
      dxz     :     0.019625
      dyz     :     0.033109
      dx2y2   :     0.028289
      dxy     :     0.025485
      f0      :     0.001234  f :     0.008648
      f+1     :     0.000992
      f-1     :     0.001599
      f+2     :     0.001084
      f-2     :     0.000778
      f+3     :     0.001492
      f-3     :     0.001469
  4 C s       :     3.213220  s :     3.213220
      pz      :     0.942721  p :     2.897911
      px      :     0.918753
      py      :     1.036437
      dz2     :     0.029505  d :     0.126174
      dxz     :     0.020901
      dyz     :     0.023870
      dx2y2   :     0.023544
      dxy     :     0.028355
      f0      :     0.001001  f :     0.007267
      f+1     :     0.000850
      f-1     :     0.001516
      f+2     :     0.000959
      f-2     :     0.000641
      f+3     :     0.001321
      f-3     :     0.000979
  5 C s       :     3.159520  s :     3.159520
      pz      :     0.936502  p :     2.660675
      px      :     0.798549
      py      :     0.925624
      dz2     :     0.034623  d :     0.158800
      dxz     :     0.026598
      dyz     :     0.033471
      dx2y2   :     0.036489
      dxy     :     0.027620
      f0      :     0.001564  f :     0.010266
      f+1     :     0.001343
      f-1     :     0.001631
      f+2     :     0.001422
      f-2     :     0.001229
      f+3     :     0.001558
      f-3     :     0.001519
  6 C s       :     3.219425  s :     3.219425
      pz      :     0.955525  p :     2.888020
      px      :     1.012252
      py      :     0.920244
      dz2     :     0.027777  d :     0.119575
      dxz     :     0.011327
      dyz     :     0.031170
      dx2y2   :     0.032186
      dxy     :     0.017116
      f0      :     0.000999  f :     0.007156
      f+1     :     0.000876
      f-1     :     0.001536
      f+2     :     0.000725
      f-2     :     0.000764
      f+3     :     0.001293
      f-3     :     0.000962
  7 C s       :     3.171820  s :     3.171820
      pz      :     0.878674  p :     2.773338
      px      :     0.891688
      py      :     1.002977
      dz2     :     0.032317  d :     0.134545
      dxz     :     0.021719
      dyz     :     0.024786
      dx2y2   :     0.029622
      dxy     :     0.026102
      f0      :     0.001376  f :     0.008625
      f+1     :     0.001015
      f-1     :     0.001729
      f+2     :     0.001302
      f-2     :     0.000906
      f+3     :     0.001307
      f-3     :     0.000992
  8 C s       :     3.207896  s :     3.207896
      pz      :     1.060342  p :     2.917823
      px      :     0.927154
      py      :     0.930328
      dz2     :     0.018391  d :     0.127499
      dxz     :     0.019821
      dyz     :     0.038857
      dx2y2   :     0.025028
      dxy     :     0.025403
      f0      :     0.000700  f :     0.007200
      f+1     :     0.000882
      f-1     :     0.001385
      f+2     :     0.000823
      f-2     :     0.000522
      f+3     :     0.001418
      f-3     :     0.001470
  9 C s       :     3.219425  s :     3.219425
      pz      :     0.955503  p :     2.888021
      px      :     1.012242
      py      :     0.920276
      dz2     :     0.027767  d :     0.119578
      dxz     :     0.011330
      dyz     :     0.031181
      dx2y2   :     0.032186
      dxy     :     0.017113
      f0      :     0.000999  f :     0.007156
      f+1     :     0.000877
      f-1     :     0.001536
      f+2     :     0.000725
      f-2     :     0.000764
      f+3     :     0.001293
      f-3     :     0.000962
 10 C s       :     3.167995  s :     3.167995
      pz      :     0.948171  p :     2.509000
      px      :     0.866456
      py      :     0.694374
      dz2     :     0.038615  d :     0.189232
      dxz     :     0.033441
      dyz     :     0.034998
      dx2y2   :     0.040473
      dxy     :     0.041705
      f0      :     0.001663  f :     0.010580
      f+1     :     0.001492
      f-1     :     0.001560
      f+2     :     0.001368
      f-2     :     0.001278
      f+3     :     0.001551
      f-3     :     0.001669
 11 C s       :     3.264599  s :     3.264599
      pz      :     0.939984  p :     2.941435
      px      :     1.032789
      py      :     0.968662
      dz2     :     0.027525  d :     0.091162
      dxz     :     0.010569
      dyz     :     0.018301
      dx2y2   :     0.024132
      dxy     :     0.010636
      f0      :     0.000786  f :     0.005183
      f+1     :     0.000656
      f-1     :     0.001486
      f+2     :     0.000496
      f-2     :     0.000599
      f+3     :     0.000986
      f-3     :     0.000174
 12 C s       :     3.264596  s :     3.264596
      pz      :     0.939993  p :     2.941428
      px      :     1.032778
      py      :     0.968657
      dz2     :     0.027526  d :     0.091163
      dxz     :     0.010568
      dyz     :     0.018303
      dx2y2   :     0.024129
      dxy     :     0.010638
      f0      :     0.000786  f :     0.005183
      f+1     :     0.000656
      f-1     :     0.001486
      f+2     :     0.000496
      f-2     :     0.000599
      f+3     :     0.000986
      f-3     :     0.000174
 13 Cls       :     5.942692  s :     5.942692
      pz      :     3.970660  p :    11.278622
      px      :     3.825434
      py      :     3.482528
      dz2     :     0.007927  d :     0.046625
      dxz     :     0.001773
      dyz     :     0.006570
      dx2y2   :     0.012231
      dxy     :     0.018124
      f0      :     0.000334  f :     0.004085
      f+1     :     0.000246
      f-1     :     0.000695
      f+2     :     0.000323
      f-2     :     0.000290
      f+3     :     0.001409
      f-3     :     0.000787
 14 H s       :     0.859166  s :     0.859166
      pz      :     0.009615  p :     0.029751
      px      :     0.011013
      py      :     0.009123
      dz2     :     0.000171  d :     0.002525
      dxz     :     0.000997
      dyz     :     0.000095
      dx2y2   :     0.000458
      dxy     :     0.000804
 15 H s       :     0.857481  s :     0.857481
      pz      :     0.009304  p :     0.029506
      px      :     0.006723
      py      :     0.013479
      dz2     :     0.000173  d :     0.002515
      dxz     :     0.000109
      dyz     :     0.000970
      dx2y2   :     0.000777
      dxy     :     0.000486
 16 H s       :     0.848692  s :     0.848692
      pz      :     0.012429  p :     0.033635
      px      :     0.010295
      py      :     0.010911
      dz2     :     0.000950  d :     0.002926
      dxz     :     0.000621
      dyz     :     0.000629
      dx2y2   :     0.000411
      dxy     :     0.000315
 17 H s       :     0.826068  s :     0.826068
      pz      :     0.008438  p :     0.029385
      px      :     0.011219
      py      :     0.009728
      dz2     :     0.000181  d :     0.002538
      dxz     :     0.000134
      dyz     :     0.000730
      dx2y2   :     0.000840
      dxy     :     0.000653
 18 H s       :     0.852489  s :     0.852489
      pz      :     0.012763  p :     0.030524
      px      :     0.010898
      py      :     0.006863
      dz2     :     0.000955  d :     0.002572
      dxz     :     0.000634
      dyz     :     0.000449
      dx2y2   :     0.000260
      dxy     :     0.000274
 19 H s       :     0.848674  s :     0.848674
      pz      :     0.012431  p :     0.033638
      px      :     0.010296
      py      :     0.010911
      dz2     :     0.000950  d :     0.002927
      dxz     :     0.000622
      dyz     :     0.000630
      dx2y2   :     0.000411
      dxy     :     0.000315
 20 H s       :     0.852474  s :     0.852474
      pz      :     0.012764  p :     0.030526
      px      :     0.010899
      py      :     0.006863
      dz2     :     0.000955  d :     0.002572
      dxz     :     0.000634
      dyz     :     0.000449
      dx2y2   :     0.000260
      dxy     :     0.000274
 21 H s       :     0.826118  s :     0.826118
      pz      :     0.008439  p :     0.029381
      px      :     0.011216
      py      :     0.009725
      dz2     :     0.000181  d :     0.002538
      dxz     :     0.000134
      dyz     :     0.000730
      dx2y2   :     0.000840
      dxy     :     0.000653
 22 H s       :     0.861160  s :     0.861160
      pz      :     0.012214  p :     0.029390
      px      :     0.007084
      py      :     0.010092
      dz2     :     0.000921  d :     0.002509
      dxz     :     0.000431
      dyz     :     0.000628
      dx2y2   :     0.000335
      dxy     :     0.000195
 23 H s       :     0.857676  s :     0.857676
      pz      :     0.008658  p :     0.029694
      px      :     0.012027
      py      :     0.009009
      dz2     :     0.000188  d :     0.002526
      dxz     :     0.000807
      dyz     :     0.000051
      dx2y2   :     0.000512
      dxy     :     0.000967
 24 H s       :     0.848691  s :     0.848691
      pz      :     0.009848  p :     0.033571
      px      :     0.010858
      py      :     0.012864
      dz2     :     0.000209  d :     0.002923
      dxz     :     0.000134
      dyz     :     0.000984
      dx2y2   :     0.000912
      dxy     :     0.000685
 25 H s       :     0.844672  s :     0.844672
      pz      :     0.007857  p :     0.029988
      px      :     0.010380
      py      :     0.011751
      dz2     :     0.000602  d :     0.002557
      dxz     :     0.000588
      dyz     :     0.000604
      dx2y2   :     0.000421
      dxy     :     0.000344
 26 H s       :     0.844605  s :     0.844605
      pz      :     0.007852  p :     0.029990
      px      :     0.010383
      py      :     0.011755
[...]
Total time for the integral transformation: 5.4 sec
--------------------------------
INITIAL GUESS AND PNO GENERATION
--------------------------------

PNO truncation parameters                   .... 
    ScaleTCutPNO       =        1.000e-02
    PAOOverlapThresh   =        1.000e-08

    TCutPairs          =        1.000e-05
    TCutPNO            =        1.000e-07
    TCutPNOSingles     =        3.000e-09
    TCutMP2Pairs       =        1.000e-06
    TCutMKN            =        1.000e-03
    TCutDO             =        5.000e-03

Pair selection                          .... not used
Type of local MP2 treatment                 .... full local PMP2
Strategy for PNO selection                  .... occupation number selection
Pair density normalization                  .... MP2 norm
Spin component scaling                      .... not used

PASS-1: Formation of initial guess LMP2 amplitudes
Initial amplitudes guess done. Entering LMP2 iteration loop:
   Max. no of iterations          ...  50
   Energy convergence tolerance   ...    1.0e-07
   Residual convergence tolerance ...    5.0e-07
   Fock matrix cutoff             ...    1.0e-05 Eh
   DIIS convergence acceleration parameters:
        Max # vectors in DIIS     ... 7
        Start iteration of DIIS   ... 0
        Levelshift                ... 2.000e-01
        Damping factor 1          ... 5.000e-01
        Damping factor 2          ... 1.000e+00
   L-MP2 PNO cut-off              ...   1.0e-09
   L-MP2 PNO cut-off (core)       ...   1.0e-11
                           *** Turning on DIIS ***
LMP2-Iter=   0:  ELMP2= -2.396533772415  DE=   4.8e-02 RMAX=   7.2e-03
LMP2-Iter=   1:  ELMP2= -2.420061162358  DE=   2.4e-02 RMAX=   5.0e-03
LMP2-Iter=   2:  ELMP2= -2.423741137242  DE=   3.7e-03 RMAX=   8.8e-04
LMP2-Iter=   3:  ELMP2= -2.424078927599  DE=   3.4e-04 RMAX=   4.3e-04
LMP2-Iter=   4:  ELMP2= -2.424092655980  DE=   1.4e-05 RMAX=   5.8e-05
LMP2-Iter=   5:  ELMP2= -2.424089494278  DE=   3.2e-06 RMAX=   2.5e-05
LMP2-Iter=   6:  ELMP2= -2.424088878814  DE=   6.2e-07 RMAX=   2.0e-06
LMP2-Iter=   7:  ELMP2= -2.424088844609  DE=   3.4e-08 RMAX=   8.3e-07
LMP2-Iter=   8:  ELMP2= -2.424088856881  DE=   1.2e-08 RMAX=   8.6e-08 => CONVERGED
PASS-2: Formation of Pair natural orbitals
   .... Finished loop over pairs

 PNO Occupation Number Statistics: 
  | Av. % of trace(Dij) retained        ...  98.951015733116
  | sigma^2 in % of trace(Dij) retained ...   1.39e+00
  | Av. % of trace(Di) retained         ...  99.999658781099
  | sigma^2 in % of trace(Di) retained  ...   1.07e-08
 Distributions of % trace(Dij) recovered:
  |       >= 99.9  ...   124 ( 15.1 % of all pairs)
  |   [90.0, 99.0) ...   272 ( 33.2 % of all pairs)
  |   [99.0, 99.9) ...   424 ( 51.7 % of all pairs)
 Distributions of % trace(Di) recovered :
  |       >= 99.9  ...    40 (100.0 % of all I-pairs )

Making pair pair interaction lists          ... done

                       ===========================
                        748 OF  820 PAIRS ARE KEPT
                       ===========================

Total time spent in the initial guess                 ...   201.367 sec
L-MP2 correlation energy (all non-screened pairs)     ...      -2.424088856881 Eh
L-MP2 PNO error correction                            ...      -0.000112869775 Eh
                                                          --------------------
Initial total L-MP2 energy (non-screened pairs)       ...      -2.424201726656 Eh

Initial PNO correlation energy                        ...      -2.420220796742 Eh
sum of pair energies estimated for screened out pairs ...       0.000000000000 Eh
sum of MP2 pair energies for pairs that were not kept ...      -0.000572189867 Eh
sum of PNO error estimates for the kept pairs         ...      -0.003579177201 Eh
                                                          --------------------
sum of all corrections                                         -0.004151367068
Initial total correlation energy                               -2.424372163811
Thresholds for map construction and integral transformation for fine MP2 and CCSD(T) calculation:
   TCutMKN   ...     1.0e-03
   TCutDO    ...     5.0e-03
   TCutPairs ...     1.0e-05
   TCutCMO   ...     1.0e-03
   TCutCPAO  ...     1.0e-03

Time for aux screen maps:            0.030
Time for maps after fine MP2:            0.102
-----------------------------
LOCAL RI TRANSFORMATION (IJV)
-----------------------------

Orbital window:      18 to 57
Basis functions:    718 (268 shells)
Aux. functions:    1805 (541 shells)

Processing maps (0.0 sec)
Average map sizes:
   Aux shells -> MOs(i)           40.0
   Aux shells -> MOs(j)           40.0
   MOs        -> AO shells       239.1

Calculating integrals (4.1 sec, 22.054 MB)
Sorting integrals (0.1 sec, 22.034 MB)
Total time for the integral transformation: 4.1 sec
--------------------------------
LOCAL RI TRANSFORMATION (VABPAO)
--------------------------------

Number of PAOs:     718
Basis functions:    718 (268 shells)
Aux. functions:    1805 (541 shells)

Processing maps (0.0 sec)
Average map sizes:
   Aux shells -> PAOs            718.0
   PAOs       -> AO shells       265.7

Calculating integrals (41.7 sec, 13278.306 MB)
Finished


-------------------------------------
Pair Pair Term precalculation with     
RI-(ij|mn) and (im|jn) transformation  
ON THE FLY                             
-------------------------------------

   IBatch   1 (of   8)              ... done (  148.140 sec)
   IBatch   2 (of   8)              ... done (  113.027 sec)
   IBatch   3 (of   8)              ... done (  142.554 sec)
   IBatch   4 (of   8)              ... done (  137.068 sec)
   IBatch   5 (of   8)              ... done (  186.117 sec)
   IBatch   6 (of   8)              ... done (  193.964 sec)
   IBatch   7 (of   8)              ... done (  216.135 sec)
   IBatch   8 (of   8)              ... done (  110.212 sec)
Total EXT                           ...        1247.471 sec

---------------------
RI-PNO TRANSFORMATION
---------------------

Total Number of PNOs                   ... 25304
Average number of PNOs per pair        ...    33
Maximal number of PNOs per pair        ...    71
   #pairs with  1 -  5 PNOs   :    0
   #pairs with  6 - 10 PNOs   :  112
   #pairs with 11 - 15 PNOs   :   55
   #pairs with 16 - 20 PNOs   :   47
   #pairs with 21 - 25 PNOs   :   49
   #pairs with 26 - 30 PNOs   :  114
   #pairs with 31 - 35 PNOs   :   70
   #pairs with 36 - 40 PNOs   :   33
   #pairs with 41 - 45 PNOs   :    9
   #pairs with 46 - 50 PNOs   :   93
   #pairs with 51 - 55 PNOs   :   69
   #pairs with 56 - 60 PNOs   :    4
   #pairs with 61 - 65 PNOs   :   15
   #pairs with 66 - 70 PNOs   :   60
   #pairs with 71 - 75 PNOs   :   18

Generation of (ij|ab)[P] integrals            ... on
Generation of (ia|bc)[P],(ja|bc)[P] integrals ... on
Storage of 3 and 4 external integrals         ... on
Generation of ALL (ka|bc)[P] integrals        ... on
Keep RI integrals in memory                   ... off

Ibatch:  1 (of  1)
Starting 2-4 index PNO integral generation ... done

Timings:
Total PNO integral transformation time     ...        715.570 sec
Size of the 3-external file                ...       454 MB
Size of the 4-external file                ...      3251 MB
Size of the IKJL file                      ...         1 MB
Size of the all 3-external file            ...      9080 MB
Size of the 1-external file                ...        23 MB

Making pair/pair overlap matrices          ... done (  139.639 sec)
Size of the pair overlap file              ... 3238 MB
Redoing the guess amplitudes               ... done (    0.622 sec)

-------------------------
FINAL STARTUP INFORMATION
-------------------------

E(0)                                       ...   -964.219068738
E(L-MP2)                                   ...     -2.424201727
E(L-MP2) including corrections             ...     -2.424372164
Initial E(tot)                             ...   -966.643440902
<T|T>                                      ...      0.703356414
Number of pairs included                   ... 748
Total number of pairs                      ... 820

------------------------------------------------
                  RHF COUPLED CLUSTER ITERATIONS
------------------------------------------------

Number of PNO amplitudes to be optimized   ...      1129060
Number of non-PNO amplitudes               ...    325828800
Untruncated number of regular amplitudes   ...    357192000

Iter       E(tot)           E(Corr)          Delta-E          Residual     Time
  0   -966.567200793     -2.343980688      0.080221039      0.011839794   73.75
                           *** Turning on DIIS ***
  1   -966.677063255     -2.453843149     -0.109862462      0.009477282   69.65
  2   -966.738280237     -2.515060131     -0.061216982      0.003139848   69.41
  3   -966.748829236     -2.525609130     -0.010548999      0.001773590   69.49
  4   -966.750820220     -2.527600114     -0.001990984      0.000541298   70.31
  5   -966.751170516     -2.527950410     -0.000350296      0.000292440   72.89
  6   -966.751245088     -2.528024982     -0.000074572      0.000133951   73.95
  7   -966.751256855     -2.528036750     -0.000011768      0.000071252   72.97
  8   -966.751258526     -2.528038421     -0.000001671      0.000024761   71.77
  9   -966.751257330     -2.528037224      0.000001196      0.000008081   69.53
               --- The Coupled-Cluster iterations have converged ---

----------------------
COUPLED CLUSTER ENERGY
----------------------

E(0)                                       ...   -964.219068738
E(CORR)(strong-pairs)                      ...     -2.528037224
E(CORR)(weak-pairs)                        ...     -0.004151367
E(CORR)(corrected)                         ...     -2.532188591
E(TOT)                                     ...   -966.751257330
Singles Norm <S|S>**1/2                    ...      0.079512523  
T1 diagnostic                              ...      0.008889770  

------------------
LARGEST AMPLITUDES
------------------
  36-> 58  36-> 58       0.058004
  33-> 59  33-> 59       0.029043
  53-> 65  53-> 65       0.028629
  57-> 65  57-> 65       0.028629
  48-> 58  48-> 58       0.028020
  49-> 58  49-> 58       0.028013
  41-> 58  41-> 58       0.027851
  43-> 58  43-> 58       0.027849
  51-> 63  51-> 63       0.027168
  45-> 63  45-> 63       0.027159
  56-> 58  56-> 58       0.027067
  54-> 58  54-> 58       0.027065
  44-> 64  44-> 64       0.026993
  40-> 64  40-> 64       0.026993
  45-> 58  45-> 58       0.026918
  51-> 58  51-> 58       0.026915


-------------------------------------------
DLPNO BASED TRIPLES CORRECTION
-------------------------------------------

Singles multiplier          ...  1.000000
TCutTNO                     ... 1.000e-09
TCutMP2Pairs                ... 1.000e-06
TCutDOStrong                ... 1.000e-02
TCutMKNStrong               ... 1.000e-02
TCutDOWeak                  ... 2.000e-02
TCutMKNWeak                 ... 1.000e-01

Fragment selection                          .... not used
Number of Triples that are to be computed   ...     10857

 . . . . . . . . .
10% done  
20% done               (   1471.619 sec)
 . . . . . . . . .
30% done  
40% done  
50% done               (   1791.805 sec)
 . . . . . . . . .
60% done  
70% done  
80% done               (   2176.910 sec)
 . . . . . . . . .
90% done               (    777.804 sec)
Triples timings:
Total time for T0               ...  6668.637 sec
Total time for Iterative (T)    ...     0.000 sec
Total time of overall (T)       ...  6959.541 sec

Triples List generation         ...     0.000 sec
TNO generation                  ...   450.307 sec
Pair density generation         ...     0.056 sec
Look up tables                  ...     0.008 sec
Generating 3-index integrals    ...  5263.768 sec
  Make 4-ind.int. from 3-ind.int...   174.045 sec
  Projecting amplitudes (D + S) ...   635.597 sec
  Downprojecting integrals      ...     0.022 sec
  Energy contr. (sum over a,b,c)...    38.492 sec
Fitting ET(->0)                 ...     0.000 sec

Everything after 3-index        ...   954.369 sec

Timing details:
 TNO integrals                  ...  5424.279 sec
   Reading 3-index integrals    ...   117.513 sec
   Sorting integrals            ...   435.775 sec
       Sorting integrals 1      ...     0.086 sec
       Sorting integrals 2      ...   313.157 sec
       Sorting integrals 3      ...    68.882 sec
       Sorting integrals 4      ...     6.355 sec
       Sorting integrals 5      ...     3.420 sec
       Sorting integrals 6      ...    43.874 sec
   Calculating local VM**-1/2   ...     7.284 sec
   Orthogonal. integrals        ...     9.051 sec
   Multipl. 3-index integrals   ...  4854.656 sec
   All concerning IRIab (w/TNO) ...   109.615 sec

 Calculate W0/W1                ...   105.859 sec
 W 3-ext contribution           ...    51.696 sec
 W 3-int contribution           ...    22.392 sec
 Sorting W                      ...    30.125 sec

 V exchange contribution        ...    12.379 sec

 Timings for Triples without generation
     of 3-index integrals       ...   954.100 sec
       0 weak pairs             ...   861.695 sec
       1 weak pair              ...    92.405 sec
       2 weak pairs             ...     0.000 sec
       3 weak pairs             ...     0.000 sec
  Extra time for extrapolation  ...     0.000 sec

Number of Triples   (0, 1, 2, 3 weak pairs; overall):   8999    1858       0       0  ( 10857)
Number of Atoms     (0, 1, 2, 3 weak pairs; overall):   29.4    25.3     0.0     0.0  (    35)
Number of PAOs      (0, 1, 2, 3 weak pairs; overall):  623.1   568.6     0.0     0.0  (   718)
Number of AuxFcns   (0, 1, 2, 3 weak pairs; overall):  521.4   371.9     0.0     0.0  (  1805)
Number of TNOs      (0, 1, 2, 3 weak pairs         ):   91.5    59.2     0.0     0.0
Aver. Number of NTNO, Atoms, PAOs, AuxFcns / Triples:  10857    86.0    28.7   613.7   495.8

Triples Correction (T)                     ...     -0.109729068
Final correlation energy                   ...     -2.641917659
E(CCSD)                                    ...   -966.751257330
E(CCSD(T))                                 ...   -966.860986398


Maximum memory used throughout the entire calculation: 8108.0 MB


------------------------------------------------------------------------------- 
                                     TIMINGS                                   
------------------------------------------------------------------------------- 


Total execution time                   ...    10127.042 sec

Localization of occupied MO's          ...        2.032 sec (  0.0%)
Fock Matrix Formation                  ...       18.437 sec (  0.2%)
Global overlap, Fock, MKN matrices     ...        0.481 sec (  0.0%)
Differential overlap integrals         ...        0.586 sec (  0.0%)
Organizing maps                        ...        0.314 sec (  0.0%)
RI 3-index integral generations        ...       56.837 sec (  0.6%)
RI-PNO integral transformation         ...     2116.667 sec ( 20.9%)
Initial Guess                          ...      238.610 sec (  2.4%)
DIIS Solver                            ...        5.696 sec (  0.1%)
State Vector Update                    ...        0.106 sec (  0.0%)
Sigma-vector construction              ...      712.799 sec (  7.0%)
  <0|H|D>                              ...        0.002 sec (  0.0% of sigma)
  <D|H|D>(0-ext)                       ...       28.019 sec (  3.9% of sigma)
  <D|H|D>(2-ext Fock)                  ...        0.038 sec (  0.0% of sigma)
  <D|H|D>(2-ext)                       ...      284.960 sec ( 40.0% of sigma)
  <D|H|D>(4-ext)                       ...       35.786 sec (  5.0% of sigma)
  <D|H|D>(4-ext-corr)                  ...      212.683 sec ( 29.8% of sigma)
  CCSD doubles correction              ...        1.422 sec (  0.2% of sigma)
  <S|H|S>                              ...        2.299 sec (  0.3% of sigma)
  <S|H|D>(1-ext)                       ...        2.355 sec (  0.3% of sigma)
  <D|H|S>(1-ext)                       ...        0.056 sec (  0.0% of sigma)
  <S|H|D>(3-ext)                       ...        1.313 sec (  0.2% of sigma)
  CCSD singles correction              ...        0.001 sec (  0.0% of sigma)
  Fock-dressing                        ...      101.034 sec ( 14.2% of sigma)
  Singles amplitudes                   ...        3.643 sec (  0.5% of sigma)
  (ik|jl)-dressing                     ...       21.899 sec (  3.1% of sigma)
  (ij|ab),(ia|jb)-dressing             ...       10.492 sec (  1.5% of sigma)
  Pair energies                        ...        0.025 sec (  0.0% of sigma)
Total Time for computing (T)           ...     6964.023 sec ( 68.8% of ALL)


-------------------------   --------------------
FINAL SINGLE POINT ENERGY      -966.860986397503
-------------------------   --------------------


                            ***************************************
                            *     ORCA property calculations      *
                            ***************************************

                                    ---------------------
                                    Active property flags
                                    ---------------------
   (+) Dipole Moment


------------------------------------------------------------------------------
                       ORCA ELECTRIC PROPERTIES CALCULATION
------------------------------------------------------------------------------

Dipole Moment Calculation                       ... on
Quadrupole Moment Calculation                   ... off
Polarizability Calculation                      ... off
GBWName                                         ... Adamantyl_CMe2Cl.gbw
Electron density file                           ... Adamantyl_CMe2Cl.scfp.tmp
The origin for moment calculation is the CENTER OF MASS  = (-0.097160, -0.078623 -0.000001)

-------------
DIPOLE MOMENT
-------------
                                X             Y             Z
Electronic contribution:    -10.69886      -8.33063       0.00015
Nuclear contribution   :     11.26886       9.12213      -0.00009
                        -----------------------------------------
Total Dipole Moment    :      0.57000       0.79150       0.00007
                        -----------------------------------------
Magnitude (a.u.)       :      0.97539
Magnitude (Debye)      :      2.47924



--------------------
Rotational spectrum 
--------------------
 
Rotational constants in cm-1:     0.037515     0.016062     0.015392 
Rotational constants in MHz :  1124.656978   481.522817   461.431302 

 Dipole components along the rotational axes: 
x,y,z [a.u.] :     0.600245     0.768822     0.000031 
x,y,z [Debye]:     1.525701     1.954189     0.000080 

 

Timings for individual modules:

Sum of individual times         ...    10298.014 sec (= 171.634 min)
GTO integral calculation        ...        2.050 sec (=   0.034 min)   0.0 %
SCF iterations                  ...      147.005 sec (=   2.450 min)   1.4 %
MDCI module                     ...    10148.958 sec (= 169.149 min)  98.6 %
                             ****ORCA TERMINATED NORMALLY****
TOTAL RUN TIME: 0 days 2 hours 51 minutes 39 seconds 263 msec
Adamantyl_CMe2Cl.gbw -> /home1/pantazis/klk/xyz/Energy_barrier/Adamantyl_CMe2Cl.gbw
Adamantyl_CMe2Cl.job -> /home1/pantazis/klk/xyz/Energy_barrier/Adamantyl_CMe2Cl.job
Adamantyl_CMe2Cl.loc -> /home1/pantazis/klk/xyz/Energy_barrier/Adamantyl_CMe2Cl.loc
Adamantyl_CMe2Cl.nodes -> /home1/pantazis/klk/xyz/Energy_barrier/Adamantyl_CMe2Cl.nodes
Adamantyl_CMe2Cl.prop -> /home1/pantazis/klk/xyz/Energy_barrier/Adamantyl_CMe2Cl.prop
Adamantyl_CMe2Cl_property.txt -> /home1/pantazis/klk/xyz/Energy_barrier/Adamantyl_CMe2Cl_property.txt
Adamantyl_CMe2Cl.xyz -> /home1/pantazis/klk/xyz/Energy_barrier/Adamantyl_CMe2Cl.xyz
cp: cannot stat Adamantyl_CMe2Cl.asa.inp: No such file or directory
