! Job execution by suborca V 6.07 on ZEUS !
Job started from zeus1, running /scratch/pantazis/butane_anti__SgaJe7/orca/orca copied from /opt/orca on zeussn124 in /scratch/pantazis/butane_anti__SgaJe7
Job execution start: Fri Jun 28 01:31:15 CEST 2019
Shared library path: /scratch/pantazis/butane_anti__SgaJe7/orca:/opt/openmpi_1.10.2/lib:/opt/intel/mkl/lib/intel64:/opt/intel/lib/intel64:
PBS Job ID is: 158295.icqc
izeussn124
izeussn124
izeussn124
izeussn124
izeussn124
izeussn124
izeussn124
izeussn124

                                 *****************
                                 * O   R   C   A *
                                 *****************

           --- An Ab Initio, DFT and Semiempirical electronic structure package ---

                  #######################################################
                  #                        -***-                        #
                  #          Department of theory and spectroscopy      #
                  #               Directorship: Frank Neese             #
                  #        Max Planck Institute fuer Kohlenforschung    #
                  #                Kaiser Wilhelm Platz 1               #
                  #                 D-45470 Muelheim/Ruhr               #
                  #                      Germany                        #
                  #                                                     #
                  #                  All rights reserved                #
                  #                        -***-                        #
                  #######################################################


                         Program Version 4.1.x  -  STABLE  -
                                (SVN: $Rev: 14094$)
                ($Date: 2019-06-14 15:01:15 +0200 (Fri, 14 Jun 2019) $)

                         (BUILD: $Sun Jun 23 06:18:31 CEST 2019$)


 With contributions from (in alphabetic order):
   Daniel Aravena         : Magnetic Properties
   Michael Atanasov       : Ab Initio Ligand Field Theory
   Alexander A. Auer      : GIAO ZORA
   Ute Becker             : Parallelization
   Giovanni Bistoni       : ED, Open-shell LED
   Martin Brehm           : Molecular dynamics
   Dmytro Bykov           : SCF Hessian
   Vijay G. Chilkuri      : MRCI spin determinant printing
   Dipayan Datta          : RHF DLPNO-CCSD density
   Achintya Kumar Dutta   : EOM-CC, STEOM-CC
   Dmitry Ganyushin       : Spin-Orbit,Spin-Spin,Magnetic field MRCI
   Miquel Garcia          : C-PCM Hessian
   Yang Guo               : DLPNO-NEVPT2, CIM, IAO-localization
   Andreas Hansen         : Spin unrestricted coupled pair/coupled cluster methods
   Benjamin Helmich-Paris : CASSCF linear response (MC-RPA)
   Lee Huntington         : MR-EOM, pCC
   Robert Izsak           : Overlap fitted RIJCOSX, COSX-SCS-MP3, EOM
   Christian Kollmar      : KDIIS, OOCD, Brueckner-CCSD(T), CCSD density
   Simone Kossmann        : Meta GGA functionals, TD-DFT gradient, OOMP2, MP2 Hessian
   Martin Krupicka        : AUTO-CI
   Lucas Lang             : DCDCAS
   Dagmar Lenk            : GEPOL surface, SMD
   Dimitrios Liakos       : Extrapolation schemes; parallel MDCI
   Dimitrios Manganas     : ROCIS; embedding schemes
   Dimitrios Pantazis     : SARC Basis sets
   Taras Petrenko         : DFT Hessian,TD-DFT gradient, ASA, ECA, R-Raman, ABS, FL, XAS/XES, NRVS
   Peter Pinski           : DLPNO-MP2, DLPNO-MP2 Gradient
   Christoph Reimann      : Effective Core Potentials
   Marius Retegan         : Local ZFS, SOC
   Christoph Riplinger    : Optimizer, TS searches, QM/MM, DLPNO-CCSD(T), (RO)-DLPNO pert. Triples
   Tobias Risthaus        : Range-separated hybrids, TD-DFT gradient, RPA, STAB
   Michael Roemelt        : Restricted open shell CIS
   Masaaki Saitow         : Open-shell DLPNO
   Barbara Sandhoefer     : DKH picture change effects
   Avijit Sen             : IP-ROCIS
   Kantharuban Sivalingam : CASSCF convergence, NEVPT2, FIC-MRCI
   Bernardo de Souza      : ESD, SOC TD-DFT
   Georgi Stoychev        : AutoAux, RI-MP2 NMR
   Willem Van den Heuvel  : Paramagnetic NMR
   Boris Wezisla          : Elementary symmetry handling
   Frank Wennmohs         : Technical directorship


 We gratefully acknowledge several colleagues who have allowed us to
 interface, adapt or use parts of their codes:
   Stefan Grimme, W. Hujo, H. Kruse,             : VdW corrections, initial TS optimization,
                  C. Bannwarth                     DFT functionals, gCP, sTDA/sTD-DF
   Ed Valeev                                     : LibInt (2-el integral package), F12 methods
   Garnet Chan, S. Sharma, J. Yang, R. Olivares  : DMRG
   Ulf Ekstrom                                   : XCFun DFT Library
   Mihaly Kallay                                 : mrcc  (arbitrary order and MRCC methods)
   Andreas Klamt, Michael Diedenhofen            : otool_cosmo (COSMO solvation model)
   Jiri Pittner, Ondrej Demel                    : Mk-CCSD
   Frank Weinhold                                : gennbo (NPA and NBO analysis)
   Christopher J. Cramer and Donald G. Truhlar   : smd solvation model
   Lars Goerigk                                  : TD-DFT with DH, B97 family of functionals
   V. Asgeirsson, H. Jonsson                     : NEB implementation
   FAccTs GmbH                                   : IRC, NEB, NEB-TS, Multilevel


 Your calculation uses the libint2 library for the computation of 2-el integrals
 For citations please refer to: http://libint.valeyev.net

 This ORCA versions uses:
   CBLAS   interface :  Fast vector & matrix operations
   LAPACKE interface :  Fast linear algebra routines
   SCALAPACK package :  Parallel linear algebra routines




***************************************
The coordinates will be read from file: butane_anti.xyz
***************************************


----- Orbital basis set information -----
Your calculation utilizes the basis: cc-pVTZ 
       H, B-Ne : Obtained from the ccRepo (grant-hill.group.shef.ac.uk/ccrepo) Feb. 2017
                 T. H. Dunning, Jr., J. Chem. Phys. 90, 1007 (1989)
            He : Obtained from the ccRepo (grant-hill.group.shef.ac.uk/ccrepo) Feb. 2017
                 D. E. Woon, T. H. Dunning, Jr., J. Chem. Phys. 100, 2975 (1994)
  Li-Be, Na-Mg : Obtained from the ccRepo (grant-hill.group.shef.ac.uk/ccrepo) Feb. 2017
                 B. P. Prascher, D. E. Woon, K. A. Peterson, T. H. Dunning, Jr., A. K. Wilson, Theor. Chem. Acc. 128, 69 (2011)
         Al-Ar : Obtained from the ccRepo (grant-hill.group.shef.ac.uk/ccrepo) Feb. 2017
                 D. E. Woon, T. H. Dunning, Jr., J. Chem. Phys. 98, 1358 (1993)
            Ca : Obtained from the Peterson Research Group Website (tyr0.chem.wsu.edu/~kipeters) Feb. 2017
                 J. Koput, K. A. Peterson, J. Phys. Chem. 106, 9595 (2002)
         Sc-Zn : Obtained from the ccRepo (grant-hill.group.shef.ac.uk/ccrepo) Feb. 2017
                 N. B. Balabanov, K. A. Peterson, J. Chem. Phys. 123, 064107 (2005)
                 N. B. Balabanov, K. A. Peterson, J. Chem. Phys. 125, 074110 (2006)
         Ga-Kr : Obtained from the ccRepo (grant-hill.group.shef.ac.uk/ccrepo) Feb. 2017
                 A. K. Wilson, D. E. Woon, K. A. Peterson, T. H. Dunning, Jr., J. Chem. Phys. 110, 7667 (1999)
             Y : Obtained from the ccRepo (grant-hill.group.shef.ac.uk/ccrepo) Feb. 2017
                 K. A. Peterson, D. Figgen, M. Dolg, H. Stoll, J. Chem. Phys. 126, 124101 (2007)
        Ag, Au : Obtained from the Peterson Research Group Website (tyr0.chem.wsu.edu/~kipeters) Feb. 2017
                 K. A. Peterson, C. Puzzarini, Theor. Chem. Acc. 114, 283 (2005)

----- AuxC basis set information -----
Your calculation utilizes the auxiliary basis: cc-pVTZ/C 
  Obtained from the EMSL Basis Set Exchange (bse.pnl.gov) Feb. 2017
  H-He, B-F, Al-Ar, Ga-Kr : F. Weigend, A. Kohn, C. Hattig, J. Chem. Phys. 116, 3175 (2002)
             Li-Be, Na-Mg : C. Haettig, Phys. Chem. Chem. Phys. 7, 59 (2005)
                       Ne : C. Haettig, Phys. Chem. Chem. Phys. 7, 59 (2005)
                            F. Weigend, A. Kohn, C. Hattig, J. Chem. Phys. 116, 3175 (2002)
                    Sc-Zn : J. G. Hill, J. A. Platts, J. Chem. Phys. 128, 044104 (2008)

----- AuxJK basis set information -----
Your calculation utilizes the auxiliary basis: cc-pVTZ/JK 
  H, B-F, Al-Cl, Ga-Br : Obtained from the TURBOMOLE 7.0 basis set library

================================================================================
                                        WARNINGS
                       Please study these warnings very carefully!
================================================================================


WARNING: MDCI localization with Augmented Hessian Foster-Boys
  ===> : Switching off randomization!

WARNING: Post HF methods need fully converged wavefunctions
  ===> : Setting SCFConvForced true
         You can overwrite this default with %scf ConvForced false 


INFO   : the flag for use of LIBINT has been found!

================================================================================
                                       INPUT FILE
================================================================================
NAME = butane_anti.inp
|  1> ! RHF DLPNO-CCSD(T) cc-pVTZ RIJK cc-pVTZ/JK cc-pVTZ/C
|  2> ! KDIIS SOSCF TightSCF TightPNO
|  3> 
|  4> %pal nprocs 8 end
|  5> 
|  6> %maxcore 8000
|  7> 
|  8> %scf maxiter 300
|  9>      shift shift 0.2 erroff 0.1 end
| 10> end
| 11> 
| 12> * xyzfile 0 1 butane_anti.xyz 
| 13> 
| 14> 
| 15>                          ****END OF INPUT****
================================================================================

                       ****************************
                       * Single Point Calculation *
                       ****************************

---------------------------------
CARTESIAN COORDINATES (ANGSTROEM)
---------------------------------
  C      1.951060   -0.123460    0.000000
  C      0.560570    0.525400    0.000000
  C     -0.560580   -0.525400    0.000000
  C     -1.951060    0.123460    0.000000
  H      2.753540    0.650320    0.000000
  H      2.096620   -0.762330    0.901420
  H      2.096620   -0.762330   -0.901420
  H      0.459680    1.179140    0.899230
  H      0.459680    1.179140   -0.899220
  H     -0.459680   -1.179130   -0.899230
  H     -0.459680   -1.179140    0.899220
  H     -2.753540   -0.650320    0.000000
  H     -2.096620    0.762310    0.901430
  H     -2.096630    0.762330   -0.901420

----------------------------
CARTESIAN COORDINATES (A.U.)
----------------------------
  NO LB      ZA    FRAG     MASS         X           Y           Z
   0 C     6.0000    0    12.011    3.686969   -0.233306    0.000000
   1 C     6.0000    0    12.011    1.059324    0.992862    0.000000
   2 C     6.0000    0    12.011   -1.059343   -0.992862    0.000000
   3 C     6.0000    0    12.011   -3.686969    0.233306    0.000000
   4 H     1.0000    0     1.008    5.203436    1.228927    0.000000
   5 H     1.0000    0     1.008    3.962038   -1.440595    1.703437
   6 H     1.0000    0     1.008    3.962038   -1.440595   -1.703437
   7 H     1.0000    0     1.008    0.868669    2.228252    1.699298
   8 H     1.0000    0     1.008    0.868669    2.228252   -1.699280
   9 H     1.0000    0     1.008   -0.868669   -2.228233   -1.699298
  10 H     1.0000    0     1.008   -0.868669   -2.228252    1.699280
  11 H     1.0000    0     1.008   -5.203436   -1.228927    0.000000
  12 H     1.0000    0     1.008   -3.962038    1.440557    1.703456
  13 H     1.0000    0     1.008   -3.962057    1.440595   -1.703437

--------------------------------
INTERNAL COORDINATES (ANGSTROEM)
--------------------------------
 C      0   0   0     0.000000000000     0.00000000     0.00000000
 C      1   0   0     1.534432057701     0.00000000     0.00000000
 C      2   1   0     1.536605988046   111.83947803     0.00000000
 C      3   2   1     1.534422995787   111.83932013   180.00000000
 H      1   2   3     1.114768872368   111.02740868   180.00000000
 H      1   2   3     1.114405943496   111.14847461   299.85445293
 H      1   2   3     1.114405943496   111.14847461    60.14554707
 H      2   1   3     1.116319565626   109.24077838   121.43983939
 H      2   1   3     1.116311510332   109.24092269   238.55987705
 H      3   2   1     1.116314613270   109.54339969   301.26458177
 H      3   2   1     1.116312414157   109.54381220    58.73479589
 H      4   3   2     1.114768872368   111.02725078   180.00000000
 H      4   3   2     1.114402566849   111.14815415   299.85325902
 H      4   3   2     1.114407249707   111.14902679    60.14580222

---------------------------
INTERNAL COORDINATES (A.U.)
---------------------------
 C      0   0   0     0.000000000000     0.00000000     0.00000000
 C      1   0   0     2.899656360164     0.00000000     0.00000000
 C      2   1   0     2.903764493151   111.83947803     0.00000000
 C      3   2   1     2.899639235628   111.83932013   180.00000000
 H      1   2   3     2.106607871395   111.02740868   180.00000000
 H      1   2   3     2.105922035222   111.14847461   299.85445293
 H      1   2   3     2.105922035222   111.14847461    60.14554707
 H      2   1   3     2.109538256972   109.24077838   121.43983939
 H      2   1   3     2.109523034672   109.24092269   238.55987705
 H      3   2   1     2.109528898374   109.54339969   301.26458177
 H      3   2   1     2.109524742652   109.54381220    58.73479589
 H      4   3   2     2.106607871395   111.02725078   180.00000000
 H      4   3   2     2.105915654284   111.14815415   299.85325902
 H      4   3   2     2.105924503603   111.14902679    60.14580222

---------------------
BASIS SET INFORMATION
---------------------
There are 2 groups of distinct atoms

 Group   1 Type C   : 18s5p2d1f contracted to 4s3p2d1f pattern {8811/311/11/1}
 Group   2 Type H   : 5s2p1d contracted to 3s2p1d pattern {311/11/1}

Atom   0C    basis set group =>   1
Atom   1C    basis set group =>   1
Atom   2C    basis set group =>   1
Atom   3C    basis set group =>   1
Atom   4H    basis set group =>   2
Atom   5H    basis set group =>   2
Atom   6H    basis set group =>   2
Atom   7H    basis set group =>   2
Atom   8H    basis set group =>   2
Atom   9H    basis set group =>   2
Atom  10H    basis set group =>   2
Atom  11H    basis set group =>   2
Atom  12H    basis set group =>   2
Atom  13H    basis set group =>   2
-------------------------------
AUXILIARY BASIS SET INFORMATION
-------------------------------
There are 2 groups of distinct atoms

 Group   1 Type C   : 8s6p5d3f1g contracted to 8s6p5d3f1g pattern {11111111/111111/11111/111/1}
 Group   2 Type H   : 4s3p2d1f contracted to 4s3p2d1f pattern {1111/111/11/1}

Atom   0C    basis set group =>   1
Atom   1C    basis set group =>   1
Atom   2C    basis set group =>   1
Atom   3C    basis set group =>   1
Atom   4H    basis set group =>   2
Atom   5H    basis set group =>   2
Atom   6H    basis set group =>   2
Atom   7H    basis set group =>   2
Atom   8H    basis set group =>   2
Atom   9H    basis set group =>   2
Atom  10H    basis set group =>   2
Atom  11H    basis set group =>   2
Atom  12H    basis set group =>   2
Atom  13H    basis set group =>   2
-------------------------------
AUXILIARY BASIS SET INFORMATION
-------------------------------
There are 2 groups of distinct atoms

 Group   1 Type C   : 10s7p5d2f1g contracted to 10s7p5d2f1g pattern {1111111111/1111111/11111/11/1}
 Group   2 Type H   : 4s3p2d1f contracted to 4s3p2d1f pattern {1111/111/11/1}

Atom   0C    basis set group =>   1
Atom   1C    basis set group =>   1
Atom   2C    basis set group =>   1
Atom   3C    basis set group =>   1
Atom   4H    basis set group =>   2
Atom   5H    basis set group =>   2
Atom   6H    basis set group =>   2
Atom   7H    basis set group =>   2
Atom   8H    basis set group =>   2
Atom   9H    basis set group =>   2
Atom  10H    basis set group =>   2
Atom  11H    basis set group =>   2
Atom  12H    basis set group =>   2
Atom  13H    basis set group =>   2


           ************************************************************
           *        Program running with 8 parallel MPI-processes     *
           *              working on a common directory               *
           ************************************************************
------------------------------------------------------------------------------
                           ORCA GTO INTEGRAL CALCULATION
                           -- RI-GTO INTEGRALS CHOSEN --
------------------------------------------------------------------------------

                         BASIS SET STATISTICS AND STARTUP INFO

Gaussian basis set:
 # of primitive gaussian shells          ...  184
 # of primitive gaussian functions       ...  360
 # of contracted shells                  ...  100
 # of contracted basis functions         ...  260
 Highest angular momentum                ...    3
 Maximum contraction depth               ...    8
Auxiliary gaussian basis set:
 # of primitive gaussian shells          ...  200
 # of primitive gaussian functions       ...  616
 # of contracted shells                  ...  200
 # of contracted aux-basis functions     ...  616
 Highest angular momentum                ...    4
 Maximum contraction depth               ...    1
Ratio of auxiliary to basis functions    ...  2.37
Integral package used                  ... LIBINT
 One Electron integrals                  ... done
 Ordering auxiliary basis shells         ... done
 Integral threshhold             Thresh  ...  2.500e-11
 Primitive cut-off               TCut    ...  2.500e-12
 Pre-screening matrix                    ... done
 Shell pair data                         ... 
 Ordering of the shell pairs             ... done (   0.001 sec) 4884 of 5050 pairs
 Determination of significant pairs      ... done (   0.000 sec)
 Creation of shell pair data             ... done (   0.001 sec)
 Storage of shell pair data              ... done (   0.002 sec)
 Shell pair data done in (   0.005 sec)
 Computing two index integrals           ... done
 Cholesky decomposition of the V-matrix  ... done


Timings:
 Total evaluation time                   ...   0.346 sec (  0.006 min)
 One electron matrix time                ...   0.060 sec (  0.001 min) = 17.5%
 Schwartz matrix evaluation time         ...   0.180 sec (  0.003 min) = 52.1%
 Two index repulsion integral time       ...   0.037 sec (  0.001 min) = 10.7%
 Cholesky decomposition of V             ...   0.037 sec (  0.001 min) = 10.6%
 Three index repulsion integral time     ...   0.000 sec (  0.000 min) =  0.0%



           ************************************************************
           *        Program running with 8 parallel MPI-processes     *
           *              working on a common directory               *
           ************************************************************
-------------------------------------------------------------------------------
                                 ORCA SCF
-------------------------------------------------------------------------------

------------
SCF SETTINGS
------------
Hamiltonian:
 Ab initio Hamiltonian  Method          .... Hartree-Fock(GTOs)
 RI-approximation to the Coulomb term is turned on
   Number of auxiliary basis functions  .... 616
   RI-JK (J+K treated both via RI)      .... on


General Settings:
 Integral files         IntName         .... butane_anti
 Hartree-Fock type      HFTyp           .... RHF
 Total Charge           Charge          ....    0
 Multiplicity           Mult            ....    1
 Number of Electrons    NEL             ....   34
 Basis Dimension        Dim             ....  260
 Nuclear Repulsion      ENuc            ....    129.5903089310 Eh

Convergence Acceleration:
 DIIS                   CNVDIIS         .... off
 Newton-Raphson         CNVNR           .... off
 SOSCF                  CNVSOSCF        .... on
   Start iteration      SOSCFMaxIt      ....   150
   Startup grad/error   SOSCFStart      ....  0.003300
 Level Shifting         CNVShift        .... on
   Level shift para.    LevelShift      ....    0.2000
   Turn off err/grad.   ShiftErr        ....    0.1000
 Zerner damping         CNVZerner       .... off
 Static damping         CNVDamp         .... off
 Fernandez-Rico         CNVRico         .... off

SCF Procedure:
 Maximum # iterations   MaxIter         ....   300
 SCF integral mode      SCFMode         .... Direct
   Integral package                     .... LIBINT
 Reset frequency        DirectResetFreq ....    20
 Integral Threshold     Thresh          ....  2.500e-11 Eh
 Primitive CutOff       TCut            ....  2.500e-12 Eh

Convergence Tolerance:
 Convergence Check Mode ConvCheckMode   .... Total+1el-Energy
 Convergence forced     ConvForced      .... 1
 Energy Change          TolE            ....  1.000e-08 Eh
 1-El. energy change                    ....  1.000e-05 Eh
 Orbital Gradient       TolG            ....  1.000e-05
 Orbital Rotation angle TolX            ....  1.000e-05


Diagonalization of the overlap matrix:
Smallest eigenvalue                        ... 6.077e-04
Time for diagonalization                   ...    0.017 sec
Threshold for overlap eigenvalues          ... 1.000e-08
Number of eigenvalues below threshold      ... 0
Time for construction of square roots      ...    0.010 sec
Total time needed                          ...    0.027 sec

-------------------
DFT GRID GENERATION
-------------------

General Integration Accuracy     IntAcc      ...  4.340
Radial Grid Type                 RadialGrid  ... Gauss-Chebyshev
Angular Grid (max. acc.)         AngularGrid ... Lebedev-110
Angular grid pruning method      GridPruning ... 3 (G Style)
Weight generation scheme         WeightScheme... Becke
Basis function cutoff            BFCut       ...    1.0000e-11
Integration weight cutoff        WCut        ...    1.0000e-14
Grids for H and He will be reduced by one unit

# of grid points (after initial pruning)     ...  14564 (   0.0 sec)
# of grid points (after weights+screening)   ...  13594 (   0.0 sec)
nearest neighbour list constructed           ...    0.0 sec
Grid point re-assignment to atoms done       ...    0.0 sec
Grid point division into batches done        ...    0.0 sec
Reduced shell lists constructed in    0.1 sec

Total number of grid points                  ...    13594
Total number of batches                      ...      222
Average number of points per batch           ...       61
Average number of grid points per atom       ...      971
Average number of shells per batch           ...    88.83 (88.83%)
Average number of basis functions per batch  ...   228.69 (87.96%)
Average number of large shells per batch     ...    75.41 (84.90%)
Average number of large basis fcns per batch ...   192.72 (84.27%)
Average number of aux-shells per batch       ...    88.83 (44.41%)
Average number of aux functions per batch    ...   228.69 (37.12%)
Maximum spatial batch extension              ...   2.45,  2.65,  1.88 au
Average spatial batch extension              ...   0.20,  0.19,  0.18 au

Time for grid setup =    0.083 sec

------------------------------
INITIAL GUESS: MODEL POTENTIAL
------------------------------
Loading Hartree-Fock densities                     ... done
Calculating cut-offs                               ... done
Setting up the integral package                    ... done
Initializing the effective Hamiltonian             ... done
Starting the Coulomb interaction                   ... done (   0.0 sec)
Reading the grid                                   ... done
Mapping shells                                     ... done
Starting the XC term evaluation                    ... done (   0.0 sec)
Transforming the Hamiltonian                       ... done (   0.0 sec)
Diagonalizing the Hamiltonian                      ... done (   0.0 sec)
Back transforming the eigenvectors                 ... done (   0.0 sec)
Now organizing SCF variables                       ... done
                      ------------------
                      INITIAL GUESS DONE (   0.3 sec)
                      ------------------
--------------
SCF ITERATIONS
--------------
ITER       Energy         Delta-E        Max-DP      RMS-DP      [F,P]   Gradient Norm
                             ****Turning on KDIIS(Cayley)****
  0   -157.0684539587   0.000000000000 0.01110218  0.00029575  0.1002148   0.151494452
  1   -157.1516425492  -0.083188590483 0.01788183  0.00031332  0.0860770   0.129927693
  2   -157.2160495115  -0.064406962349 0.02912640  0.00054561  0.0698866   0.105759930
  3   -157.2967629825  -0.080713471023 0.04421853  0.00087955  0.0444888   0.065421651
                      *** Initiating the SOSCF procedure ***
                           *** Shutting down KDIIS ***
                      *** Re-Reading the Fockian *** 
                      *** Removing any level shift *** 
ITER      Energy       Delta-E        Grad      Rot      Max-DP    RMS-DP
  4   -157.34954542  -0.0527824346  0.003260  0.003260  0.001969  0.000075
  5   -157.34983504  -0.0002896209  0.001245  0.001959  0.001158  0.000042
  6   -157.34986290  -0.0000278653  0.000477  0.000367  0.000512  0.000014
  7   -157.34987181  -0.0000089081  0.000087  0.000196  0.000212  0.000006
  8   -157.34987207  -0.0000002546  0.000028  0.000060  0.000088  0.000002
  9   -157.34987208  -0.0000000148  0.000009  0.000008  0.000018  0.000001
                  ***Gradient check signals convergence***
              ***Rediagonalizing the Fockian in SOSCF/NRSCF***

               *****************************************************
               *                     SUCCESS                       *
               *           SCF CONVERGED AFTER  10 CYCLES          *
               *****************************************************


----------------
TOTAL SCF ENERGY
----------------

Total Energy       :         -157.34987208 Eh           -4281.70770 eV

Components:
Nuclear Repulsion  :          129.59030893 Eh            3526.33158 eV
Electronic Energy  :         -286.94018101 Eh           -7808.03928 eV
One Electron Energy:         -467.34478519 Eh          -12717.09813 eV
Two Electron Energy:          180.40460418 Eh            4909.05885 eV

Virial components:
Potential Energy   :         -314.17281345 Eh           -8549.07688 eV
Kinetic Energy     :          156.82294137 Eh            4267.36918 eV
Virial Ratio       :            2.00336004


---------------
SCF CONVERGENCE
---------------

  Last Energy change         ...   -1.9030e-09  Tolerance :   1.0000e-08
  Last MAX-Density change    ...    4.2465e-06  Tolerance :   1.0000e-07
  Last RMS-Density change    ...    1.4427e-07  Tolerance :   5.0000e-09
  Last Orbital Gradient      ...    2.3424e-06  Tolerance :   1.0000e-05
  Last Orbital Rotation      ...    3.2346e-06  Tolerance :   1.0000e-05

             **** THE GBW FILE WAS UPDATED (butane_anti.gbw) ****
             **** DENSITY FILE WAS UPDATED (butane_anti.scfp.tmp) ****
             **** ENERGY FILE WAS UPDATED (butane_anti.en.tmp) ****
----------------
ORBITAL ENERGIES
----------------

  NO   OCC          E(Eh)            E(eV) 
   0   2.0000     -11.223168      -305.3979 
   1   2.0000     -11.222577      -305.3819 
   2   2.0000     -11.217760      -305.2508 
   3   2.0000     -11.217755      -305.2506 
   4   2.0000      -1.064123       -28.9563 
   5   2.0000      -0.972862       -26.4729 
   6   2.0000      -0.851237       -23.1633 
   7   2.0000      -0.779468       -21.2104 
   8   2.0000      -0.632756       -17.2182 
   9   2.0000      -0.578432       -15.7399 
  10   2.0000      -0.568711       -15.4754 
  11   2.0000      -0.561423       -15.2771 
  12   2.0000      -0.508749       -13.8438 
  13   2.0000      -0.489693       -13.3252 
  14   2.0000      -0.467229       -12.7139 
  15   2.0000      -0.460048       -12.5185 
  16   2.0000      -0.451821       -12.2947 
  17   0.0000       0.141473         3.8497 
  18   0.0000       0.158146         4.3034 
  19   0.0000       0.177216         4.8223 
  20   0.0000       0.177950         4.8423 
  21   0.0000       0.212163         5.7732 
  22   0.0000       0.222733         6.0609 
  23   0.0000       0.228471         6.2170 
  24   0.0000       0.243957         6.6384 
  25   0.0000       0.247813         6.7433 
  26   0.0000       0.261072         7.1041 
  27   0.0000       0.311075         8.4648 
  28   0.0000       0.316832         8.6214 
  29   0.0000       0.357712         9.7338 
  30   0.0000       0.379711        10.3325 
  31   0.0000       0.402909        10.9637 
  32   0.0000       0.411593        11.2000 
  33   0.0000       0.429040        11.6748 
  34   0.0000       0.448711        12.2100 
  35   0.0000       0.460133        12.5209 
  36   0.0000       0.512828        13.9548 
  37   0.0000       0.554631        15.0923 
  38   0.0000       0.565875        15.3982 
  39   0.0000       0.566344        15.4110 
  40   0.0000       0.570873        15.5342 
  41   0.0000       0.616113        16.7653 
  42   0.0000       0.630832        17.1658 
  43   0.0000       0.635382        17.2896 
  44   0.0000       0.639018        17.3886 
  45   0.0000       0.640695        17.4342 
  46   0.0000       0.654631        17.8134 
  47   0.0000       0.670293        18.2396 
  48   0.0000       0.671272        18.2662 
  49   0.0000       0.673089        18.3157 
  50   0.0000       0.700698        19.0670 
  51   0.0000       0.704651        19.1745 
  52   0.0000       0.752771        20.4840 
  53   0.0000       0.805315        21.9137 
  54   0.0000       0.813963        22.1491 
  55   0.0000       0.874686        23.8014 
  56   0.0000       0.909215        24.7410 
  57   0.0000       0.925894        25.1949 
  58   0.0000       0.926490        25.2111 
  59   0.0000       0.953028        25.9332 
  60   0.0000       0.966082        26.2884 
  61   0.0000       1.010017        27.4840 
  62   0.0000       1.053007        28.6538 
  63   0.0000       1.074872        29.2488 
  64   0.0000       1.081873        29.4393 
  65   0.0000       1.101259        29.9668 
  66   0.0000       1.164583        31.6899 
  67   0.0000       1.182357        32.1736 
  68   0.0000       1.184997        32.2454 
  69   0.0000       1.224998        33.3339 
  70   0.0000       1.242692        33.8154 
  71   0.0000       1.265233        34.4288 
  72   0.0000       1.271453        34.5980 
  73   0.0000       1.287239        35.0275 
  74   0.0000       1.313503        35.7422 
  75   0.0000       1.313970        35.7550 
  76   0.0000       1.327496        36.1230 
  77   0.0000       1.361896        37.0591 
  78   0.0000       1.368483        37.2383 
  79   0.0000       1.373339        37.3704 
  80   0.0000       1.378254        37.5042 
  81   0.0000       1.390241        37.8304 
  82   0.0000       1.402100        38.1531 
  83   0.0000       1.413079        38.4518 
  84   0.0000       1.466761        39.9126 
  85   0.0000       1.482224        40.3334 
  86   0.0000       1.491974        40.5987 
  87   0.0000       1.503877        40.9226 
  88   0.0000       1.537612        41.8406 
  89   0.0000       1.542162        41.9644 
  90   0.0000       1.555533        42.3282 
  91   0.0000       1.586955        43.1832 
  92   0.0000       1.588227        43.2178 
  93   0.0000       1.612906        43.8894 
  94   0.0000       1.627269        44.2802 
  95   0.0000       1.639205        44.6050 
  96   0.0000       1.679073        45.6899 
  97   0.0000       1.716755        46.7153 
  98   0.0000       1.740314        47.3563 
  99   0.0000       1.774788        48.2944 
 100   0.0000       1.785537        48.5869 
 101   0.0000       1.787559        48.6420 
 102   0.0000       1.807396        49.1817 
 103   0.0000       1.878355        51.1126 
 104   0.0000       1.897906        51.6446 
 105   0.0000       1.919685        52.2373 
 106   0.0000       2.500144        68.0324 
 107   0.0000       2.579303        70.1864 
 108   0.0000       2.588518        70.4372 
 109   0.0000       2.602650        70.8217 
 110   0.0000       2.639001        71.8109 
 111   0.0000       2.642783        71.9138 
 112   0.0000       2.681919        72.9787 
 113   0.0000       2.700648        73.4884 
 114   0.0000       2.762623        75.1748 
 115   0.0000       2.774596        75.5006 
 116   0.0000       2.811833        76.5139 
 117   0.0000       2.821014        76.7637 
 118   0.0000       2.858889        77.7943 
 119   0.0000       2.883202        78.4559 
 120   0.0000       2.887485        78.5725 
 121   0.0000       2.897893        78.8557 
 122   0.0000       2.908892        79.1550 
 123   0.0000       2.970853        80.8410 
 124   0.0000       2.983660        81.1895 
 125   0.0000       3.007493        81.8381 
 126   0.0000       3.025684        82.3330 
 127   0.0000       3.066156        83.4343 
 128   0.0000       3.086856        83.9976 
 129   0.0000       3.111068        84.6565 
 130   0.0000       3.119783        84.8936 
 131   0.0000       3.128337        85.1264 
 132   0.0000       3.155260        85.8590 
 133   0.0000       3.180800        86.5540 
 134   0.0000       3.202231        87.1371 
 135   0.0000       3.235225        88.0350 
 136   0.0000       3.268193        88.9320 
 137   0.0000       3.275555        89.1324 
 138   0.0000       3.320734        90.3618 
 139   0.0000       3.324952        90.4766 
 140   0.0000       3.346408        91.0604 
 141   0.0000       3.349632        91.1481 
 142   0.0000       3.400106        92.5216 
 143   0.0000       3.401397        92.5567 
 144   0.0000       3.401819        92.5682 
 145   0.0000       3.408499        92.7500 
 146   0.0000       3.423730        93.1644 
 147   0.0000       3.427574        93.2690 
 148   0.0000       3.434005        93.4440 
 149   0.0000       3.485876        94.8555 
 150   0.0000       3.502356        95.3040 
 151   0.0000       3.505442        95.3879 
 152   0.0000       3.510555        95.5271 
 153   0.0000       3.547637        96.5361 
 154   0.0000       3.558999        96.8453 
 155   0.0000       3.597643        97.8968 
 156   0.0000       3.608298        98.1868 
 157   0.0000       3.634605        98.9026 
 158   0.0000       3.643771        99.1521 
 159   0.0000       3.701875       100.7331 
 160   0.0000       3.721658       101.2715 
 161   0.0000       3.734870       101.6310 
 162   0.0000       3.748715       102.0077 
 163   0.0000       3.758648       102.2780 
 164   0.0000       3.774470       102.7085 
 165   0.0000       3.806118       103.5697 
 166   0.0000       3.832292       104.2820 
 167   0.0000       3.855584       104.9158 
 168   0.0000       3.858992       105.0085 
 169   0.0000       3.881030       105.6082 
 170   0.0000       3.921996       106.7229 
 171   0.0000       3.956391       107.6589 
 172   0.0000       3.959124       107.7332 
 173   0.0000       3.997893       108.7882 
 174   0.0000       4.054821       110.3373 
 175   0.0000       4.062490       110.5460 
 176   0.0000       4.063174       110.5646 
 177   0.0000       4.097402       111.4960 
 178   0.0000       4.108700       111.8034 
 179   0.0000       4.128442       112.3406 
 180   0.0000       4.130160       112.3874 
 181   0.0000       4.151608       112.9710 
 182   0.0000       4.156316       113.0991 
 183   0.0000       4.172856       113.5492 
 184   0.0000       4.209627       114.5498 
 185   0.0000       4.214188       114.6739 
 186   0.0000       4.254318       115.7659 
 187   0.0000       4.255544       115.7992 
 188   0.0000       4.274404       116.3124 
 189   0.0000       4.275204       116.3342 
 190   0.0000       4.332262       117.8868 
 191   0.0000       4.335988       117.9882 
 192   0.0000       4.339808       118.0922 
 193   0.0000       4.384235       119.3011 
 194   0.0000       4.393711       119.5589 
 195   0.0000       4.405487       119.8794 
 196   0.0000       4.416118       120.1687 
 197   0.0000       4.421801       120.3233 
 198   0.0000       4.432635       120.6181 
 199   0.0000       4.442110       120.8760 
 200   0.0000       4.490946       122.2049 
 201   0.0000       4.514121       122.8355 
 202   0.0000       4.538012       123.4856 
 203   0.0000       4.556219       123.9810 
 204   0.0000       4.561331       124.1201 
 205   0.0000       4.595523       125.0505 
 206   0.0000       4.597563       125.1061 
 207   0.0000       4.630152       125.9928 
 208   0.0000       4.647671       126.4696 
 209   0.0000       4.683088       127.4333 
 210   0.0000       4.709747       128.1587 
 211   0.0000       4.742038       129.0374 
 212   0.0000       4.775573       129.9499 
 213   0.0000       4.884882       132.9244 
 214   0.0000       4.918475       133.8385 
 215   0.0000       4.943775       134.5270 
 216   0.0000       4.949495       134.6826 
 217   0.0000       5.030216       136.8791 
 218   0.0000       5.051708       137.4640 
 219   0.0000       5.111915       139.1023 
 220   0.0000       5.132431       139.6606 
 221   0.0000       5.144270       139.9827 
 222   0.0000       5.152373       140.2032 
 223   0.0000       5.154547       140.2624 
 224   0.0000       5.165823       140.5692 
 225   0.0000       5.221994       142.0977 
 226   0.0000       5.236674       142.4971 
 227   0.0000       5.270722       143.4236 
 228   0.0000       5.278384       143.6321 
 229   0.0000       5.310080       144.4946 
 230   0.0000       5.381876       146.4483 
 231   0.0000       5.391166       146.7011 
 232   0.0000       5.427825       147.6986 
 233   0.0000       5.504977       149.7980 
 234   0.0000       5.545480       150.9002 
 235   0.0000       5.582753       151.9144 
 236   0.0000       5.603735       152.4854 
 237   0.0000       5.611030       152.6839 
 238   0.0000       5.632919       153.2795 
 239   0.0000       5.657519       153.9489 
 240   0.0000       5.666027       154.1804 
 241   0.0000       5.709316       155.3584 
 242   0.0000       5.724085       155.7603 
 243   0.0000       5.783380       157.3738 
 244   0.0000       5.790376       157.5641 
 245   0.0000       5.828726       158.6077 
 246   0.0000       5.830476       158.6553 
 247   0.0000       5.849847       159.1824 
 248   0.0000       5.940697       161.6546 
 249   0.0000       5.984274       162.8404 
 250   0.0000       6.237027       169.7181 
 251   0.0000       6.280553       170.9025 
 252   0.0000       6.282223       170.9480 
 253   0.0000       6.288283       171.1129 
 254   0.0000       6.306731       171.6149 
 255   0.0000       6.385452       173.7570 
 256   0.0000      12.582992       342.4006 
 257   0.0000      13.136523       357.4630 
 258   0.0000      13.628965       370.8630 
 259   0.0000      13.753639       374.2556 

                    ********************************
                    * MULLIKEN POPULATION ANALYSIS *
                    ********************************

-----------------------
MULLIKEN ATOMIC CHARGES
-----------------------
   0 C :   -0.276888
   1 C :   -0.143668
   2 C :   -0.143666
   3 C :   -0.276888
   4 H :    0.093126
   5 H :    0.082460
   6 H :    0.082460
   7 H :    0.081252
   8 H :    0.081257
   9 H :    0.081254
  10 H :    0.081256
  11 H :    0.093125
  12 H :    0.082461
  13 H :    0.082460
Sum of atomic charges:   -0.0000000

--------------------------------
MULLIKEN REDUCED ORBITAL CHARGES
--------------------------------
  0 C s       :     3.264260  s :     3.264260
      pz      :     0.995290  p :     2.923375
      px      :     0.935364
      py      :     0.992721
      dz2     :     0.014416  d :     0.084431
      dxz     :     0.008941
      dyz     :     0.023521
      dx2y2   :     0.013377
      dxy     :     0.024175
      f0      :     0.000225  f :     0.004823
      f+1     :     0.000453
      f-1     :     0.001560
      f+2     :     0.000215
      f-2     :     0.000311
      f+3     :     0.000914
      f-3     :     0.001146
  1 C s       :     3.208954  s :     3.208954
      pz      :     0.987660  p :     2.813235
      px      :     0.874581
      py      :     0.950994
      dz2     :     0.016196  d :     0.114834
      dxz     :     0.013215
      dyz     :     0.037324
      dx2y2   :     0.023590
      dxy     :     0.024509
      f0      :     0.000460  f :     0.006645
      f+1     :     0.000720
      f-1     :     0.001566
      f+2     :     0.000246
      f-2     :     0.000684
      f+3     :     0.001393
      f-3     :     0.001576
  2 C s       :     3.208952  s :     3.208952
      pz      :     0.987661  p :     2.813235
      px      :     0.874581
      py      :     0.950993
      dz2     :     0.016196  d :     0.114835
      dxz     :     0.013215
      dyz     :     0.037324
      dx2y2   :     0.023590
      dxy     :     0.024510
      f0      :     0.000460  f :     0.006645
      f+1     :     0.000720
      f-1     :     0.001566
      f+2     :     0.000246
      f-2     :     0.000684
      f+3     :     0.001393
      f-3     :     0.001576
  3 C s       :     3.264260  s :     3.264260
      pz      :     0.995290  p :     2.923375
      px      :     0.935363
      py      :     0.992722
      dz2     :     0.014416  d :     0.084431
      dxz     :     0.008942
      dyz     :     0.023521
      dx2y2   :     0.013377
      dxy     :     0.024175
      f0      :     0.000225  f :     0.004823
      f+1     :     0.000453
      f-1     :     0.001560
      f+2     :     0.000215
      f-2     :     0.000311
      f+3     :     0.000914
      f-3     :     0.001146
  4 H s       :     0.877905  s :     0.877905
      pz      :     0.007359  p :     0.026860
      px      :     0.011514
      py      :     0.007987
      dz2     :     0.000214  d :     0.002109
      dxz     :     0.000241
      dyz     :     0.000303
      dx2y2   :     0.000796
      dxy     :     0.000555
  5 H s       :     0.888935  s :     0.888935
      pz      :     0.009114  p :     0.026498
      px      :     0.008202
      py      :     0.009183
      dz2     :     0.000564  d :     0.002107
      dxz     :     0.000440
      dyz     :     0.000591
      dx2y2   :     0.000170
      dxy     :     0.000343
  6 H s       :     0.888935  s :     0.888935
      pz      :     0.009114  p :     0.026498
      px      :     0.008202
      py      :     0.009183
      dz2     :     0.000564  d :     0.002107
      dxz     :     0.000440
      dyz     :     0.000591
      dx2y2   :     0.000170
      dxy     :     0.000343
  7 H s       :     0.888783  s :     0.888783
      pz      :     0.008680  p :     0.027609
      px      :     0.008571
      py      :     0.010358
      dz2     :     0.000557  d :     0.002356
      dxz     :     0.000511
      dyz     :     0.000638
      dx2y2   :     0.000220
      dxy     :     0.000430
  8 H s       :     0.888779  s :     0.888779
      pz      :     0.008680  p :     0.027609
      px      :     0.008572
      py      :     0.010358
      dz2     :     0.000557  d :     0.002356
      dxz     :     0.000511
      dyz     :     0.000638
      dx2y2   :     0.000220
      dxy     :     0.000430
  9 H s       :     0.888781  s :     0.888781
      pz      :     0.008680  p :     0.027609
      px      :     0.008571
      py      :     0.010358
      dz2     :     0.000557  d :     0.002356
      dxz     :     0.000511
      dyz     :     0.000638
      dx2y2   :     0.000220
      dxy     :     0.000430
 10 H s       :     0.888779  s :     0.888779
      pz      :     0.008680  p :     0.027609
      px      :     0.008571
      py      :     0.010358
      dz2     :     0.000557  d :     0.002356
      dxz     :     0.000511
      dyz     :     0.000638
      dx2y2   :     0.000220
      dxy     :     0.000430
 11 H s       :     0.877907  s :     0.877907
      pz      :     0.007359  p :     0.026860
      px      :     0.011514
      py      :     0.007987
      dz2     :     0.000214  d :     0.002109
      dxz     :     0.000241
      dyz     :     0.000303
      dx2y2   :     0.000796
      dxy     :     0.000555
 12 H s       :     0.888933  s :     0.888933
      pz      :     0.009114  p :     0.026498
      px      :     0.008202
      py      :     0.009183
      dz2     :     0.000564  d :     0.002107
      dxz     :     0.000440
      dyz     :     0.000591
      dx2y2   :     0.000170
      dxy     :     0.000343
 13 H s       :     0.888935  s :     0.888935
      pz      :     0.009114  p :     0.026498
      px      :     0.008202
      py      :     0.009183
      dz2     :     0.000564  d :     0.002107
      dxz     :     0.000440
      dyz     :     0.000591
      dx2y2   :     0.000170
      dxy     :     0.000343


                     *******************************
                     * LOEWDIN POPULATION ANALYSIS *
                     *******************************

----------------------
LOEWDIN ATOMIC CHARGES
----------------------
   0 C :    0.089166
   1 C :    0.032414
   2 C :    0.032412
   3 C :    0.089165
   4 H :   -0.025503
   5 H :   -0.025945
   6 H :   -0.025945
   7 H :   -0.022092
   8 H :   -0.022096
   9 H :   -0.022094
  10 H :   -0.022094
  11 H :   -0.025502
  12 H :   -0.025945
  13 H :   -0.025943

-------------------------------
LOEWDIN REDUCED ORBITAL CHARGES
-------------------------------
  0 C s       :     2.675891  s :     2.675891
      pz      :     0.980933  p :     2.892338
      px      :     0.939367
      py      :     0.972038
      dz2     :     0.052971  d :     0.314450
      dxz     :     0.035437
      dyz     :     0.084888
      dx2y2   :     0.050845
      dxy     :     0.090310
      f0      :     0.001948  f :     0.028155
      f+1     :     0.004072
      f-1     :     0.004858
      f+2     :     0.004331
      f-2     :     0.002650
      f+3     :     0.005593
      f-3     :     0.004703
  1 C s       :     2.671368  s :     2.671368
      pz      :     0.969571  p :     2.832072
      px      :     0.918020
      py      :     0.944481
      dz2     :     0.058523  d :     0.424862
      dxz     :     0.050926
      dyz     :     0.121568
      dx2y2   :     0.093963
      dxy     :     0.099882
      f0      :     0.003482  f :     0.039283
      f+1     :     0.004610
      f-1     :     0.005214
      f+2     :     0.004579
      f-2     :     0.005544
      f+3     :     0.008801
      f-3     :     0.007053
  2 C s       :     2.671366  s :     2.671366
      pz      :     0.969571  p :     2.832073
      px      :     0.918021
      py      :     0.944481
      dz2     :     0.058524  d :     0.424866
      dxz     :     0.050927
      dyz     :     0.121567
      dx2y2   :     0.093963
      dxy     :     0.099884
      f0      :     0.003482  f :     0.039284
      f+1     :     0.004610
      f-1     :     0.005214
      f+2     :     0.004579
      f-2     :     0.005544
      f+3     :     0.008802
      f-3     :     0.007053
  3 C s       :     2.675889  s :     2.675889
      pz      :     0.980931  p :     2.892337
      px      :     0.939367
      py      :     0.972038
      dz2     :     0.052973  d :     0.314453
      dxz     :     0.035438
      dyz     :     0.084887
      dx2y2   :     0.050845
      dxy     :     0.090311
      f0      :     0.001948  f :     0.028156
      f+1     :     0.004072
      f-1     :     0.004858
      f+2     :     0.004331
      f-2     :     0.002650
      f+3     :     0.005594
      f-3     :     0.004704
  4 H s       :     0.854512  s :     0.854512
      pz      :     0.037147  p :     0.145328
      px      :     0.055569
      py      :     0.052613
      dz2     :     0.002182  d :     0.025662
      dxz     :     0.003769
      dyz     :     0.004750
      dx2y2   :     0.008331
      dxy     :     0.006629
  5 H s       :     0.855379  s :     0.855379
      pz      :     0.059085  p :     0.144766
      px      :     0.036600
      py      :     0.049081
      dz2     :     0.007922  d :     0.025800
      dxz     :     0.005156
      dyz     :     0.006860
      dx2y2   :     0.002451
      dxy     :     0.003410
  6 H s       :     0.855379  s :     0.855379
      pz      :     0.059085  p :     0.144766
      px      :     0.036600
      py      :     0.049081
      dz2     :     0.007922  d :     0.025800
      dxz     :     0.005156
      dyz     :     0.006860
      dx2y2   :     0.002451
      dxy     :     0.003410
  7 H s       :     0.850610  s :     0.850610
      pz      :     0.059129  p :     0.145248
      px      :     0.036318
      py      :     0.049801
      dz2     :     0.007928  d :     0.026234
      dxz     :     0.004966
      dyz     :     0.007240
      dx2y2   :     0.002560
      dxy     :     0.003541
  8 H s       :     0.850610  s :     0.850610
      pz      :     0.059130  p :     0.145251
      px      :     0.036319
      py      :     0.049802
      dz2     :     0.007928  d :     0.026235
      dxz     :     0.004966
      dyz     :     0.007240
      dx2y2   :     0.002560
      dxy     :     0.003541
  9 H s       :     0.850609  s :     0.850609
      pz      :     0.059130  p :     0.145249
      px      :     0.036318
      py      :     0.049801
      dz2     :     0.007928  d :     0.026235
      dxz     :     0.004966
      dyz     :     0.007240
      dx2y2   :     0.002560
      dxy     :     0.003541
 10 H s       :     0.850609  s :     0.850609
      pz      :     0.059129  p :     0.145250
      px      :     0.036318
      py      :     0.049802
      dz2     :     0.007928  d :     0.026235
      dxz     :     0.004966
      dyz     :     0.007240
      dx2y2   :     0.002560
      dxy     :     0.003541
 11 H s       :     0.854511  s :     0.854511
      pz      :     0.037147  p :     0.145329
      px      :     0.055569
      py      :     0.052613
      dz2     :     0.002182  d :     0.025662
      dxz     :     0.003769
      dyz     :     0.004750
      dx2y2   :     0.008331
      dxy     :     0.006629
 12 H s       :     0.855378  s :     0.855378
      pz      :     0.059085  p :     0.144767
      px      :     0.036601
      py      :     0.049081
      dz2     :     0.007922  d :     0.025800
      dxz     :     0.005156
      dyz     :     0.006860
      dx2y2   :     0.002451
      dxy     :     0.003410
 13 H s       :     0.855378  s :     0.855378
      pz      :     0.059084  p :     0.144765
      px      :     0.036600
      py      :     0.049081
      dz2     :     0.007922  d :     0.025800
      dxz     :     0.005156
      dyz     :     0.006860
      dx2y2   :     0.002451
      dxy     :     0.003410


                      *****************************
                      * MAYER POPULATION ANALYSIS *
                      *****************************

  NA   - Mulliken gross atomic population
  ZA   - Total nuclear charge
  QA   - Mulliken gross atomic charge
  VA   - Mayer's total valence
  BVA  - Mayer's bonded valence
  FA   - Mayer's free valence

  ATOM       NA         ZA         QA         VA         BVA        FA
  0 C      6.2769     6.0000    -0.2769     3.9002     3.9002    -0.0000
  1 C      6.1437     6.0000    -0.1437     3.8582     3.8582    -0.0000
  2 C      6.1437     6.0000    -0.1437     3.8582     3.8582     0.0000
  3 C      6.2769     6.0000    -0.2769     3.9002     3.9002    -0.0000
  4 H      0.9069     1.0000     0.0931     0.9802     0.9802    -0.0000
  5 H      0.9175     1.0000     0.0825     0.9807     0.9807    -0.0000
  6 H      0.9175     1.0000     0.0825     0.9807     0.9807    -0.0000
  7 H      0.9187     1.0000     0.0813     0.9818     0.9818     0.0000
  8 H      0.9187     1.0000     0.0813     0.9818     0.9818    -0.0000
  9 H      0.9187     1.0000     0.0813     0.9818     0.9818    -0.0000
 10 H      0.9187     1.0000     0.0813     0.9818     0.9818     0.0000
 11 H      0.9069     1.0000     0.0931     0.9802     0.9802    -0.0000
 12 H      0.9175     1.0000     0.0825     0.9807     0.9807    -0.0000
 13 H      0.9175     1.0000     0.0825     0.9807     0.9807     0.0000

  Mayer bond orders larger than 0.1
B(  0-C ,  1-C ) :   0.9592 B(  0-C ,  4-H ) :   0.9883 B(  0-C ,  5-H ) :   0.9823 
B(  0-C ,  6-H ) :   0.9823 B(  1-C ,  2-C ) :   0.9568 B(  1-C ,  7-H ) :   0.9820 
B(  1-C ,  8-H ) :   0.9820 B(  2-C ,  3-C ) :   0.9592 B(  2-C ,  9-H ) :   0.9820 
B(  2-C , 10-H ) :   0.9820 B(  3-C , 11-H ) :   0.9883 B(  3-C , 12-H ) :   0.9823 
B(  3-C , 13-H ) :   0.9823 

-------
TIMINGS
-------

Total SCF time: 0 days 0 hours 0 min 6 sec 

Total time                  ....       6.461 sec
Sum of individual times     ....       6.246 sec  ( 96.7%)

Fock matrix formation       ....       5.830 sec  ( 90.2%)
Diagonalization             ....       0.064 sec  (  1.0%)
Density matrix formation    ....       0.007 sec  (  0.1%)
Population analysis         ....       0.024 sec  (  0.4%)
Initial guess               ....       0.188 sec  (  2.9%)
Orbital Transformation      ....       0.000 sec  (  0.0%)
Orbital Orthonormalization  ....       0.000 sec  (  0.0%)
DIIS solution               ....       0.000 sec  (  0.0%)
SOSCF solution              ....       0.050 sec  (  0.8%)


           ************************************************************
           *        Program running with 8 parallel MPI-processes     *
           *              working on a common directory               *
           ************************************************************


------------------------------------------------------------------------------- 
                              ORCA-MATRIX DRIVEN CI                            
------------------------------------------------------------------------------- 


Wavefunction type
-----------------
Correlation treatment                      ...      CCSD     
Single excitations                         ... ON
Orbital optimization                       ... OFF
Calculation of Z vector                    ... OFF
Calculation of Brueckner orbitals          ... OFF
Perturbative triple excitations            ... ON
Calculation of F12 correction              ... OFF
Frozen core treatment                      ... chemical core (8 el)
Reference Wavefunction                     ... RHF
  Internal Orbitals:     4 ...   16 ( 13 MO's/ 26 electrons)
  Virtual  Orbitals:    17 ...  259 (243 MO's              )
Number of AO's                             ...    260
Number of electrons                        ...     34
Number of correlated electrons             ...     26

Algorithmic settings
--------------------
Integral transformation                    ... All integrals via the RI transformation
K(C) Formation                             ... RI-DLPNO
   PNO-Integral Storage                    ... ON DISK
   PNO occupation number cut-off           ... 1.000e-07
   Singles PNO occupation number cut-off   ... 3.000e-09
   PNO Mulliken prescreening cut-off       ... 1.000e-03
   Domain cut-off (Mulliken population)    ... 1.000e-03
   PNO Normalization                       ...    1
Maximum number of iterations               ...        50
Convergence tolerance (max. residuum)      ... 1.000e-05
Level shift for amplitude update           ... 2.000e-01
Maximum number of DIIS vectors             ...         7
DIIS turned on at iteration                ...         0
Damping before turning on DIIS             ...     0.500
Damping after turning on DIIS              ...     0.000
Pair specific amplitude update             ... OFF
Natural orbital iterations                 ... OFF
Perturbative natural orbital generation    ... OFF
Printlevel                                 ... 2

Singles Fock matrix elements calculated using PNOs.

Memory handling:
----------------
Maximum memory for working arrays          ...   8000 MB
Data storage in matrix containers          ... UNCOMPRESSED
Data type for integral storage             ... DOUBLE
In-Core Storage of quantities:
   Amplitudes+Sigma Vector      ... NO
   J+K operators                ... NO
   DIIS vectors                 ... NO
   3-external integrals         ... NO
   4-external integrals         ... NO

Localization treatment:
-----------------------
Localization option                        ...    6
Localization threshhold                    ... -1.0e+00
Using relative localization threshhold     ... 1.0e-08
Neglect threshold for strong pairs         ... 1.000e-05 Eh
Prescreening threshold for very weak pairs ... 1.000e-07 Eh

Initializing the integral package          ... done
Localizing the valence orbitals
------------------------------------------------------------------------------
                           ORCA ORBITAL LOCALIZATION
------------------------------------------------------------------------------

Input orbitals are from                  ... butane_anti.proc0.gbw
Output orbitals are to                   ... butane_anti.proc0.loc
Max. number of iterations                ... 128
Localizations seeded randomly            ... off
Convergence tolerance                    ... 1.000e-06
Using relative localization threshhold   ... 1.000e-08
Treshold for strong local MOs            ... 9.500e-01
Treshold for bond MOs                    ... 8.500e-01
Operator                                 ... 0
Orbital range for localization           ... 4 to 16
Localization criterion                   ... FOSTER-BOYS (AUGMENTED HESSIAN)
Doing the dipole integrals     ... o.k.
Initial value of the localization sum :   108.106894
ITERATION   0 : L=  145.1767131209 DL=  3.71e+01 (AVERGE_DL)=    0.6893867461 
ITERATION   1 : L=  149.0724692406 DL=  3.90e+00 (AVERGE_DL)=    0.2234851030 
ITERATION   2 : L=  149.1323646271 DL=  5.99e-02 (AVERGE_DL)=    0.0277108205 
ITERATION   3 : L=  149.1324480117 DL=  8.34e-05 (AVERGE_DL)=    0.0010339405 
ITERATION   4 : L=  149.1324481882 DL=  1.77e-07 (AVERGE_DL)=    0.0000475761 
LOCALIZATION SUM CONVERGED

------------------------------------------------------
AUGMENTED HESSIAN OPTIMIZATION OF FOSTER-BOYS ORBITALS
------------------------------------------------------

Spin operator:           0
Orbital window:          4 to 16
Number of iterations:    128
Gradient tolerance:      1.000e-06
Number of pairs:         78
Davidson threshold:      2000
Diagonalization method:  LAPACK
Iter:    0   L: 149.1324481882   Grad. norm: 4.936222e-04
   *** Likely close to a maximum now. ***
       Augmented Hessian eigenvalues:  3.06e-09 -1.78e+01 -1.78e+01 -1.84e+01 ... 
Iter:    1   L: 149.1324481898   Grad. norm: 1.769323e-10
LOCALIZATION HAS CONVERGED.

Eigenvalues of the Hessian:
  0 -1.781e+01
  1 -1.781e+01
  2 -1.837e+01
  3 -1.843e+01
  4 -1.850e+01
  5 -1.856e+01
  6 -1.861e+01
  7 -1.876e+01
  8 -1.902e+01
  9 -1.923e+01
    ...


------------------------------------------------------------------------------- 
                    LOCALIZED MOLECULAR ORBITAL COMPOSITIONS                   
------------------------------------------------------------------------------- 

The Mulliken populations for each LMO on each atom are computed
The LMO`s will be ordered according to atom index and type
  (A) Strongly localized MO`s have populations of >=0.950 on one atom
  (B) Two center bond orbitals have populations of >=0.850 on two atoms
  (C) Other MO`s are considered to be `delocalized`

FOUND  -   0 strongly local MO`s
       -  13 two center bond MO`s
       -   0 significantly delocalized MO`s

Bond-like localized orbitals:
MO  16:  13H  -   0.479168  and   3C  -   0.546936
MO  15:  12H  -   0.479168  and   3C  -   0.546937
MO  14:  11H  -   0.472849  and   3C  -   0.556147
MO  13:  10H  -   0.479104  and   2C  -   0.546387
MO  12:   9H  -   0.479106  and   2C  -   0.546386
MO  11:   8H  -   0.479104  and   1C  -   0.546387
MO  10:   7H  -   0.479107  and   1C  -   0.546384
MO   9:   6H  -   0.479169  and   0C  -   0.546936
MO   8:   5H  -   0.479169  and   0C  -   0.546936
MO   7:   4H  -   0.472848  and   0C  -   0.556147
MO   6:   3C  -   0.512049  and   2C  -   0.523168
MO   5:   2C  -   0.517508  and   1C  -   0.517510
MO   4:   1C  -   0.523167  and   0C  -   0.512050
Localized MO's were stored in: butane_anti.proc0.loc

Localizing the core orbitals
------------------------------------------------------------------------------
                           ORCA ORBITAL LOCALIZATION
------------------------------------------------------------------------------

Input orbitals are from                  ... butane_anti.proc0.loc
Output orbitals are to                   ... butane_anti.proc0.loc
Max. number of iterations                ... 128
Localizations seeded randomly            ... off
Convergence tolerance                    ... 1.000e-06
Using relative localization threshhold   ... 1.000e-08
Treshold for strong local MOs            ... 9.500e-01
Treshold for bond MOs                    ... 8.500e-01
Operator                                 ... 0
Orbital range for localization           ... 0 to 3
Localization criterion                   ... FOSTER-BOYS (AUGMENTED HESSIAN)
Doing the dipole integrals     ... o.k.
Initial value of the localization sum :    31.512578
ITERATION   0 : L=   31.5125779937 DL=  4.55e-07 (AVERGE_DL)=    0.0002753088 
LOCALIZATION SUM CONVERGED

------------------------------------------------------
AUGMENTED HESSIAN OPTIMIZATION OF FOSTER-BOYS ORBITALS
------------------------------------------------------

Spin operator:           0
Orbital window:          0 to 3
Number of iterations:    128
Gradient tolerance:      1.000e-06
Number of pairs:         6
Davidson threshold:      2000
Diagonalization method:  LAPACK
Iter:    0   L: 31.5125779937   Grad. norm: 6.375508e-07
   *** Likely close to a maximum now. ***
       Augmented Hessian eigenvalues:  1.89e-15 -3.36e+01 -3.36e+01 -3.37e+01 ... 
Iter:    1   L: 31.5125779937   Grad. norm: 2.108128e-21
LOCALIZATION HAS CONVERGED.

Eigenvalues of the Hessian:
  0 -3.363e+01
  1 -3.363e+01
  2 -3.373e+01
  3 -9.242e+01
  4 -9.242e+01
  5 -2.184e+02


------------------------------------------------------------------------------- 
                    LOCALIZED MOLECULAR ORBITAL COMPOSITIONS                   
------------------------------------------------------------------------------- 

The Mulliken populations for each LMO on each atom are computed
The LMO`s will be ordered according to atom index and type
  (A) Strongly localized MO`s have populations of >=0.950 on one atom
  (B) Two center bond orbitals have populations of >=0.850 on two atoms
  (C) Other MO`s are considered to be `delocalized`

FOUND  -   4 strongly local MO`s
       -   0 two center bond MO`s
       -   0 significantly delocalized MO`s

Rather strongly localized orbitals:
MO   3:   3C  -   1.001089
MO   2:   2C  -   1.001254
MO   1:   1C  -   1.001253
MO   0:   0C  -   1.001089
Localized MO's were stored in: butane_anti.proc0.loc

Warning: internal orbitals are localized - no re-canonicalization of internal orbitals

--------------------------
CLOSED-SHELL FOCK OPERATOR
--------------------------

RI-JK section for the Fock operator:
  RHF full Fock operator         ... done
  RHF frozen core Fock operator  ... done
Time needed for Fock operator              ...            1.093 sec
Reference energy                           ...   -157.349872083

--------------
DLPNO SETTINGS (2015 fully linear scaling implementation)
--------------

TCutMKN:           1.000e-03
TCutPAO:           1.000e-03
TCutPNO:           1.000e-07
TCutPNOSingles:    3.000e-09
TCutEN:            9.700e-01
TCutPAOExt:        1.000e-01
TCutPairs:         1.000e-05
TCutPre:           1.000e-07
TCutOSV:           1.000e-06
TCutDOij:          1.000e-05
TCutDO:            5.000e-03
TCutC:             1.000e-04
TCutCPAO:          1.000e-03
TCutCMO:           1.000e-03
TScaleDOMP2PreScr: 2.000e+00
TScaleMKNMP2PreScr:1.000e+01
TScalePNOMP2PreScr:1.000e+00
PAO overlap thresh 1.000e-08
Using PNOs for Singles Fock computation
Use new domains
Use fully linear algorithm
TCutTNO:           1.000e-09
TCutMP2Pairs:      1.000e-06
TCutDOStrong:      2.000e-03
TCutMKNStrong:     1.000e-02
TCutMKNWeak:       1.000e-01
TCutDOWeak:        4.000e-03
NTCutTNO:          1

--------------------------
Calculating differential overlap integrals ... ok
--------------------------
ELECTRON PAIR PRESCREENING
--------------------------

Dipole-based pair screening          .... used

   TCutDOij = 1.000000e-05
   TCutPre  = 1.000000e-07
   .... Finished loop over pairs
Total time spent in the prescreening                  ...     0.000 sec
sum of pair energies estimated for screened out pairs ...       0.000000000000 Eh
Thresholds for map construction and integral transformation for crude MP2:
   TCutMKN                    ...     1.0e-02
   TCutDO                     ...     1.0e-02
   TCutPairs                  ...     1.0e-05
   TCutPNO_CrudeMP2           ...     1.0e-07
   TCutPNOSingles_CrudeMP2    ...     3.0e-09
--------------------------------
LOCAL RI TRANSFORMATION (IAVPAO)
--------------------------------

Orbital window:       4 to 16
Number of PAOs:     260
Basis functions:    260 (100 shells)
Aux. functions:     624 (192 shells)

Processing maps (0.0 sec)
Average map sizes:
   Aux shells -> MOs              13.0
   Aux shells -> PAOs            260.0
   MOs        -> AO shells        96.3
   PAOs       -> AO shells       100.0

Calculating integrals (0.4 sec, 16.098 MB)
Sorting integrals (0.0 sec, 16.091 MB)
Total time for the integral transformation: 0.5 sec
--------------------------------
INITIAL GUESS AND PNO GENERATION
--------------------------------

PNO truncation parameters                   .... 
    PAOOverlapThresh   =        1.000e-08

    TCutPairs          =        1.000e-05
    TCutPNO            =        1.000e-07
    TCutPNOSingles     =        3.000e-09
    TCutMP2Pairs       =        1.000e-06
    TCutMKN            =        1.000e-02
    TCutDO             =        1.000e-02

Pair selection                          .... not used
Type of local MP2 treatment                 .... semi-local MP2
Strategy for PNO selection                  .... occupation number selection
Pair density normalization                  .... MP2 norm
Spin component scaling                      .... not used

   .... Finished loop over pairs
Making pair pair interaction lists          ... done

                       ===========================
                         91 OF   91 PAIRS ARE KEPT CCSD PAIRS
                          0 OF   91 PAIRS ARE KEPT MP2 PAIRS FOR (T)
                          0 OF   91 PAIRS ARE SKIPPED
                       ===========================

Total time spent in the initial guess                 ...     0.581 sec
SL-MP2 correlation energy (all non-screened pairs)    ...      -0.703578194041 Eh

Initial PNO correlation energy                        ...      -0.703020954562 Eh
sum of pair energies prescreened and skipped MP2 pairs...       0.000000000000 Eh
sum of pair energies of crude MP2 skipped pairs only  ...       0.000000000000 Eh
sum of MP2 pair energies for pairs that were not kept ...       0.000000000000 Eh
sum of PNO error estimates for the kept pairs         ...      -0.000557239479 Eh
                                                          --------------------
sum of all corrections                                         -0.000557239479
Initial total correlation energy                               -0.703578194041
Thresholds for map construction and integral transformation for fine MP2 and CCSD(T) calculation:
   TCutMKN   ...     1.0e-03
   TCutDO    ...     5.0e-03
   TCutPairs ...     1.0e-05
   TCutCMO   ...     1.0e-03
   TCutCPAO  ...     1.0e-03

Thresholds for map construction and integral transformation for strong Triples:
   TCutMKN   ...     1.0e-02
   TCutDO    ...     1.0e-02
   TCutCMO   ...     1.0e-03
   TCutCPAO  ...     1.0e-03

Thresholds for map construction and integral transformation for weak Triples:
   TCutMKN   ...     1.0e-01
   TCutDO    ...     2.0e-02
   TCutCMO   ...     1.0e-03
   TCutCPAO  ...     1.0e-03

--------------------------------
LOCAL RI TRANSFORMATION (IAVPAO)
--------------------------------

Orbital window:       4 to 16
Number of PAOs:     260
Basis functions:    260 (100 shells)
Aux. functions:     624 (192 shells)

Processing maps (0.0 sec)
Average map sizes:
   Aux shells -> MOs              13.0
   Aux shells -> PAOs            260.0
   MOs        -> AO shells        96.3
   PAOs       -> AO shells       100.0

Calculating integrals (0.4 sec, 16.098 MB)
Sorting integrals (0.0 sec, 16.091 MB)
Total time for the integral transformation: 0.5 sec
--------------------------------
INITIAL GUESS AND PNO GENERATION
--------------------------------

PNO truncation parameters                   .... 
    ScaleTCutPNO       =        1.000e-02
    PAOOverlapThresh   =        1.000e-08

    TCutPairs          =        1.000e-05
    TCutPNO            =        1.000e-07
    TCutPNOSingles     =        3.000e-09
    TCutMP2Pairs       =        1.000e-06
    TCutMKN            =        1.000e-03
    TCutDO             =        5.000e-03

Pair selection                          .... not used
Type of local MP2 treatment                 .... full local PMP2
Strategy for PNO selection                  .... occupation number selection
Pair density normalization                  .... MP2 norm
Spin component scaling                      .... not used

PASS-1: Formation of initial guess LMP2 amplitudes
Initial amplitudes guess done. Entering LMP2 iteration loop:
   Max. no of iterations          ...  50
   Energy convergence tolerance   ...    1.0e-07
   Residual convergence tolerance ...    5.0e-07
   Fock matrix cutoff             ...    1.0e-05 Eh
   DIIS convergence acceleration parameters:
        Max # vectors in DIIS     ... 7
        Start iteration of DIIS   ... 0
        Levelshift                ... 2.000e-01
        Damping factor 1          ... 5.000e-01
        Damping factor 2          ... 1.000e+00
   L-MP2 PNO cut-off              ...   1.0e-09
   L-MP2 PNO cut-off (core)       ...   1.0e-11
                           *** Turning on DIIS ***
LMP2-Iter=   0:  ELMP2= -0.713396741923  DE=   9.6e-03 RMAX=   3.9e-03
LMP2-Iter=   1:  ELMP2= -0.718871573487  DE=   5.5e-03 RMAX=   1.2e-03
LMP2-Iter=   2:  ELMP2= -0.719636189821  DE=   7.6e-04 RMAX=   1.4e-04
LMP2-Iter=   3:  ELMP2= -0.719699300050  DE=   6.3e-05 RMAX=   5.2e-05
LMP2-Iter=   4:  ELMP2= -0.719700536390  DE=   1.2e-06 RMAX=   4.4e-06
LMP2-Iter=   5:  ELMP2= -0.719700123705  DE=   4.1e-07 RMAX=   1.4e-06
LMP2-Iter=   6:  ELMP2= -0.719700091156  DE=   3.3e-08 RMAX=   1.3e-07
LMP2-Iter=   7:  ELMP2= -0.719700090450  DE=   7.1e-10 RMAX=   3.9e-08 => CONVERGED
PASS-2: Formation of Pair natural orbitals
   .... Finished loop over pairs

 PNO Occupation Number Statistics: 
  | Av. % of trace(Dij) retained        ...  99.645319118538
  | sigma^2 in % of trace(Dij) retained ...   3.33e-01
  | Av. % of trace(Di) retained         ...  99.999771598514
  | sigma^2 in % of trace(Di) retained  ...   4.45e-09
 Distributions of % trace(Dij) recovered:
  |       >= 99.9  ...    37 ( 40.7 % of all pairs)
  |   [90.0, 99.0) ...     9 (  9.9 % of all pairs)
  |   [99.0, 99.9) ...    45 ( 49.5 % of all pairs)
 Distributions of % trace(Di) recovered :
  |       >= 99.9  ...    13 (100.0 % of all I-pairs )

Making pair pair interaction lists          ... done

                       ===========================
                         91 OF   91 PAIRS ARE KEPT
                       ===========================

Total time spent in the initial guess                 ...     4.124 sec
L-MP2 correlation energy (all non-screened pairs)     ...      -0.719700090450 Eh
L-MP2 PNO error correction                            ...      -0.000010040287 Eh
                                                          --------------------
Initial total L-MP2 energy (non-screened pairs)       ...      -0.719710130737 Eh

Initial PNO correlation energy                        ...      -0.719167599793 Eh
sum of pair energies estimated for screened out pairs ...       0.000000000000 Eh
sum of MP2 pair energies for pairs that were not kept ...       0.000000000000 Eh
sum of PNO error estimates for the kept pairs         ...      -0.000542530944 Eh
                                                          --------------------
sum of all corrections                                         -0.000542530944
Initial total correlation energy                               -0.719710130737
Thresholds for map construction and integral transformation for fine MP2 and CCSD(T) calculation:
   TCutMKN   ...     1.0e-03
   TCutDO    ...     5.0e-03
   TCutPairs ...     1.0e-05
   TCutCMO   ...     1.0e-03
   TCutCPAO  ...     1.0e-03

Time for aux screen maps:            0.002
Time for maps after fine MP2:            0.006
-----------------------------
LOCAL RI TRANSFORMATION (IJV)
-----------------------------

Orbital window:       4 to 16
Basis functions:    260 (100 shells)
Aux. functions:     624 (192 shells)

Processing maps (0.0 sec)
Average map sizes:
   Aux shells -> MOs(i)           13.0
   Aux shells -> MOs(j)           13.0
   MOs        -> AO shells        96.3

Calculating integrals (0.4 sec, 0.812 MB)
Sorting integrals (0.0 sec, 0.805 MB)
Total time for the integral transformation: 0.4 sec
--------------------------------
LOCAL RI TRANSFORMATION (VABPAO)
--------------------------------

Number of PAOs:     260
Basis functions:    260 (100 shells)
Aux. functions:     624 (192 shells)

Processing maps (0.0 sec)
Average map sizes:
   Aux shells -> PAOs            260.0
   PAOs       -> AO shells       100.0

Calculating integrals (0.9 sec, 608.595 MB)
Finished


-------------------------------------
Pair Pair Term precalculation with     
RI-(ij|mn) and (im|jn) transformation  
ON THE FLY                             
-------------------------------------

   IBatch   1 (of   1)              ... done (   15.926 sec)
Total EXT                           ...          15.926 sec

---------------------
RI-PNO TRANSFORMATION
---------------------

Total Number of PNOs                   ...  4311
Average number of PNOs per pair        ...    47
Maximal number of PNOs per pair        ...    71
   #pairs with  1 -  5 PNOs   :    0
   #pairs with  6 - 10 PNOs   :    2
   #pairs with 11 - 15 PNOs   :    6
   #pairs with 16 - 20 PNOs   :    1
   #pairs with 21 - 25 PNOs   :    0
   #pairs with 26 - 30 PNOs   :    8
   #pairs with 31 - 35 PNOs   :    8
   #pairs with 36 - 40 PNOs   :    2
   #pairs with 41 - 45 PNOs   :    0
   #pairs with 46 - 50 PNOs   :   20
   #pairs with 51 - 55 PNOs   :   17
   #pairs with 61 - 65 PNOs   :    8
   #pairs with 66 - 70 PNOs   :   17
   #pairs with 71 - 75 PNOs   :    2

Generation of (ij|ab)[P] integrals            ... on
Generation of (ia|bc)[P],(ja|bc)[P] integrals ... on
Storage of 3 and 4 external integrals         ... on
Generation of ALL (ka|bc)[P] integrals        ... on
Keep RI integrals in memory                   ... off

Ibatch:  1 (of  1)
Starting 2-4 index PNO integral generation ... done

Timings:
Total PNO integral transformation time     ...          8.953 sec
Size of the 3-external file                ...       101 MB
Size of the 4-external file                ...       759 MB
Size of the IKJL file                      ...         0 MB
Size of the all 3-external file            ...       658 MB
Size of the 1-external file                ...         1 MB

Making pair/pair overlap matrices          ... done (    0.469 sec)
Size of the pair overlap file              ... 114 MB
Redoing the guess amplitudes               ... done (    0.002 sec)

-------------------------
FINAL STARTUP INFORMATION
-------------------------

E(0)                                       ...   -157.349872083
E(L-MP2)                                   ...     -0.719710131
E(L-MP2) including corrections             ...     -0.719710131
Initial E(tot)                             ...   -158.069582214
<T|T>                                      ...      0.212578932
Number of pairs included                   ... 91
Total number of pairs                      ... 91

------------------------------------------------
                  RHF COUPLED CLUSTER ITERATIONS
------------------------------------------------

Number of PNO amplitudes to be optimized   ...       229747
Number of non-PNO amplitudes               ...      5373459
Untruncated number of regular amplitudes   ...      5373459

Iter       E(tot)           E(Corr)          Delta-E          Residual     Time
  0   -158.053500861     -0.703086247      0.016623883      0.013686452    6.14
                           *** Turning on DIIS ***
  1   -158.096538488     -0.746123875     -0.043037627      0.005447659    6.24
  2   -158.117584128     -0.767169514     -0.021045639      0.001451547    6.15
  3   -158.121199229     -0.770784615     -0.003615101      0.000377736    6.15
  4   -158.121840539     -0.771425925     -0.000641310      0.000078881    6.13
  5   -158.121948982     -0.771534368     -0.000108443      0.000025479    6.14
  6   -158.121967465     -0.771552851     -0.000018484      0.000008857    6.14
               --- The Coupled-Cluster iterations have converged ---

----------------------
COUPLED CLUSTER ENERGY
----------------------

E(0)                                       ...   -157.349872083
E(CORR)(strong-pairs)                      ...     -0.771552851
E(CORR)(weak-pairs)                        ...     -0.000542531
E(CORR)(corrected)                         ...     -0.772095382
E(TOT)                                     ...   -158.121967465
Singles Norm <S|S>**1/2                    ...      0.040690642  
T1 diagnostic                              ...      0.007980092  

------------------
LARGEST AMPLITUDES
------------------
  16-> 23  16-> 23       0.032816
  15-> 23  15-> 23       0.032814
   9-> 23   9-> 23       0.032814
   8-> 23   8-> 23       0.032813
   5-> 27   5-> 27       0.031097
  10-> 17  10-> 17       0.029372
  12-> 17  12-> 17       0.029372
  13-> 17  13-> 17       0.029371
  11-> 17  11-> 17       0.029371
  16-> 17  16-> 17       0.028283
   8-> 17   8-> 17       0.028283
   9-> 17   9-> 17       0.028283
  15-> 17  15-> 17       0.028282
  14-> 17  14-> 17       0.028023
   7-> 17   7-> 17       0.028023
  16-> 23  16-> 17       0.026209


-------------------------------------------
DLPNO BASED TRIPLES CORRECTION
-------------------------------------------

Singles multiplier          ...  1.000000
TCutTNO                     ... 1.000e-09
TCutMP2Pairs                ... 1.000e-06
TCutDOStrong                ... 1.000e-02
TCutMKNStrong               ... 1.000e-02
TCutDOWeak                  ... 2.000e-02
TCutMKNWeak                 ... 1.000e-01

Fragment selection                          .... not used
Number of Triples that are to be computed   ...       442

 . . . . . . . . .
10% done  
20% done  
30% done  
40% done  
50% done  
60% done  
70% done  
80% done  
90% done               (     31.433 sec)
Triples timings:
Total time for T0               ...    33.419 sec
Total time for Iterative (T)    ...     0.000 sec
Total time of overall (T)       ...    35.463 sec

Triples List generation         ...     0.000 sec
TNO generation                  ...     1.981 sec
Pair density generation         ...     0.003 sec
Look up tables                  ...     0.000 sec
Generating 3-index integrals    ...    16.157 sec
  Make 4-ind.int. from 3-ind.int...     5.369 sec
  Projecting amplitudes (D + S) ...     1.832 sec
  Downprojecting integrals      ...     0.001 sec
  Energy contr. (sum over a,b,c)...     2.251 sec
Fitting ET(->0)                 ...     0.000 sec

Everything after 3-index        ...    15.276 sec

Timing details:
 TNO integrals                  ...    20.952 sec
   Reading 3-index integrals    ...     0.112 sec
   Sorting integrals            ...     3.787 sec
       Sorting integrals 1      ...     0.000 sec
       Sorting integrals 2      ...     1.085 sec
       Sorting integrals 3      ...     0.125 sec
       Sorting integrals 4      ...     0.004 sec
       Sorting integrals 5      ...     0.025 sec
       Sorting integrals 6      ...     2.547 sec
   Calculating local VM**-1/2   ...     0.067 sec
   Orthogonal. integrals        ...     0.160 sec
   Multipl. 3-index integrals   ...    16.826 sec
   All concerning IRIab (w/TNO) ...     2.452 sec

 Calculate W0/W1                ...     5.817 sec
 W 3-ext contribution           ...     3.159 sec
 W 3-int contribution           ...     0.770 sec
 Sorting W                      ...     1.799 sec

 V exchange contribution        ...     0.723 sec

 Timings for Triples without generation
     of 3-index integrals       ...    15.275 sec
       0 weak pairs             ...    15.275 sec
       1 weak pair              ...     0.000 sec
       2 weak pairs             ...     0.000 sec
       3 weak pairs             ...     0.000 sec
  Extra time for extrapolation  ...     0.000 sec

Number of Triples   (0, 1, 2, 3 weak pairs; overall):    442       0       0       0  (   442)
Number of Atoms     (0, 1, 2, 3 weak pairs; overall):   13.8     0.0     0.0     0.0  (    14)
Number of PAOs      (0, 1, 2, 3 weak pairs; overall):  256.3     0.0     0.0     0.0  (   260)
Number of AuxFcns   (0, 1, 2, 3 weak pairs; overall):  316.9     0.0     0.0     0.0  (   624)
Number of TNOs      (0, 1, 2, 3 weak pairs         ):  105.0     0.0     0.0     0.0
Aver. Number of NTNO, Atoms, PAOs, AuxFcns / Triples:    442   105.0    13.8   256.3   316.9

Triples Correction (T)                     ...     -0.028250176
Final correlation energy                   ...     -0.800345558
E(CCSD)                                    ...   -158.121967465
E(CCSD(T))                                 ...   -158.150217641


Maximum memory used throughout the entire calculation: 2946.9 MB


------------------------------------------------------------------------------- 
                                     TIMINGS                                   
------------------------------------------------------------------------------- 


Total execution time                   ...      113.908 sec

Localization of occupied MO's          ...        0.479 sec (  0.4%)
Fock Matrix Formation                  ...        1.093 sec (  1.0%)
Global overlap, Fock, MKN matrices     ...        0.181 sec (  0.2%)
Differential overlap integrals         ...        0.068 sec (  0.1%)
Organizing maps                        ...        0.018 sec (  0.0%)
RI 3-index integral generations        ...        2.328 sec (  2.0%)
RI-PNO integral transformation         ...       25.995 sec ( 22.8%)
Initial Guess                          ...        4.740 sec (  4.2%)
DIIS Solver                            ...        0.613 sec (  0.5%)
State Vector Update                    ...        0.012 sec (  0.0%)
Sigma-vector construction              ...       43.019 sec ( 37.8%)
  <D|H|D>(0-ext)                       ...        0.542 sec (  1.3% of sigma)
  <D|H|D>(2-ext Fock)                  ...        0.005 sec (  0.0% of sigma)
  <D|H|D>(2-ext)                       ...        2.406 sec (  5.6% of sigma)
  <D|H|D>(4-ext)                       ...        6.862 sec ( 16.0% of sigma)
  <D|H|D>(4-ext-corr)                  ...       26.982 sec ( 62.7% of sigma)
  CCSD doubles correction              ...        0.048 sec (  0.1% of sigma)
  <S|H|S>                              ...        0.284 sec (  0.7% of sigma)
  <S|H|D>(1-ext)                       ...        0.077 sec (  0.2% of sigma)
  <D|H|S>(1-ext)                       ...        0.003 sec (  0.0% of sigma)
  <S|H|D>(3-ext)                       ...        0.220 sec (  0.5% of sigma)
  Fock-dressing                        ...        4.253 sec (  9.9% of sigma)
  Singles amplitudes                   ...        0.114 sec (  0.3% of sigma)
  (ik|jl)-dressing                     ...        0.402 sec (  0.9% of sigma)
  (ij|ab),(ia|jb)-dressing             ...        0.755 sec (  1.8% of sigma)
  Pair energies                        ...        0.003 sec (  0.0% of sigma)
Total Time for computing (T)           ...       35.481 sec ( 31.1% of ALL)


-------------------------   --------------------
FINAL SINGLE POINT ENERGY      -158.150217641316
-------------------------   --------------------


                            ***************************************
                            *     ORCA property calculations      *
                            ***************************************

                                    ---------------------
                                    Active property flags
                                    ---------------------
   (+) Dipole Moment


------------------------------------------------------------------------------
                       ORCA ELECTRIC PROPERTIES CALCULATION
------------------------------------------------------------------------------

Dipole Moment Calculation                       ... on
Quadrupole Moment Calculation                   ... off
Polarizability Calculation                      ... off
GBWName                                         ... butane_anti.gbw
Electron density file                           ... butane_anti.scfp.tmp
The origin for moment calculation is the CENTER OF MASS  = (-0.000004, -0.000000  0.000000)

-------------
DIPOLE MOMENT
-------------
                                X             Y             Z
Electronic contribution:     -0.00001       0.00001      -0.00001
Nuclear contribution   :      0.00001      -0.00001       0.00001
                        -----------------------------------------
Total Dipole Moment    :     -0.00000      -0.00000      -0.00000
                        -----------------------------------------
Magnitude (a.u.)       :      0.00000
Magnitude (Debye)      :      0.00001



--------------------
Rotational spectrum 
--------------------
 
Rotational constants in cm-1:     0.754863     0.120936     0.113403 
Rotational constants in MHz : 22630.214739  3625.571710  3399.748659 

 Dipole components along the rotational axes: 
x,y,z [a.u.] :    -0.000003    -0.000002    -0.000000 
x,y,z [Debye]:    -0.000008    -0.000005    -0.000001 

 

Timings for individual modules:

Sum of individual times         ...      121.209 sec (=   2.020 min)
GTO integral calculation        ...        0.488 sec (=   0.008 min)   0.4 %
SCF iterations                  ...        6.585 sec (=   0.110 min)   5.4 %
MDCI module                     ...      114.135 sec (=   1.902 min)  94.2 %
                             ****ORCA TERMINATED NORMALLY****
TOTAL RUN TIME: 0 days 0 hours 2 minutes 1 seconds 489 msec
butane_anti.gbw -> /home1/pantazis/klk/xyz/Energy_barrier/butane_anti.gbw
butane_anti.job -> /home1/pantazis/klk/xyz/Energy_barrier/butane_anti.job
butane_anti.loc -> /home1/pantazis/klk/xyz/Energy_barrier/butane_anti.loc
butane_anti.nodes -> /home1/pantazis/klk/xyz/Energy_barrier/butane_anti.nodes
butane_anti.prop -> /home1/pantazis/klk/xyz/Energy_barrier/butane_anti.prop
butane_anti_property.txt -> /home1/pantazis/klk/xyz/Energy_barrier/butane_anti_property.txt
butane_anti.xyz -> /home1/pantazis/klk/xyz/Energy_barrier/butane_anti.xyz
cp: cannot stat butane_anti.asa.inp: No such file or directory
