! Job execution by suborca V 6.07 on ZEUS !
Job started from zeus1, running /scratch/pantazis/C_Et_glycoside_a__ntHVaQ/orca/orca copied from /opt/orca on zeussn119 in /scratch/pantazis/C_Et_glycoside_a__ntHVaQ
Job execution start: Thu Jun 27 13:42:05 CEST 2019
Shared library path: /scratch/pantazis/C_Et_glycoside_a__ntHVaQ/orca:/opt/openmpi_1.10.2/lib:/opt/intel/mkl/lib/intel64:/opt/intel/lib/intel64:
PBS Job ID is: 158126.icqc
izeussn119
izeussn119
izeussn119
izeussn119
izeussn119
izeussn119
izeussn119
izeussn119

                                 *****************
                                 * O   R   C   A *
                                 *****************

           --- An Ab Initio, DFT and Semiempirical electronic structure package ---

                  #######################################################
                  #                        -***-                        #
                  #          Department of theory and spectroscopy      #
                  #               Directorship: Frank Neese             #
                  #        Max Planck Institute fuer Kohlenforschung    #
                  #                Kaiser Wilhelm Platz 1               #
                  #                 D-45470 Muelheim/Ruhr               #
                  #                      Germany                        #
                  #                                                     #
                  #                  All rights reserved                #
                  #                        -***-                        #
                  #######################################################


                         Program Version 4.1.x  -  STABLE  -
                                (SVN: $Rev: 14094$)
                ($Date: 2019-06-14 15:01:15 +0200 (Fri, 14 Jun 2019) $)

                         (BUILD: $Sun Jun 23 06:18:31 CEST 2019$)


 With contributions from (in alphabetic order):
   Daniel Aravena         : Magnetic Properties
   Michael Atanasov       : Ab Initio Ligand Field Theory
   Alexander A. Auer      : GIAO ZORA
   Ute Becker             : Parallelization
   Giovanni Bistoni       : ED, Open-shell LED
   Martin Brehm           : Molecular dynamics
   Dmytro Bykov           : SCF Hessian
   Vijay G. Chilkuri      : MRCI spin determinant printing
   Dipayan Datta          : RHF DLPNO-CCSD density
   Achintya Kumar Dutta   : EOM-CC, STEOM-CC
   Dmitry Ganyushin       : Spin-Orbit,Spin-Spin,Magnetic field MRCI
   Miquel Garcia          : C-PCM Hessian
   Yang Guo               : DLPNO-NEVPT2, CIM, IAO-localization
   Andreas Hansen         : Spin unrestricted coupled pair/coupled cluster methods
   Benjamin Helmich-Paris : CASSCF linear response (MC-RPA)
   Lee Huntington         : MR-EOM, pCC
   Robert Izsak           : Overlap fitted RIJCOSX, COSX-SCS-MP3, EOM
   Christian Kollmar      : KDIIS, OOCD, Brueckner-CCSD(T), CCSD density
   Simone Kossmann        : Meta GGA functionals, TD-DFT gradient, OOMP2, MP2 Hessian
   Martin Krupicka        : AUTO-CI
   Lucas Lang             : DCDCAS
   Dagmar Lenk            : GEPOL surface, SMD
   Dimitrios Liakos       : Extrapolation schemes; parallel MDCI
   Dimitrios Manganas     : ROCIS; embedding schemes
   Dimitrios Pantazis     : SARC Basis sets
   Taras Petrenko         : DFT Hessian,TD-DFT gradient, ASA, ECA, R-Raman, ABS, FL, XAS/XES, NRVS
   Peter Pinski           : DLPNO-MP2, DLPNO-MP2 Gradient
   Christoph Reimann      : Effective Core Potentials
   Marius Retegan         : Local ZFS, SOC
   Christoph Riplinger    : Optimizer, TS searches, QM/MM, DLPNO-CCSD(T), (RO)-DLPNO pert. Triples
   Tobias Risthaus        : Range-separated hybrids, TD-DFT gradient, RPA, STAB
   Michael Roemelt        : Restricted open shell CIS
   Masaaki Saitow         : Open-shell DLPNO
   Barbara Sandhoefer     : DKH picture change effects
   Avijit Sen             : IP-ROCIS
   Kantharuban Sivalingam : CASSCF convergence, NEVPT2, FIC-MRCI
   Bernardo de Souza      : ESD, SOC TD-DFT
   Georgi Stoychev        : AutoAux, RI-MP2 NMR
   Willem Van den Heuvel  : Paramagnetic NMR
   Boris Wezisla          : Elementary symmetry handling
   Frank Wennmohs         : Technical directorship


 We gratefully acknowledge several colleagues who have allowed us to
 interface, adapt or use parts of their codes:
   Stefan Grimme, W. Hujo, H. Kruse,             : VdW corrections, initial TS optimization,
                  C. Bannwarth                     DFT functionals, gCP, sTDA/sTD-DF
   Ed Valeev                                     : LibInt (2-el integral package), F12 methods
   Garnet Chan, S. Sharma, J. Yang, R. Olivares  : DMRG
   Ulf Ekstrom                                   : XCFun DFT Library
   Mihaly Kallay                                 : mrcc  (arbitrary order and MRCC methods)
   Andreas Klamt, Michael Diedenhofen            : otool_cosmo (COSMO solvation model)
   Jiri Pittner, Ondrej Demel                    : Mk-CCSD
   Frank Weinhold                                : gennbo (NPA and NBO analysis)
   Christopher J. Cramer and Donald G. Truhlar   : smd solvation model
   Lars Goerigk                                  : TD-DFT with DH, B97 family of functionals
   V. Asgeirsson, H. Jonsson                     : NEB implementation
   FAccTs GmbH                                   : IRC, NEB, NEB-TS, Multilevel


 Your calculation uses the libint2 library for the computation of 2-el integrals
 For citations please refer to: http://libint.valeyev.net

 This ORCA versions uses:
   CBLAS   interface :  Fast vector & matrix operations
   LAPACKE interface :  Fast linear algebra routines
   SCALAPACK package :  Parallel linear algebra routines




***************************************
The coordinates will be read from file: C_Et_glycoside_a.xyz
***************************************


----- Orbital basis set information -----
Your calculation utilizes the basis: cc-pVTZ 
       H, B-Ne : Obtained from the ccRepo (grant-hill.group.shef.ac.uk/ccrepo) Feb. 2017
                 T. H. Dunning, Jr., J. Chem. Phys. 90, 1007 (1989)
            He : Obtained from the ccRepo (grant-hill.group.shef.ac.uk/ccrepo) Feb. 2017
                 D. E. Woon, T. H. Dunning, Jr., J. Chem. Phys. 100, 2975 (1994)
  Li-Be, Na-Mg : Obtained from the ccRepo (grant-hill.group.shef.ac.uk/ccrepo) Feb. 2017
                 B. P. Prascher, D. E. Woon, K. A. Peterson, T. H. Dunning, Jr., A. K. Wilson, Theor. Chem. Acc. 128, 69 (2011)
         Al-Ar : Obtained from the ccRepo (grant-hill.group.shef.ac.uk/ccrepo) Feb. 2017
                 D. E. Woon, T. H. Dunning, Jr., J. Chem. Phys. 98, 1358 (1993)
            Ca : Obtained from the Peterson Research Group Website (tyr0.chem.wsu.edu/~kipeters) Feb. 2017
                 J. Koput, K. A. Peterson, J. Phys. Chem. 106, 9595 (2002)
         Sc-Zn : Obtained from the ccRepo (grant-hill.group.shef.ac.uk/ccrepo) Feb. 2017
                 N. B. Balabanov, K. A. Peterson, J. Chem. Phys. 123, 064107 (2005)
                 N. B. Balabanov, K. A. Peterson, J. Chem. Phys. 125, 074110 (2006)
         Ga-Kr : Obtained from the ccRepo (grant-hill.group.shef.ac.uk/ccrepo) Feb. 2017
                 A. K. Wilson, D. E. Woon, K. A. Peterson, T. H. Dunning, Jr., J. Chem. Phys. 110, 7667 (1999)
             Y : Obtained from the ccRepo (grant-hill.group.shef.ac.uk/ccrepo) Feb. 2017
                 K. A. Peterson, D. Figgen, M. Dolg, H. Stoll, J. Chem. Phys. 126, 124101 (2007)
        Ag, Au : Obtained from the Peterson Research Group Website (tyr0.chem.wsu.edu/~kipeters) Feb. 2017
                 K. A. Peterson, C. Puzzarini, Theor. Chem. Acc. 114, 283 (2005)

----- AuxC basis set information -----
Your calculation utilizes the auxiliary basis: cc-pVTZ/C 
  Obtained from the EMSL Basis Set Exchange (bse.pnl.gov) Feb. 2017
  H-He, B-F, Al-Ar, Ga-Kr : F. Weigend, A. Kohn, C. Hattig, J. Chem. Phys. 116, 3175 (2002)
             Li-Be, Na-Mg : C. Haettig, Phys. Chem. Chem. Phys. 7, 59 (2005)
                       Ne : C. Haettig, Phys. Chem. Chem. Phys. 7, 59 (2005)
                            F. Weigend, A. Kohn, C. Hattig, J. Chem. Phys. 116, 3175 (2002)
                    Sc-Zn : J. G. Hill, J. A. Platts, J. Chem. Phys. 128, 044104 (2008)

----- AuxJK basis set information -----
Your calculation utilizes the auxiliary basis: cc-pVTZ/JK 
  H, B-F, Al-Cl, Ga-Br : Obtained from the TURBOMOLE 7.0 basis set library

================================================================================
                                        WARNINGS
                       Please study these warnings very carefully!
================================================================================


WARNING: MDCI localization with Augmented Hessian Foster-Boys
  ===> : Switching off randomization!

WARNING: Post HF methods need fully converged wavefunctions
  ===> : Setting SCFConvForced true
         You can overwrite this default with %scf ConvForced false 


INFO   : the flag for use of LIBINT has been found!

================================================================================
                                       INPUT FILE
================================================================================
NAME = C_Et_glycoside_a.inp
|  1> ! RHF DLPNO-CCSD(T) cc-pVTZ RIJK cc-pVTZ/JK cc-pVTZ/C
|  2> ! KDIIS SOSCF TightSCF TightPNO
|  3> 
|  4> %pal nprocs 8 end
|  5> 
|  6> %maxcore 8000
|  7> 
|  8> %scf maxiter 300
|  9>      shift shift 0.2 erroff 0.1 end
| 10> end
| 11> 
| 12> * xyzfile 0 1 C_Et_glycoside_a.xyz 
| 13> 
| 14> 
| 15>                          ****END OF INPUT****
================================================================================

                       ****************************
                       * Single Point Calculation *
                       ****************************

---------------------------------
CARTESIAN COORDINATES (ANGSTROEM)
---------------------------------
  C      1.111930   -0.865180   -0.506840
  O     -0.251500   -1.328340   -0.547880
  C     -1.150560   -0.739020    0.387150
  C     -1.216070    0.786470    0.185520
  C      0.188900    1.383130    0.193700
  C      1.102590    0.650740   -0.786390
  C     -2.503900   -1.417800    0.218430
  O     -3.058330   -1.058170   -1.043390
  O     -2.038760    1.435780    1.165010
  O      0.183960    2.759590   -0.185360
  O      2.430450    1.161230   -0.726190
  C      1.851100   -1.325920    0.766170
  C      3.359880   -1.526140    0.563490
  H     -0.815690   -0.948490    1.420680
  H     -1.698760    0.993930   -0.772670
  H      0.611470    1.292310    1.209420
  H      0.689990    0.797730   -1.795340
  H      1.574190   -1.363460   -1.365110
  H      1.396730   -2.280930    1.058820
  H      1.688410   -0.629180    1.597000
  H     -2.349760   -2.503150    0.288260
  H     -1.694200    1.235470    2.047920
  H     -0.526460    3.201200    0.302140
  H      2.371540    2.121120   -0.838580
  H      3.825560   -1.891320    1.485190
  H      3.552300   -2.267260   -0.221380
  H      3.847130   -0.592590    0.274660
  H     -3.903870   -1.508240   -1.156170
  H     -3.158400   -1.095530    1.040180

----------------------------
CARTESIAN COORDINATES (A.U.)
----------------------------
  NO LB      ZA    FRAG     MASS         X           Y           Z
   0 C     6.0000    0    12.011    2.101243   -1.634953   -0.957789
   1 O     8.0000    0    15.999   -0.475266   -2.510199   -1.035343
   2 C     6.0000    0    12.011   -2.174243   -1.396545    0.731607
   3 C     6.0000    0    12.011   -2.298039    1.486213    0.350582
   4 C     6.0000    0    12.011    0.356969    2.613737    0.366040
   5 C     6.0000    0    12.011    2.083593    1.229720   -1.486062
   6 C     6.0000    0    12.011   -4.731685   -2.679254    0.412773
   7 O     8.0000    0    15.999   -5.779406   -1.999652   -1.971721
   8 O     8.0000    0    15.999   -3.852698    2.713231    2.201550
   9 O     8.0000    0    15.999    0.347634    5.214869   -0.350280
  10 O     8.0000    0    15.999    4.592885    2.194407   -1.372300
  11 C     6.0000    0    12.011    3.498072   -2.505626    1.447851
  12 C     6.0000    0    12.011    6.349253   -2.883987    1.064842
  13 H     1.0000    0     1.008   -1.541431   -1.792386    2.684696
  14 H     1.0000    0     1.008   -3.210191    1.878255   -1.460135
  15 H     1.0000    0     1.008    1.155511    2.442112    2.285473
  16 H     1.0000    0     1.008    1.303892    1.507491   -3.392701
  17 H     1.0000    0     1.008    2.974788   -2.576566   -2.579684
  18 H     1.0000    0     1.008    2.639437   -4.310333    2.000880
  19 H     1.0000    0     1.008    3.190633   -1.188978    3.017893
  20 H     1.0000    0     1.008   -4.440403   -4.730268    0.544732
  21 H     1.0000    0     1.008   -3.201574    2.334700    3.870008
  22 H     1.0000    0     1.008   -0.994865    6.049391    0.570962
  23 H     1.0000    0     1.008    4.481561    4.008336   -1.584687
  24 H     1.0000    0     1.008    7.229261   -3.574077    2.806602
  25 H     1.0000    0     1.008    6.712874   -4.284500   -0.418348
  26 H     1.0000    0     1.008    7.270022   -1.119833    0.519032
  27 H     1.0000    0     1.008   -7.377245   -2.850161   -2.184845
  28 H     1.0000    0     1.008   -5.968511   -2.070252    1.965655

--------------------------------
INTERNAL COORDINATES (ANGSTROEM)
--------------------------------
 C      0   0   0     0.000000000000     0.00000000     0.00000000
 O      1   0   0     1.440535605981     0.00000000     0.00000000
 C      2   1   0     1.424741396500   116.45976820     0.00000000
 C      3   2   1     1.540151277343   110.52517383    59.08925693
 C      4   3   2     1.526437279714   110.32296091   307.72789307
 C      5   4   3     1.527023554599   111.08902620    51.76864228
 C      3   2   1     1.523396823681   107.67421698   182.81991998
 O      7   3   2     1.424400250702   109.35386049   291.66891171
 O      4   3   2     1.434511405427   112.54010489   184.03981598
 O      5   4   3     1.427709010548   111.85416052   171.38900055
 O      6   5   4     1.423880704167   111.03314134   183.10499548
 C      1   2   3     1.542468183335   112.39787090    69.82571082
 C     12   1   2     1.535442711142   113.63446610   149.73900931
 H      3   2   1     1.106435655020   110.10497719   298.82734568
 H      4   3   2     1.092775074661   108.76092564    68.08551312
 H      5   4   3     1.103857235198   108.97288247   291.92705497
 H      6   5   4     1.099920416485   107.46968998    62.86127439
 H      1   2   3     1.094803479580   103.35376879   185.99405907
 H     12   1   2     1.097333230837   106.35799294    29.58953706
 H     12   1   2     1.096445690675   111.37423437   273.55666033
 H      7   3   2     1.098462557851   107.97195826    52.70088732
 H      9   4   3     0.968697970371   108.95029315    57.93510237
 H     10   5   4     0.968179848220   107.97509364    46.36001071
 H     11   6   5     0.968241040392   107.08445954   307.47556487
 H     13  12   1     1.095328802141   110.49748889   182.30707680
 H     13  12   1     1.096496797852   110.79719753   301.47063775
 H     13  12   1     1.091948228580   111.21720355    61.69655660
 H      8   7   3     0.964479250632   109.08714423   178.51692188
 H      7   3   2     1.098863624569   108.39880105   170.66238961

---------------------------
INTERNAL COORDINATES (A.U.)
---------------------------
 C      0   0   0     0.000000000000     0.00000000     0.00000000
 O      1   0   0     2.722217781467     0.00000000     0.00000000
 C      2   1   0     2.692371051045   116.45976820     0.00000000
 C      3   2   1     2.910464118986   110.52517383    59.08925693
 C      4   3   2     2.884548419267   110.32296091   307.72789307
 C      5   4   3     2.885656318239   111.08902620    51.76864228
 C      3   2   1     2.878802790042   107.67421698   182.81991998
 O      7   3   2     2.691726378916   109.35386049   291.66891171
 O      4   3   2     2.710833692243   112.54010489   184.03981598
 O      5   4   3     2.697979028867   111.85416052   171.38900055
 O      6   5   4     2.690744578251   111.03314134   183.10499548
 C      1   2   3     2.914842436790   112.39787090    69.82571082
 C     12   1   2     2.901566218384   113.63446610   149.73900931
 H      3   2   1     2.090860372794   110.10497719   298.82734568
 H      4   3   2     2.065045617084   108.76092564    68.08551312
 H      5   4   3     2.085987865473   108.97288247   291.92705497
 H      6   5   4     2.078548356265   107.46968998    62.86127439
 H      1   2   3     2.068878746870   103.35376879   185.99405907
 H     12   1   2     2.073659283934   106.35799294    29.58953706
 H     12   1   2     2.071982076094   111.37423437   273.55666033
 H      7   3   2     2.075793402705   107.97195826    52.70088732
 H      9   4   3     1.830573870486   108.95029315    57.93510237
 H     10   5   4     1.829594761518   107.97509364    46.36001071
 H     11   6   5     1.829710397964   107.08445954   307.47556487
 H     13  12   1     2.069871462643   110.49748889   182.30707680
 H     13  12   1     2.072078654662   110.79719753   301.47063775
 H     13  12   1     2.063483104438   111.21720355    61.69655660
 H      8   7   3     1.822601645544   109.08714423   178.51692188
 H      7   3   2     2.076551308963   108.39880105   170.66238961

---------------------
BASIS SET INFORMATION
---------------------
There are 3 groups of distinct atoms

 Group   1 Type C   : 18s5p2d1f contracted to 4s3p2d1f pattern {8811/311/11/1}
 Group   2 Type O   : 18s5p2d1f contracted to 4s3p2d1f pattern {8811/311/11/1}
 Group   3 Type H   : 5s2p1d contracted to 3s2p1d pattern {311/11/1}

Atom   0C    basis set group =>   1
Atom   1O    basis set group =>   2
Atom   2C    basis set group =>   1
Atom   3C    basis set group =>   1
Atom   4C    basis set group =>   1
Atom   5C    basis set group =>   1
Atom   6C    basis set group =>   1
Atom   7O    basis set group =>   2
Atom   8O    basis set group =>   2
Atom   9O    basis set group =>   2
Atom  10O    basis set group =>   2
Atom  11C    basis set group =>   1
Atom  12C    basis set group =>   1
Atom  13H    basis set group =>   3
Atom  14H    basis set group =>   3
Atom  15H    basis set group =>   3
Atom  16H    basis set group =>   3
Atom  17H    basis set group =>   3
Atom  18H    basis set group =>   3
Atom  19H    basis set group =>   3
Atom  20H    basis set group =>   3
Atom  21H    basis set group =>   3
Atom  22H    basis set group =>   3
Atom  23H    basis set group =>   3
Atom  24H    basis set group =>   3
Atom  25H    basis set group =>   3
Atom  26H    basis set group =>   3
Atom  27H    basis set group =>   3
Atom  28H    basis set group =>   3
-------------------------------
AUXILIARY BASIS SET INFORMATION
-------------------------------
There are 3 groups of distinct atoms

 Group   1 Type C   : 8s6p5d3f1g contracted to 8s6p5d3f1g pattern {11111111/111111/11111/111/1}
 Group   2 Type O   : 8s6p5d3f1g contracted to 8s6p5d3f1g pattern {11111111/111111/11111/111/1}
 Group   3 Type H   : 4s3p2d1f contracted to 4s3p2d1f pattern {1111/111/11/1}

Atom   0C    basis set group =>   1
Atom   1O    basis set group =>   2
Atom   2C    basis set group =>   1
Atom   3C    basis set group =>   1
Atom   4C    basis set group =>   1
Atom   5C    basis set group =>   1
Atom   6C    basis set group =>   1
Atom   7O    basis set group =>   2
Atom   8O    basis set group =>   2
Atom   9O    basis set group =>   2
Atom  10O    basis set group =>   2
Atom  11C    basis set group =>   1
Atom  12C    basis set group =>   1
Atom  13H    basis set group =>   3
Atom  14H    basis set group =>   3
Atom  15H    basis set group =>   3
Atom  16H    basis set group =>   3
Atom  17H    basis set group =>   3
Atom  18H    basis set group =>   3
Atom  19H    basis set group =>   3
Atom  20H    basis set group =>   3
Atom  21H    basis set group =>   3
Atom  22H    basis set group =>   3
Atom  23H    basis set group =>   3
Atom  24H    basis set group =>   3
Atom  25H    basis set group =>   3
Atom  26H    basis set group =>   3
Atom  27H    basis set group =>   3
Atom  28H    basis set group =>   3
-------------------------------
AUXILIARY BASIS SET INFORMATION
-------------------------------
There are 3 groups of distinct atoms

 Group   1 Type C   : 10s7p5d2f1g contracted to 10s7p5d2f1g pattern {1111111111/1111111/11111/11/1}
 Group   2 Type O   : 10s7p5d2f1g contracted to 10s7p5d2f1g pattern {1111111111/1111111/11111/11/1}
 Group   3 Type H   : 4s3p2d1f contracted to 4s3p2d1f pattern {1111/111/11/1}

Atom   0C    basis set group =>   1
Atom   1O    basis set group =>   2
Atom   2C    basis set group =>   1
Atom   3C    basis set group =>   1
Atom   4C    basis set group =>   1
Atom   5C    basis set group =>   1
Atom   6C    basis set group =>   1
Atom   7O    basis set group =>   2
Atom   8O    basis set group =>   2
Atom   9O    basis set group =>   2
Atom  10O    basis set group =>   2
Atom  11C    basis set group =>   1
Atom  12C    basis set group =>   1
Atom  13H    basis set group =>   3
Atom  14H    basis set group =>   3
Atom  15H    basis set group =>   3
Atom  16H    basis set group =>   3
Atom  17H    basis set group =>   3
Atom  18H    basis set group =>   3
Atom  19H    basis set group =>   3
Atom  20H    basis set group =>   3
Atom  21H    basis set group =>   3
Atom  22H    basis set group =>   3
Atom  23H    basis set group =>   3
Atom  24H    basis set group =>   3
Atom  25H    basis set group =>   3
Atom  26H    basis set group =>   3
Atom  27H    basis set group =>   3
Atom  28H    basis set group =>   3


           ************************************************************
           *        Program running with 8 parallel MPI-processes     *
           *              working on a common directory               *
           ************************************************************
------------------------------------------------------------------------------
                           ORCA GTO INTEGRAL CALCULATION
                           -- RI-GTO INTEGRALS CHOSEN --
------------------------------------------------------------------------------

                         BASIS SET STATISTICS AND STARTUP INFO

Gaussian basis set:
 # of primitive gaussian shells          ...  466
 # of primitive gaussian functions       ...  906
 # of contracted shells                  ...  226
 # of contracted basis functions         ...  614
 Highest angular momentum                ...    3
 Maximum contraction depth               ...    8
Auxiliary gaussian basis set:
 # of primitive gaussian shells          ...  485
 # of primitive gaussian functions       ... 1507
 # of contracted shells                  ...  485
 # of contracted aux-basis functions     ... 1507
 Highest angular momentum                ...    4
 Maximum contraction depth               ...    1
Ratio of auxiliary to basis functions    ...  2.45
Integral package used                  ... LIBINT
 One Electron integrals                  ... done
 Ordering auxiliary basis shells         ... done
 Integral threshhold             Thresh  ...  2.500e-11
 Primitive cut-off               TCut    ...  2.500e-12
 Pre-screening matrix                    ... done
 Shell pair data                         ... 
 Ordering of the shell pairs             ... done (   0.004 sec) 21685 of 25651 pairs
 Determination of significant pairs      ... done (   0.000 sec)
 Creation of shell pair data             ... done (   0.005 sec)
 Storage of shell pair data              ... done (   0.032 sec)
 Shell pair data done in (   0.041 sec)
 Computing two index integrals           ... done
 Cholesky decomposition of the V-matrix  ... done


Timings:
 Total evaluation time                   ...   1.233 sec (  0.021 min)
 One electron matrix time                ...   0.310 sec (  0.005 min) = 25.1%
 Schwartz matrix evaluation time         ...   0.479 sec (  0.008 min) = 38.9%
 Two index repulsion integral time       ...   0.148 sec (  0.002 min) = 12.0%
 Cholesky decomposition of V             ...   0.228 sec (  0.004 min) = 18.5%
 Three index repulsion integral time     ...   0.000 sec (  0.000 min) =  0.0%



           ************************************************************
           *        Program running with 8 parallel MPI-processes     *
           *              working on a common directory               *
           ************************************************************
-------------------------------------------------------------------------------
                                 ORCA SCF
-------------------------------------------------------------------------------

------------
SCF SETTINGS
------------
Hamiltonian:
 Ab initio Hamiltonian  Method          .... Hartree-Fock(GTOs)
 RI-approximation to the Coulomb term is turned on
   Number of auxiliary basis functions  .... 1507
   RI-JK (J+K treated both via RI)      .... on


General Settings:
 Integral files         IntName         .... C_Et_glycoside_a
 Hartree-Fock type      HFTyp           .... RHF
 Total Charge           Charge          ....    0
 Multiplicity           Mult            ....    1
 Number of Electrons    NEL             ....  104
 Basis Dimension        Dim             ....  614
 Nuclear Repulsion      ENuc            ....    935.3720645350 Eh

Convergence Acceleration:
 DIIS                   CNVDIIS         .... off
 Newton-Raphson         CNVNR           .... off
 SOSCF                  CNVSOSCF        .... on
   Start iteration      SOSCFMaxIt      ....   150
   Startup grad/error   SOSCFStart      ....  0.003300
 Level Shifting         CNVShift        .... on
   Level shift para.    LevelShift      ....    0.2000
   Turn off err/grad.   ShiftErr        ....    0.1000
 Zerner damping         CNVZerner       .... off
 Static damping         CNVDamp         .... off
 Fernandez-Rico         CNVRico         .... off

SCF Procedure:
 Maximum # iterations   MaxIter         ....   300
 SCF integral mode      SCFMode         .... Direct
   Integral package                     .... LIBINT
 Reset frequency        DirectResetFreq ....    20
 Integral Threshold     Thresh          ....  2.500e-11 Eh
 Primitive CutOff       TCut            ....  2.500e-12 Eh

Convergence Tolerance:
 Convergence Check Mode ConvCheckMode   .... Total+1el-Energy
 Convergence forced     ConvForced      .... 1
 Energy Change          TolE            ....  1.000e-08 Eh
 1-El. energy change                    ....  1.000e-05 Eh
 Orbital Gradient       TolG            ....  1.000e-05
 Orbital Rotation angle TolX            ....  1.000e-05


Diagonalization of the overlap matrix:
Smallest eigenvalue                        ... 1.983e-04
Time for diagonalization                   ...    0.082 sec
Threshold for overlap eigenvalues          ... 1.000e-08
Number of eigenvalues below threshold      ... 0
Time for construction of square roots      ...    0.114 sec
Total time needed                          ...    0.198 sec

-------------------
DFT GRID GENERATION
-------------------

General Integration Accuracy     IntAcc      ...  4.340
Radial Grid Type                 RadialGrid  ... Gauss-Chebyshev
Angular Grid (max. acc.)         AngularGrid ... Lebedev-110
Angular grid pruning method      GridPruning ... 3 (G Style)
Weight generation scheme         WeightScheme... Becke
Basis function cutoff            BFCut       ...    1.0000e-11
Integration weight cutoff        WCut        ...    1.0000e-14
Grids for H and He will be reduced by one unit

# of grid points (after initial pruning)     ...  34532 (   0.0 sec)
# of grid points (after weights+screening)   ...  30943 (   0.0 sec)
nearest neighbour list constructed           ...    0.0 sec
Grid point re-assignment to atoms done       ...    0.0 sec
Grid point division into batches done        ...    0.0 sec
Reduced shell lists constructed in    0.3 sec

Total number of grid points                  ...    30943
Total number of batches                      ...      500
Average number of points per batch           ...       61
Average number of grid points per atom       ...     1067
Average number of shells per batch           ...   169.47 (74.99%)
Average number of basis functions per batch  ...   441.94 (71.98%)
Average number of large shells per batch     ...   125.88 (74.28%)
Average number of large basis fcns per batch ...   322.47 (72.97%)
Average number of aux-shells per batch       ...   169.47 (34.94%)
Average number of aux functions per batch    ...   441.94 (29.33%)
Maximum spatial batch extension              ...   4.39,  5.44,  6.24 au
Average spatial batch extension              ...   0.22,  0.22,  0.22 au

Time for grid setup =    0.343 sec

------------------------------
INITIAL GUESS: MODEL POTENTIAL
------------------------------
Loading Hartree-Fock densities                     ... done
Calculating cut-offs                               ... done
Setting up the integral package                    ... done
Initializing the effective Hamiltonian             ... done
Starting the Coulomb interaction                   ... done (   0.3 sec)
Reading the grid                                   ... done
Mapping shells                                     ... done
Starting the XC term evaluation                    ... done (   0.1 sec)
Transforming the Hamiltonian                       ... done (   0.0 sec)
Diagonalizing the Hamiltonian                      ... done (   0.1 sec)
Back transforming the eigenvectors                 ... done (   0.0 sec)
Now organizing SCF variables                       ... done
                      ------------------
                      INITIAL GUESS DONE (   1.0 sec)
                      ------------------
--------------
SCF ITERATIONS
--------------
ITER       Energy         Delta-E        Max-DP      RMS-DP      [F,P]   Gradient Norm
                             ****Turning on KDIIS(Cayley)****
  0   -686.2165162545   0.000000000000 0.01099185  0.00019190  0.1227802   0.156046651
  1   -686.3740949424  -0.157578687869 0.01822155  0.00022809  0.1124316   0.135805913
  2   -686.5151668308  -0.141071888413 0.03006875  0.00037856  0.0904937   0.110222265
  3   -686.6865483416  -0.171381510764 0.04593907  0.00060627  0.0546551   0.067343267
                      *** Initiating the SOSCF procedure ***
                           *** Shutting down KDIIS ***
                      *** Re-Reading the Fockian *** 
                      *** Removing any level shift *** 
ITER      Energy       Delta-E        Grad      Rot      Max-DP    RMS-DP
  4   -686.79469273  -0.1081443899  0.001089  0.001089  0.002437  0.000040
  5   -686.79501041  -0.0003176829  0.000283  0.000336  0.001423  0.000016
  6   -686.79502705  -0.0000166327  0.000186  0.000170  0.000779  0.000009
  7   -686.79503254  -0.0000054965  0.000030  0.000040  0.000275  0.000003
  8   -686.79503274  -0.0000002011  0.000020  0.000016  0.000097  0.000001
  9   -686.79503280  -0.0000000555  0.000003  0.000005  0.000021  0.000000
                  ***Gradient check signals convergence***
              ***Rediagonalizing the Fockian in SOSCF/NRSCF***

               *****************************************************
               *                     SUCCESS                       *
               *           SCF CONVERGED AFTER  10 CYCLES          *
               *****************************************************


----------------
TOTAL SCF ENERGY
----------------

Total Energy       :         -686.79503280 Eh          -18688.64295 eV

Components:
Nuclear Repulsion  :          935.37206454 Eh           25452.76787 eV
Electronic Energy  :        -1622.16709734 Eh          -44141.41082 eV
One Electron Energy:        -2800.92955229 Eh          -76217.16792 eV
Two Electron Energy:         1178.76245495 Eh           32075.75710 eV

Virial components:
Potential Energy   :        -1372.42823303 Eh          -37345.67084 eV
Kinetic Energy     :          685.63320023 Eh           18657.02788 eV
Virial Ratio       :            2.00169454


---------------
SCF CONVERGENCE
---------------

  Last Energy change         ...   -1.8456e-09  Tolerance :   1.0000e-08
  Last MAX-Density change    ...    6.5328e-06  Tolerance :   1.0000e-07
  Last RMS-Density change    ...    1.2812e-07  Tolerance :   5.0000e-09
  Last Orbital Gradient      ...    7.5392e-07  Tolerance :   1.0000e-05
  Last Orbital Rotation      ...    2.1172e-06  Tolerance :   1.0000e-05

             **** THE GBW FILE WAS UPDATED (C_Et_glycoside_a.gbw) ****
             **** DENSITY FILE WAS UPDATED (C_Et_glycoside_a.scfp.tmp) ****
             **** ENERGY FILE WAS UPDATED (C_Et_glycoside_a.en.tmp) ****
----------------
ORBITAL ENERGIES
----------------

  NO   OCC          E(Eh)            E(eV) 
   0   2.0000     -20.573401      -559.8307 
   1   2.0000     -20.562647      -559.5381 
   2   2.0000     -20.557528      -559.3988 
   3   2.0000     -20.556087      -559.3596 
   4   2.0000     -20.554866      -559.3263 
   5   2.0000     -11.291943      -307.2694 
   6   2.0000     -11.286033      -307.1086 
   7   2.0000     -11.285361      -307.0903 
   8   2.0000     -11.283178      -307.0309 
   9   2.0000     -11.282042      -307.0000 
  10   2.0000     -11.281725      -306.9913 
  11   2.0000     -11.223816      -305.4156 
  12   2.0000     -11.208394      -304.9959 
  13   2.0000      -1.392194       -37.8835 
  14   2.0000      -1.373711       -37.3806 
  15   2.0000      -1.366857       -37.1941 
  16   2.0000      -1.353381       -36.8274 
  17   2.0000      -1.346390       -36.6371 
  18   2.0000      -1.068548       -29.0767 
  19   2.0000      -1.054108       -28.6837 
  20   2.0000      -1.009925       -27.4815 
  21   2.0000      -0.933248       -25.3950 
  22   2.0000      -0.880775       -23.9671 
  23   2.0000      -0.842166       -22.9165 
  24   2.0000      -0.825084       -22.4517 
  25   2.0000      -0.768564       -20.9137 
  26   2.0000      -0.724334       -19.7101 
  27   2.0000      -0.709595       -19.3091 
  28   2.0000      -0.701114       -19.0783 
  29   2.0000      -0.673206       -18.3189 
  30   2.0000      -0.656541       -17.8654 
  31   2.0000      -0.650373       -17.6975 
  32   2.0000      -0.628959       -17.1148 
  33   2.0000      -0.616411       -16.7734 
  34   2.0000      -0.614472       -16.7206 
  35   2.0000      -0.595979       -16.2174 
  36   2.0000      -0.585996       -15.9457 
  37   2.0000      -0.563170       -15.3246 
  38   2.0000      -0.552158       -15.0250 
  39   2.0000      -0.547806       -14.9066 
  40   2.0000      -0.542265       -14.7558 
  41   2.0000      -0.528532       -14.3821 
  42   2.0000      -0.511515       -13.9190 
  43   2.0000      -0.507133       -13.7998 
  44   2.0000      -0.501123       -13.6362 
  45   2.0000      -0.485172       -13.2022 
  46   2.0000      -0.465140       -12.6571 
  47   2.0000      -0.455176       -12.3860 
  48   2.0000      -0.449582       -12.2337 
  49   2.0000      -0.434143       -11.8136 
  50   2.0000      -0.430397       -11.7117 
  51   2.0000      -0.410107       -11.1596 
  52   0.0000       0.123436         3.3589 
  53   0.0000       0.144046         3.9197 
  54   0.0000       0.152279         4.1437 
  55   0.0000       0.156271         4.2524 
  56   0.0000       0.175654         4.7798 
  57   0.0000       0.180447         4.9102 
  58   0.0000       0.186491         5.0747 
  59   0.0000       0.195857         5.3295 
  60   0.0000       0.204911         5.5759 
  61   0.0000       0.220953         6.0124 
  62   0.0000       0.227844         6.2000 
  63   0.0000       0.236073         6.4239 
  64   0.0000       0.241563         6.5733 
  65   0.0000       0.256277         6.9737 
  66   0.0000       0.265909         7.2358 
  67   0.0000       0.273326         7.4376 
  68   0.0000       0.288175         7.8416 
  69   0.0000       0.312749         8.5103 
  70   0.0000       0.324849         8.8396 
  71   0.0000       0.334991         9.1156 
  72   0.0000       0.348954         9.4955 
  73   0.0000       0.353502         9.6193 
  74   0.0000       0.365413         9.9434 
  75   0.0000       0.371369        10.1055 
  76   0.0000       0.383958        10.4480 
  77   0.0000       0.405016        11.0210 
  78   0.0000       0.424693        11.5565 
  79   0.0000       0.426485        11.6053 
  80   0.0000       0.430591        11.7170 
  81   0.0000       0.451525        12.2866 
  82   0.0000       0.469616        12.7789 
  83   0.0000       0.475068        12.9273 
  84   0.0000       0.480810        13.0835 
  85   0.0000       0.501403        13.6439 
  86   0.0000       0.504691        13.7333 
  87   0.0000       0.516720        14.0607 
  88   0.0000       0.524423        14.2703 
  89   0.0000       0.534787        14.5523 
  90   0.0000       0.545429        14.8419 
  91   0.0000       0.553916        15.0728 
  92   0.0000       0.554333        15.0842 
  93   0.0000       0.560430        15.2501 
  94   0.0000       0.563905        15.3446 
  95   0.0000       0.573864        15.6156 
  96   0.0000       0.576978        15.7004 
  97   0.0000       0.586618        15.9627 
  98   0.0000       0.603650        16.4262 
  99   0.0000       0.609672        16.5900 
 100   0.0000       0.614229        16.7140 
 101   0.0000       0.621133        16.9019 
 102   0.0000       0.624457        16.9923 
 103   0.0000       0.632414        17.2089 
 104   0.0000       0.636318        17.3151 
 105   0.0000       0.648420        17.6444 
 106   0.0000       0.651629        17.7317 
 107   0.0000       0.655643        17.8410 
 108   0.0000       0.660676        17.9779 
 109   0.0000       0.665839        18.1184 
 110   0.0000       0.670592        18.2477 
 111   0.0000       0.677894        18.4464 
 112   0.0000       0.680113        18.5068 
 113   0.0000       0.689762        18.7694 
 114   0.0000       0.704885        19.1809 
 115   0.0000       0.706601        19.2276 
 116   0.0000       0.713666        19.4198 
 117   0.0000       0.721122        19.6227 
 118   0.0000       0.744810        20.2673 
 119   0.0000       0.751174        20.4405 
 120   0.0000       0.755742        20.5648 
 121   0.0000       0.773451        21.0467 
 122   0.0000       0.791310        21.5326 
 123   0.0000       0.793293        21.5866 
 124   0.0000       0.814247        22.1568 
 125   0.0000       0.822061        22.3694 
 126   0.0000       0.826189        22.4817 
 127   0.0000       0.837939        22.8015 
 128   0.0000       0.846902        23.0454 
 129   0.0000       0.861261        23.4361 
 130   0.0000       0.868523        23.6337 
 131   0.0000       0.875214        23.8158 
 132   0.0000       0.882288        24.0083 
 133   0.0000       0.904819        24.6214 
 134   0.0000       0.910251        24.7692 
 135   0.0000       0.925751        25.1910 
 136   0.0000       0.939542        25.5662 
 137   0.0000       0.953237        25.9389 
 138   0.0000       0.962284        26.1851 
 139   0.0000       0.965235        26.2654 
 140   0.0000       0.975145        26.5350 
 141   0.0000       0.989662        26.9301 
 142   0.0000       1.002273        27.2732 
 143   0.0000       1.015063        27.6213 
 144   0.0000       1.028389        27.9839 
 145   0.0000       1.052388        28.6369 
 146   0.0000       1.061511        28.8852 
 147   0.0000       1.071014        29.1438 
 148   0.0000       1.079386        29.3716 
 149   0.0000       1.087569        29.5942 
 150   0.0000       1.095175        29.8012 
 151   0.0000       1.105714        30.0880 
 152   0.0000       1.105799        30.0903 
 153   0.0000       1.122985        30.5580 
 154   0.0000       1.144237        31.1363 
 155   0.0000       1.150345        31.3025 
 156   0.0000       1.154977        31.4285 
 157   0.0000       1.160289        31.5731 
 158   0.0000       1.170814        31.8595 
 159   0.0000       1.179595        32.0984 
 160   0.0000       1.189706        32.3735 
 161   0.0000       1.195917        32.5426 
 162   0.0000       1.216923        33.1141 
 163   0.0000       1.234514        33.5928 
 164   0.0000       1.238921        33.7128 
 165   0.0000       1.253556        34.1110 
 166   0.0000       1.259612        34.2758 
 167   0.0000       1.270332        34.5675 
 168   0.0000       1.277273        34.7564 
 169   0.0000       1.294285        35.2193 
 170   0.0000       1.301498        35.4156 
 171   0.0000       1.313699        35.7476 
 172   0.0000       1.319811        35.9139 
 173   0.0000       1.326877        36.1061 
 174   0.0000       1.341458        36.5029 
 175   0.0000       1.352988        36.8167 
 176   0.0000       1.356113        36.9017 
 177   0.0000       1.359915        37.0052 
 178   0.0000       1.374109        37.3914 
 179   0.0000       1.381562        37.5942 
 180   0.0000       1.386435        37.7268 
 181   0.0000       1.399281        38.0764 
 182   0.0000       1.406145        38.2632 
 183   0.0000       1.415579        38.5199 
 184   0.0000       1.425224        38.7823 
 185   0.0000       1.428352        38.8674 
 186   0.0000       1.448688        39.4208 
 187   0.0000       1.462481        39.7961 
 188   0.0000       1.464252        39.8443 
 189   0.0000       1.482144        40.3312 
 190   0.0000       1.491365        40.5821 
 191   0.0000       1.491905        40.5968 
 192   0.0000       1.503416        40.9100 
 193   0.0000       1.512332        41.1526 
 194   0.0000       1.517318        41.2883 
 195   0.0000       1.522825        41.4382 
 196   0.0000       1.529868        41.6298 
 197   0.0000       1.533916        41.7400 
 198   0.0000       1.544555        42.0295 
 199   0.0000       1.558054        42.3968 
 200   0.0000       1.569946        42.7204 
 201   0.0000       1.571868        42.7727 
 202   0.0000       1.588638        43.2290 
 203   0.0000       1.591382        43.3037 
 204   0.0000       1.601805        43.5873 
 205   0.0000       1.614038        43.9202 
 206   0.0000       1.626977        44.2723 
 207   0.0000       1.637049        44.5464 
 208   0.0000       1.644212        44.7413 
 209   0.0000       1.649095        44.8742 
 210   0.0000       1.657366        45.0992 
 211   0.0000       1.675889        45.6033 
 212   0.0000       1.686159        45.8827 
 213   0.0000       1.701712        46.3059 
 214   0.0000       1.711034        46.5596 
 215   0.0000       1.717031        46.7228 
 216   0.0000       1.728446        47.0334 
 217   0.0000       1.748904        47.5901 
 218   0.0000       1.773924        48.2709 
 219   0.0000       1.799752        48.9737 
 220   0.0000       1.811628        49.2969 
 221   0.0000       1.823394        49.6171 
 222   0.0000       1.831549        49.8390 
 223   0.0000       1.844084        50.1801 
 224   0.0000       1.854879        50.4738 
 225   0.0000       1.861577        50.6561 
 226   0.0000       1.882853        51.2350 
 227   0.0000       1.908623        51.9363 
 228   0.0000       1.932731        52.5923 
 229   0.0000       1.966947        53.5234 
 230   0.0000       1.985929        54.0399 
 231   0.0000       2.008940        54.6660 
 232   0.0000       2.019060        54.9414 
 233   0.0000       2.033540        55.3354 
 234   0.0000       2.069627        56.3174 
 235   0.0000       2.113063        57.4994 
 236   0.0000       2.117552        57.6215 
 237   0.0000       2.144863        58.3647 
 238   0.0000       2.157017        58.6954 
 239   0.0000       2.188867        59.5621 
 240   0.0000       2.213949        60.2446 
 241   0.0000       2.247166        61.1485 
 242   0.0000       2.255965        61.3879 
 243   0.0000       2.275070        61.9078 
 244   0.0000       2.298743        62.5520 
 245   0.0000       2.300479        62.5992 
 246   0.0000       2.326804        63.3156 
 247   0.0000       2.342176        63.7339 
 248   0.0000       2.365931        64.3803 
 249   0.0000       2.376816        64.6765 
 250   0.0000       2.396867        65.2221 
 251   0.0000       2.404133        65.4198 
 252   0.0000       2.421446        65.8909 
 253   0.0000       2.431731        66.1708 
 254   0.0000       2.437754        66.3346 
 255   0.0000       2.455648        66.8216 
 256   0.0000       2.469917        67.2099 
 257   0.0000       2.493160        67.8423 
 258   0.0000       2.515904        68.4612 
 259   0.0000       2.528629        68.8075 
 260   0.0000       2.572386        69.9982 
 261   0.0000       2.582800        70.2816 
 262   0.0000       2.608942        70.9929 
 263   0.0000       2.632370        71.6304 
 264   0.0000       2.671836        72.7044 
 265   0.0000       2.702541        73.5399 
 266   0.0000       2.717024        73.9340 
 267   0.0000       2.734412        74.4071 
 268   0.0000       2.759708        75.0955 
 269   0.0000       2.763687        75.2037 
 270   0.0000       2.779626        75.6375 
 271   0.0000       2.795042        76.0570 
 272   0.0000       2.814555        76.5879 
 273   0.0000       2.818633        76.6989 
 274   0.0000       2.835901        77.1688 
 275   0.0000       2.844257        77.3962 
 276   0.0000       2.860388        77.8351 
 277   0.0000       2.885573        78.5204 
 278   0.0000       2.895957        78.8030 
 279   0.0000       2.910778        79.2063 
 280   0.0000       2.926320        79.6292 
 281   0.0000       2.932134        79.7874 
 282   0.0000       2.945771        80.1585 
 283   0.0000       2.954062        80.3841 
 284   0.0000       2.970685        80.8364 
 285   0.0000       2.987869        81.3040 
 286   0.0000       3.008131        81.8554 
 287   0.0000       3.014505        82.0288 
 288   0.0000       3.023765        82.2808 
 289   0.0000       3.030407        82.4616 
 290   0.0000       3.043846        82.8273 
 291   0.0000       3.053295        83.0844 
 292   0.0000       3.061754        83.3146 
 293   0.0000       3.077821        83.7518 
 294   0.0000       3.094509        84.2059 
 295   0.0000       3.106524        84.5328 
 296   0.0000       3.124659        85.0263 
 297   0.0000       3.137128        85.3656 
 298   0.0000       3.143992        85.5524 
 299   0.0000       3.159248        85.9675 
 300   0.0000       3.166085        86.1536 
 301   0.0000       3.177271        86.4579 
 302   0.0000       3.194008        86.9134 
 303   0.0000       3.197969        87.0212 
 304   0.0000       3.210028        87.3493 
 305   0.0000       3.213649        87.4478 
 306   0.0000       3.234790        88.0231 
 307   0.0000       3.240690        88.1837 
 308   0.0000       3.243109        88.2495 
 309   0.0000       3.259434        88.6937 
 310   0.0000       3.284385        89.3727 
 311   0.0000       3.286537        89.4312 
 312   0.0000       3.293562        89.6224 
 313   0.0000       3.299445        89.7825 
 314   0.0000       3.303950        89.9051 
 315   0.0000       3.311322        90.1057 
 316   0.0000       3.321060        90.3706 
 317   0.0000       3.328632        90.5767 
 318   0.0000       3.350303        91.1664 
 319   0.0000       3.355215        91.3000 
 320   0.0000       3.369900        91.6996 
 321   0.0000       3.380981        92.0012 
 322   0.0000       3.382782        92.0502 
 323   0.0000       3.388403        92.2031 
 324   0.0000       3.410283        92.7985 
 325   0.0000       3.412548        92.8601 
 326   0.0000       3.425979        93.2256 
 327   0.0000       3.435783        93.4924 
 328   0.0000       3.438847        93.5758 
 329   0.0000       3.446751        93.7909 
 330   0.0000       3.452195        93.9390 
 331   0.0000       3.461281        94.1862 
 332   0.0000       3.466563        94.3300 
 333   0.0000       3.469466        94.4090 
 334   0.0000       3.480585        94.7115 
 335   0.0000       3.484634        94.8217 
 336   0.0000       3.500070        95.2417 
 337   0.0000       3.510011        95.5122 
 338   0.0000       3.521989        95.8382 
 339   0.0000       3.530400        96.0671 
 340   0.0000       3.533726        96.1576 
 341   0.0000       3.539690        96.3199 
 342   0.0000       3.553891        96.7063 
 343   0.0000       3.561306        96.9081 
 344   0.0000       3.579781        97.4108 
 345   0.0000       3.601337        97.9974 
 346   0.0000       3.604559        98.0850 
 347   0.0000       3.616085        98.3987 
 348   0.0000       3.620672        98.5235 
 349   0.0000       3.629721        98.7697 
 350   0.0000       3.646435        99.2246 
 351   0.0000       3.655434        99.4694 
 352   0.0000       3.666455        99.7693 
 353   0.0000       3.686436       100.3130 
 354   0.0000       3.691096       100.4398 
 355   0.0000       3.704430       100.8027 
 356   0.0000       3.716969       101.1439 
 357   0.0000       3.727519       101.4310 
 358   0.0000       3.736511       101.6756 
 359   0.0000       3.746513       101.9478 
 360   0.0000       3.753434       102.1361 
 361   0.0000       3.758477       102.2734 
 362   0.0000       3.769604       102.5761 
 363   0.0000       3.776300       102.7583 
 364   0.0000       3.787789       103.0710 
 365   0.0000       3.802045       103.4589 
 366   0.0000       3.808046       103.6222 
 367   0.0000       3.818385       103.9035 
 368   0.0000       3.824938       104.0819 
 369   0.0000       3.834099       104.3311 
 370   0.0000       3.836510       104.3967 
 371   0.0000       3.846096       104.6576 
 372   0.0000       3.865789       105.1935 
 373   0.0000       3.882700       105.6537 
 374   0.0000       3.885322       105.7250 
 375   0.0000       3.896270       106.0229 
 376   0.0000       3.901169       106.1562 
 377   0.0000       3.914387       106.5159 
 378   0.0000       3.921727       106.7156 
 379   0.0000       3.938284       107.1662 
 380   0.0000       3.944939       107.3473 
 381   0.0000       3.960136       107.7608 
 382   0.0000       3.961165       107.7888 
 383   0.0000       3.967364       107.9575 
 384   0.0000       3.989246       108.5529 
 385   0.0000       4.011159       109.1492 
 386   0.0000       4.016180       109.2858 
 387   0.0000       4.025655       109.5436 
 388   0.0000       4.028822       109.6298 
 389   0.0000       4.041414       109.9725 
 390   0.0000       4.055687       110.3609 
 391   0.0000       4.063620       110.5767 
 392   0.0000       4.076930       110.9389 
 393   0.0000       4.079799       111.0170 
 394   0.0000       4.104486       111.6887 
 395   0.0000       4.120017       112.1113 
 396   0.0000       4.123509       112.2064 
 397   0.0000       4.130275       112.3905 
 398   0.0000       4.144940       112.7896 
 399   0.0000       4.153678       113.0273 
 400   0.0000       4.161434       113.2384 
 401   0.0000       4.172975       113.5524 
 402   0.0000       4.174682       113.5989 
 403   0.0000       4.178057       113.6907 
 404   0.0000       4.188090       113.9637 
 405   0.0000       4.193479       114.1104 
 406   0.0000       4.197523       114.2204 
 407   0.0000       4.208713       114.5249 
 408   0.0000       4.221386       114.8698 
 409   0.0000       4.229698       115.0959 
 410   0.0000       4.245057       115.5139 
 411   0.0000       4.246783       115.5608 
 412   0.0000       4.259928       115.9185 
 413   0.0000       4.272256       116.2540 
 414   0.0000       4.282238       116.5256 
 415   0.0000       4.284107       116.5765 
 416   0.0000       4.297978       116.9539 
 417   0.0000       4.310779       117.3023 
 418   0.0000       4.317788       117.4930 
 419   0.0000       4.321083       117.5826 
 420   0.0000       4.332351       117.8893 
 421   0.0000       4.337296       118.0238 
 422   0.0000       4.348043       118.3163 
 423   0.0000       4.370360       118.9235 
 424   0.0000       4.373211       119.0011 
 425   0.0000       4.379143       119.1625 
 426   0.0000       4.385997       119.3490 
 427   0.0000       4.399001       119.7029 
 428   0.0000       4.406589       119.9094 
 429   0.0000       4.413965       120.1101 
 430   0.0000       4.434906       120.6799 
 431   0.0000       4.440339       120.8278 
 432   0.0000       4.454505       121.2133 
 433   0.0000       4.460770       121.3837 
 434   0.0000       4.468358       121.5902 
 435   0.0000       4.479835       121.9025 
 436   0.0000       4.488369       122.1347 
 437   0.0000       4.502287       122.5135 
 438   0.0000       4.519470       122.9810 
 439   0.0000       4.527980       123.2126 
 440   0.0000       4.533286       123.3570 
 441   0.0000       4.549855       123.8079 
 442   0.0000       4.559596       124.0729 
 443   0.0000       4.575482       124.5052 
 444   0.0000       4.581590       124.6714 
 445   0.0000       4.595658       125.0542 
 446   0.0000       4.604439       125.2932 
 447   0.0000       4.614420       125.5647 
 448   0.0000       4.630215       125.9945 
 449   0.0000       4.640910       126.2856 
 450   0.0000       4.648933       126.5039 
 451   0.0000       4.657768       126.7443 
 452   0.0000       4.665743       126.9613 
 453   0.0000       4.676824       127.2628 
 454   0.0000       4.696004       127.7848 
 455   0.0000       4.704567       128.0178 
 456   0.0000       4.714424       128.2860 
 457   0.0000       4.732910       128.7890 
 458   0.0000       4.741178       129.0140 
 459   0.0000       4.757148       129.4486 
 460   0.0000       4.766936       129.7149 
 461   0.0000       4.781062       130.0993 
 462   0.0000       4.784159       130.1836 
 463   0.0000       4.818936       131.1299 
 464   0.0000       4.824579       131.2835 
 465   0.0000       4.848800       131.9425 
 466   0.0000       4.850444       131.9873 
 467   0.0000       4.869316       132.5008 
 468   0.0000       4.889276       133.0440 
 469   0.0000       4.906507       133.5128 
 470   0.0000       4.918715       133.8451 
 471   0.0000       4.931283       134.1870 
 472   0.0000       4.968855       135.2094 
 473   0.0000       4.991920       135.8370 
 474   0.0000       4.999309       136.0381 
 475   0.0000       5.034557       136.9973 
 476   0.0000       5.050809       137.4395 
 477   0.0000       5.055865       137.5771 
 478   0.0000       5.061713       137.7362 
 479   0.0000       5.087233       138.4307 
 480   0.0000       5.093864       138.6111 
 481   0.0000       5.098701       138.7427 
 482   0.0000       5.115285       139.1940 
 483   0.0000       5.133396       139.6868 
 484   0.0000       5.140496       139.8800 
 485   0.0000       5.152354       140.2027 
 486   0.0000       5.172640       140.7547 
 487   0.0000       5.183509       141.0505 
 488   0.0000       5.187104       141.1483 
 489   0.0000       5.202745       141.5739 
 490   0.0000       5.214457       141.8926 
 491   0.0000       5.231958       142.3688 
 492   0.0000       5.243546       142.6841 
 493   0.0000       5.251935       142.9124 
 494   0.0000       5.258777       143.0986 
 495   0.0000       5.271426       143.4428 
 496   0.0000       5.283569       143.7732 
 497   0.0000       5.309083       144.4675 
 498   0.0000       5.321655       144.8096 
 499   0.0000       5.341272       145.3434 
 500   0.0000       5.360698       145.8720 
 501   0.0000       5.368511       146.0846 
 502   0.0000       5.397892       146.8841 
 503   0.0000       5.403571       147.0386 
 504   0.0000       5.415587       147.3656 
 505   0.0000       5.431999       147.8122 
 506   0.0000       5.460623       148.5911 
 507   0.0000       5.476255       149.0165 
 508   0.0000       5.498944       149.6339 
 509   0.0000       5.522239       150.2678 
 510   0.0000       5.540330       150.7600 
 511   0.0000       5.549203       151.0015 
 512   0.0000       5.577132       151.7615 
 513   0.0000       5.586635       152.0201 
 514   0.0000       5.609860       152.6521 
 515   0.0000       5.616666       152.8373 
 516   0.0000       5.663133       154.1017 
 517   0.0000       5.696869       155.0197 
 518   0.0000       5.706630       155.2853 
 519   0.0000       5.710205       155.3826 
 520   0.0000       5.722015       155.7039 
 521   0.0000       5.749027       156.4390 
 522   0.0000       5.777923       157.2253 
 523   0.0000       5.791317       157.5897 
 524   0.0000       5.791969       157.6075 
 525   0.0000       5.814087       158.2093 
 526   0.0000       5.826652       158.5513 
 527   0.0000       5.836073       158.8076 
 528   0.0000       5.857303       159.3853 
 529   0.0000       5.868144       159.6803 
 530   0.0000       5.892635       160.3468 
 531   0.0000       5.937566       161.5694 
 532   0.0000       5.948411       161.8645 
 533   0.0000       5.966992       162.3701 
 534   0.0000       5.974092       162.5633 
 535   0.0000       5.990339       163.0054 
 536   0.0000       6.005322       163.4131 
 537   0.0000       6.022369       163.8770 
 538   0.0000       6.035914       164.2456 
 539   0.0000       6.070606       165.1896 
 540   0.0000       6.102605       166.0603 
 541   0.0000       6.125481       166.6828 
 542   0.0000       6.160515       167.6361 
 543   0.0000       6.187569       168.3723 
 544   0.0000       6.196334       168.6108 
 545   0.0000       6.232951       169.6072 
 546   0.0000       6.257746       170.2819 
 547   0.0000       6.294953       171.2944 
 548   0.0000       6.310732       171.7238 
 549   0.0000       6.318582       171.9374 
 550   0.0000       6.320715       171.9954 
 551   0.0000       6.348483       172.7510 
 552   0.0000       6.359630       173.0543 
 553   0.0000       6.403629       174.2516 
 554   0.0000       6.427581       174.9034 
 555   0.0000       6.437649       175.1773 
 556   0.0000       6.498672       176.8379 
 557   0.0000       6.631333       180.4477 
 558   0.0000       6.664339       181.3459 
 559   0.0000       6.692930       182.1239 
 560   0.0000       6.719846       182.8563 
 561   0.0000       6.781965       184.5466 
 562   0.0000       6.814720       185.4379 
 563   0.0000       6.933860       188.6799 
 564   0.0000       6.976273       189.8340 
 565   0.0000       6.990404       190.2186 
 566   0.0000       6.997028       190.3988 
 567   0.0000       7.018687       190.9882 
 568   0.0000       7.122666       193.8176 
 569   0.0000       7.129243       193.9966 
 570   0.0000       7.143968       194.3973 
 571   0.0000       7.161043       194.8619 
 572   0.0000       7.167354       195.0336 
 573   0.0000       7.176014       195.2693 
 574   0.0000       7.180585       195.3936 
 575   0.0000       7.186434       195.5528 
 576   0.0000       7.263710       197.6556 
 577   0.0000       7.280798       198.1206 
 578   0.0000       7.319299       199.1683 
 579   0.0000       7.337159       199.6543 
 580   0.0000       7.352180       200.0630 
 581   0.0000       7.387589       201.0265 
 582   0.0000       7.408428       201.5936 
 583   0.0000       7.424009       202.0176 
 584   0.0000       7.440364       202.4626 
 585   0.0000       7.471150       203.3003 
 586   0.0000       7.514910       204.4911 
 587   0.0000       7.541572       205.2166 
 588   0.0000       7.565211       205.8599 
 589   0.0000       7.580851       206.2854 
 590   0.0000       7.602840       206.8838 
 591   0.0000       7.721937       210.1246 
 592   0.0000       7.755739       211.0444 
 593   0.0000       7.781522       211.7460 
 594   0.0000       7.823576       212.8903 
 595   0.0000       7.923933       215.6212 
 596   0.0000       7.940190       216.0636 
 597   0.0000       7.970318       216.8834 
 598   0.0000       7.982717       217.2208 
 599   0.0000       7.996791       217.6037 
 600   0.0000       8.078945       219.8393 
 601   0.0000      11.351796       308.8981 
 602   0.0000      11.912263       324.1492 
 603   0.0000      12.158793       330.8576 
 604   0.0000      12.432424       338.3035 
 605   0.0000      12.564599       341.9001 
 606   0.0000      12.867963       350.1551 
 607   0.0000      13.026882       354.4795 
 608   0.0000      13.312874       362.2617 
 609   0.0000      13.469191       366.5153 
 610   0.0000      13.611673       370.3925 
 611   0.0000      13.628546       370.8516 
 612   0.0000      13.860402       377.1607 
 613   0.0000      14.130650       384.5145 

                    ********************************
                    * MULLIKEN POPULATION ANALYSIS *
                    ********************************

-----------------------
MULLIKEN ATOMIC CHARGES
-----------------------
   0 C :    0.103828
   1 O :   -0.416840
   2 C :    0.091718
   3 C :    0.083393
   4 C :    0.114498
   5 C :    0.106276
   6 C :    0.071789
   7 O :   -0.407392
   8 O :   -0.452029
   9 O :   -0.448201
  10 O :   -0.438114
  11 C :   -0.201695
  12 C :   -0.295043
  13 H :    0.076824
  14 H :    0.139660
  15 H :    0.077060
  16 H :    0.109964
  17 H :    0.121998
  18 H :    0.111903
  19 H :    0.084262
  20 H :    0.081200
  21 H :    0.224467
  22 H :    0.240283
  23 H :    0.241553
  24 H :    0.094880
  25 H :    0.084896
  26 H :    0.116775
  27 H :    0.219709
  28 H :    0.062378
Sum of atomic charges:   -0.0000000

--------------------------------
MULLIKEN REDUCED ORBITAL CHARGES
--------------------------------
  0 C s       :     3.115143  s :     3.115143
      pz      :     0.995702  p :     2.577511
      px      :     0.701537
      py      :     0.880271
      dz2     :     0.031953  d :     0.190039
      dxz     :     0.045730
      dyz     :     0.029112
      dx2y2   :     0.046129
      dxy     :     0.037115
      f0      :     0.001675  f :     0.013479
      f+1     :     0.001851
      f-1     :     0.001517
      f+2     :     0.001956
      f-2     :     0.001120
      f+3     :     0.002575
      f-3     :     0.002784
  1 O s       :     3.749992  s :     3.749992
      pz      :     1.635583  p :     4.627477
      px      :     1.267888
      py      :     1.724007
      dz2     :     0.006177  d :     0.037308
      dxz     :     0.008879
      dyz     :     0.005519
      dx2y2   :     0.006720
      dxy     :     0.010013
      f0      :     0.000212  f :     0.002063
      f+1     :     0.000373
      f-1     :     0.000167
      f+2     :     0.000264
      f-2     :     0.000348
      f+3     :     0.000331
      f-3     :     0.000368
  2 C s       :     3.107216  s :     3.107216
      pz      :     0.873180  p :     2.595758
      px      :     0.847797
      py      :     0.874781
      dz2     :     0.055596  d :     0.191389
      dxz     :     0.030872
      dyz     :     0.022884
      dx2y2   :     0.043910
      dxy     :     0.038127
      f0      :     0.001696  f :     0.013919
      f+1     :     0.002668
      f-1     :     0.001609
      f+2     :     0.001927
      f-2     :     0.001700
      f+3     :     0.002136
      f-3     :     0.002183
  3 C s       :     3.119911  s :     3.119911
      pz      :     0.899650  p :     2.601958
      px      :     0.840009
      py      :     0.862299
      dz2     :     0.039302  d :     0.181632
      dxz     :     0.044401
      dyz     :     0.028996
      dx2y2   :     0.040031
      dxy     :     0.028903
      f0      :     0.001516  f :     0.013106
      f+1     :     0.002024
      f-1     :     0.001492
      f+2     :     0.002495
      f-2     :     0.001699
      f+3     :     0.001794
      f-3     :     0.002084
  4 C s       :     3.120879  s :     3.120879
      pz      :     0.971811  p :     2.580234
      px      :     0.919526
      py      :     0.688897
      dz2     :     0.037841  d :     0.170921
      dxz     :     0.022043
      dyz     :     0.035111
      dx2y2   :     0.033337
      dxy     :     0.042590
      f0      :     0.001606  f :     0.013467
      f+1     :     0.001423
      f-1     :     0.001854
      f+2     :     0.002219
      f-2     :     0.001110
      f+3     :     0.002931
      f-3     :     0.002325
  5 C s       :     3.119294  s :     3.119294
      pz      :     0.985608  p :     2.583171
      px      :     0.704636
      py      :     0.892928
      dz2     :     0.032051  d :     0.177928
      dxz     :     0.047478
      dyz     :     0.023427
      dx2y2   :     0.045088
      dxy     :     0.029884
      f0      :     0.002080  f :     0.013330
      f+1     :     0.001732
      f-1     :     0.001111
      f+2     :     0.001840
      f-2     :     0.001628
      f+3     :     0.002633
      f-3     :     0.002306
  6 C s       :     3.166620  s :     3.166620
      pz      :     0.748116  p :     2.615023
      px      :     0.897662
      py      :     0.969245
      dz2     :     0.034506  d :     0.135044
      dxz     :     0.033029
      dyz     :     0.022278
      dx2y2   :     0.025890
      dxy     :     0.019342
      f0      :     0.002777  f :     0.011524
      f+1     :     0.002145
      f-1     :     0.002116
      f+2     :     0.001099
      f-2     :     0.001273
      f+3     :     0.000828
      f-3     :     0.001285
  7 O s       :     3.762031  s :     3.762031
      pz      :     1.488486  p :     4.617522
      px      :     1.395071
      py      :     1.733964
      dz2     :     0.009643  d :     0.026389
      dxz     :     0.003593
      dyz     :     0.004804
      dx2y2   :     0.002509
      dxy     :     0.005840
      f0      :     0.000199  f :     0.001450
      f+1     :     0.000412
      f-1     :     0.000225
      f+2     :     0.000150
      f-2     :     0.000119
      f+3     :     0.000064
      f-3     :     0.000281
  8 O s       :     3.779320  s :     3.779320
      pz      :     1.201834  p :     4.643686
      px      :     1.674256
      py      :     1.767597
      dz2     :     0.005270  d :     0.027616
      dxz     :     0.009269
      dyz     :     0.004852
      dx2y2   :     0.003266
      dxy     :     0.004958
      f0      :     0.000228  f :     0.001407
      f+1     :     0.000318
      f-1     :     0.000203
      f+2     :     0.000117
      f-2     :     0.000319
      f+3     :     0.000102
      f-3     :     0.000121
  9 O s       :     3.755144  s :     3.755144
      pz      :     1.722472  p :     4.664750
      px      :     1.627641
      py      :     1.314638
      dz2     :     0.002447  d :     0.026839
      dxz     :     0.004959
      dyz     :     0.006526
      dx2y2   :     0.007759
      dxy     :     0.005147
      f0      :     0.000213  f :     0.001468
      f+1     :     0.000067
      f-1     :     0.000193
      f+2     :     0.000247
      f-2     :     0.000184
      f+3     :     0.000173
      f-3     :     0.000390
 10 O s       :     3.769336  s :     3.769336
      pz      :     1.883109  p :     4.640271
      px      :     1.450142
      py      :     1.307020
      dz2     :     0.004147  d :     0.027053
      dxz     :     0.003474
      dyz     :     0.001028
      dx2y2   :     0.013507
      dxy     :     0.004897
      f0      :     0.000173  f :     0.001454
      f+1     :     0.000307
      f-1     :     0.000290
      f+2     :     0.000095
      f-2     :     0.000043
      f+3     :     0.000163
      f-3     :     0.000384
 11 C s       :     3.213787  s :     3.213787
      pz      :     0.949064  p :     2.874486
      px      :     0.931162
      py      :     0.994259
      dz2     :     0.018897  d :     0.107014
      dxz     :     0.020789
      dyz     :     0.026179
      dx2y2   :     0.017783
      dxy     :     0.023366
      f0      :     0.000795  f :     0.006408
      f+1     :     0.001098
      f-1     :     0.000897
      f+2     :     0.001132
      f-2     :     0.000574
      f+3     :     0.001223
      f-3     :     0.000689
 12 C s       :     3.269152  s :     3.269152
      pz      :     1.006683  p :     2.938760
      px      :     0.910129
      py      :     1.021948
      dz2     :     0.011667  d :     0.082398
      dxz     :     0.017900
      dyz     :     0.017593
      dx2y2   :     0.015791
      dxy     :     0.019446
      f0      :     0.000419  f :     0.004733
      f+1     :     0.000714
      f-1     :     0.000803
      f+2     :     0.000773
      f-2     :     0.000252
      f+3     :     0.001124
      f-3     :     0.000649
 13 H s       :     0.892893  s :     0.892893
      pz      :     0.011937  p :     0.027785
      px      :     0.007266
      py      :     0.008583
      dz2     :     0.000779  d :     0.002498
      dxz     :     0.000667
      dyz     :     0.000766
      dx2y2   :     0.000207
      dxy     :     0.000079
 14 H s       :     0.828041  s :     0.828041
      pz      :     0.011630  p :     0.029621
      px      :     0.008794
      py      :     0.009198
      dz2     :     0.000793  d :     0.002678
      dxz     :     0.000658
      dyz     :     0.000736
      dx2y2   :     0.000318
      dxy     :     0.000173
 15 H s       :     0.892583  s :     0.892583
      pz      :     0.012484  p :     0.027822
      px      :     0.010439
      py      :     0.004898
      dz2     :     0.000849  d :     0.002534
      dxz     :     0.000796
      dyz     :     0.000592
      dx2y2   :     0.000198
      dxy     :     0.000099
 16 H s       :     0.857144  s :     0.857144
      pz      :     0.014656  p :     0.030258
      px      :     0.007514
      py      :     0.008088
      dz2     :     0.000833  d :     0.002633
      dxz     :     0.000714
      dyz     :     0.000800
      dx2y2   :     0.000154
      dxy     :     0.000132
 17 H s       :     0.845115  s :     0.845115
      pz      :     0.013674  p :     0.030189
      px      :     0.005667
      py      :     0.010849
      dz2     :     0.000964  d :     0.002698
      dxz     :     0.000567
      dyz     :     0.000512
      dx2y2   :     0.000352
      dxy     :     0.000302
 18 H s       :     0.858432  s :     0.858432
      pz      :     0.008736  p :     0.027222
      px      :     0.009447
      py      :     0.009040
      dz2     :     0.000242  d :     0.002443
      dxz     :     0.000162
      dyz     :     0.000706
      dx2y2   :     0.000707
      dxy     :     0.000626
 19 H s       :     0.884403  s :     0.884403
      pz      :     0.011588  p :     0.028880
      px      :     0.009527
      py      :     0.007765
      dz2     :     0.000791  d :     0.002455
      dxz     :     0.000545
      dyz     :     0.000474
      dx2y2   :     0.000267
      dxy     :     0.000379
 20 H s       :     0.888829  s :     0.888829
      pz      :     0.005401  p :     0.027593
      px      :     0.007507
      py      :     0.014685
      dz2     :     0.000274  d :     0.002378
      dxz     :     0.000026
      dyz     :     0.000548
      dx2y2   :     0.000686
      dxy     :     0.000843
 21 H s       :     0.693485  s :     0.693485
      pz      :     0.023009  p :     0.075073
      px      :     0.025066
      py      :     0.026998
      dz2     :     0.001676  d :     0.006975
      dxz     :     0.002225
      dyz     :     0.002180
      dx2y2   :     0.000555
      dxy     :     0.000339
 22 H s       :     0.675162  s :     0.675162
      pz      :     0.025708  p :     0.077297
      px      :     0.030588
      py      :     0.021002
      dz2     :     0.001737  d :     0.007257
      dxz     :     0.001411
      dyz     :     0.000925
      dx2y2   :     0.001950
      dxy     :     0.001235
 23 H s       :     0.676293  s :     0.676293
      pz      :     0.028690  p :     0.074965
      px      :     0.019197
      py      :     0.027078
      dz2     :     0.000650  d :     0.007188
      dxz     :     0.000073
      dyz     :     0.002849
      dx2y2   :     0.001654
      dxy     :     0.001961
 24 H s       :     0.876031  s :     0.876031
      pz      :     0.007835  p :     0.026903
      px      :     0.010858
      py      :     0.008210
      dz2     :     0.000591  d :     0.002186
      dxz     :     0.000607
      dyz     :     0.000488
      dx2y2   :     0.000296
      dxy     :     0.000205
 25 H s       :     0.886156  s :     0.886156
      pz      :     0.008990  p :     0.026771
      px      :     0.008768
      py      :     0.009014
      dz2     :     0.000516  d :     0.002176
      dxz     :     0.000431
      dyz     :     0.000523
      dx2y2   :     0.000306
      dxy     :     0.000401
 26 H s       :     0.853899  s :     0.853899
      pz      :     0.007610  p :     0.027133
      px      :     0.009297
      py      :     0.010226
      dz2     :     0.000235  d :     0.002193
      dxz     :     0.000160
      dyz     :     0.000491
      dx2y2   :     0.000677
      dxy     :     0.000629
 27 H s       :     0.692552  s :     0.692552
      pz      :     0.022880  p :     0.080177
      px      :     0.029024
      py      :     0.028273
      dz2     :     0.000656  d :     0.007562
      dxz     :     0.001710
      dyz     :     0.000510
      dx2y2   :     0.002742
      dxy     :     0.001944
 28 H s       :     0.908842  s :     0.908842
      pz      :     0.008850  p :     0.026485
      px      :     0.009647
      py      :     0.007989
      dz2     :     0.000587  d :     0.002295
      dxz     :     0.000649
      dyz     :     0.000387
      dx2y2   :     0.000453
      dxy     :     0.000218


                     *******************************
                     * LOEWDIN POPULATION ANALYSIS *
                     *******************************

----------------------
LOEWDIN ATOMIC CHARGES
----------------------
   0 C :   -0.105263
   1 O :    0.271380
   2 C :   -0.142361
   3 C :   -0.112185
   4 C :   -0.136031
   5 C :   -0.119645
   6 C :   -0.036737
   7 O :    0.325262
   8 O :    0.323327
   9 O :    0.321140
  10 O :    0.331547
  11 C :    0.049715
  12 C :    0.111210
  13 H :   -0.030918
  14 H :   -0.014886
  15 H :   -0.035043
  16 H :   -0.022316
  17 H :   -0.016352
  18 H :   -0.023089
  19 H :   -0.035400
  20 H :   -0.032967
  21 H :   -0.191327
  22 H :   -0.181489
  23 H :   -0.179738
  24 H :   -0.031188
  25 H :   -0.030743
  26 H :   -0.029943
  27 H :   -0.189814
  28 H :   -0.036148

-------------------------------
LOEWDIN REDUCED ORBITAL CHARGES
-------------------------------
  0 C s       :     2.684145  s :     2.684145
      pz      :     0.982525  p :     2.693588
      px      :     0.774501
      py      :     0.936561
      dz2     :     0.109285  d :     0.643258
      dxz     :     0.142234
      dyz     :     0.104936
      dx2y2   :     0.158141
      dxy     :     0.128662
      f0      :     0.010097  f :     0.084273
      f+1     :     0.009904
      f-1     :     0.008930
      f+2     :     0.012133
      f-2     :     0.009137
      f+3     :     0.016548
      f-3     :     0.017524
  1 O s       :     3.244578  s :     3.244578
      pz      :     1.553620  p :     4.382685
      px      :     1.230124
      py      :     1.598940
      dz2     :     0.015971  d :     0.096069
      dxz     :     0.025610
      dyz     :     0.008797
      dx2y2   :     0.022847
      dxy     :     0.022843
      f0      :     0.000659  f :     0.005288
      f+1     :     0.000715
      f-1     :     0.000430
      f+2     :     0.000889
      f-2     :     0.000839
      f+3     :     0.000991
      f-3     :     0.000766
  2 C s       :     2.684692  s :     2.684692
      pz      :     0.896862  p :     2.709998
      px      :     0.884533
      py      :     0.928603
      dz2     :     0.172027  d :     0.660617
      dxz     :     0.116147
      dyz     :     0.091098
      dx2y2   :     0.145556
      dxy     :     0.135788
      f0      :     0.009574  f :     0.087054
      f+1     :     0.015027
      f-1     :     0.009654
      f+2     :     0.013008
      f-2     :     0.015089
      f+3     :     0.014451
      f-3     :     0.010252
  3 C s       :     2.682724  s :     2.682724
      pz      :     0.879339  p :     2.704049
      px      :     0.904916
      py      :     0.919794
      dz2     :     0.124645  d :     0.641194
      dxz     :     0.141008
      dyz     :     0.098957
      dx2y2   :     0.154920
      dxy     :     0.121664
      f0      :     0.010379  f :     0.084218
      f+1     :     0.011237
      f-1     :     0.010129
      f+2     :     0.016128
      f-2     :     0.014346
      f+3     :     0.012112
      f-3     :     0.009888
  4 C s       :     2.682265  s :     2.682265
      pz      :     0.969318  p :     2.709066
      px      :     0.968649
      py      :     0.771098
      dz2     :     0.135460  d :     0.658068
      dxz     :     0.097433
      dyz     :     0.126402
      dx2y2   :     0.149191
      dxy     :     0.149583
      f0      :     0.010286  f :     0.086633
      f+1     :     0.006718
      f-1     :     0.011815
      f+2     :     0.016301
      f-2     :     0.007946
      f+3     :     0.019472
      f-3     :     0.014093
  5 C s       :     2.681475  s :     2.681475
      pz      :     0.977535  p :     2.697620
      px      :     0.793203
      py      :     0.926882
      dz2     :     0.119107  d :     0.654926
      dxz     :     0.156795
      dyz     :     0.082260
      dx2y2   :     0.178719
      dxy     :     0.118043
      f0      :     0.011266  f :     0.085625
      f+1     :     0.009749
      f-1     :     0.006794
      f+2     :     0.012407
      f-2     :     0.011567
      f+3     :     0.019390
      f-3     :     0.014453
  6 C s       :     2.682891  s :     2.682891
      pz      :     0.810503  p :     2.716489
      px      :     0.929475
      py      :     0.976511
      dz2     :     0.156381  d :     0.562361
      dxz     :     0.140584
      dyz     :     0.087348
      dx2y2   :     0.104782
      dxy     :     0.073265
      f0      :     0.016800  f :     0.074996
      f+1     :     0.012423
      f-1     :     0.014113
      f+2     :     0.007995
      f-2     :     0.011534
      f+3     :     0.005583
      f-3     :     0.006548
  7 O s       :     3.207490  s :     3.207490
      pz      :     1.412972  p :     4.395487
      px      :     1.370008
      py      :     1.612507
      dz2     :     0.021913  d :     0.067476
      dxz     :     0.015723
      dyz     :     0.010136
      dx2y2   :     0.007907
      dxy     :     0.011796
      f0      :     0.000980  f :     0.004285
      f+1     :     0.000759
      f-1     :     0.000727
      f+2     :     0.000381
      f-2     :     0.000607
      f+3     :     0.000292
      f-3     :     0.000540
  8 O s       :     3.213127  s :     3.213127
      pz      :     1.220502  p :     4.392307
      px      :     1.564439
      py      :     1.607367
      dz2     :     0.022324  d :     0.067020
      dxz     :     0.019527
      dyz     :     0.011499
      dx2y2   :     0.007217
      dxy     :     0.006454
      f0      :     0.000772  f :     0.004219
      f+1     :     0.000874
      f-1     :     0.000582
      f+2     :     0.000554
      f-2     :     0.000966
      f+3     :     0.000306
      f-3     :     0.000165
  9 O s       :     3.204002  s :     3.204002
      pz      :     1.606976  p :     4.403659
      px      :     1.528525
      py      :     1.268159
      dz2     :     0.007285  d :     0.066874
      dxz     :     0.006908
      dyz     :     0.016105
      dx2y2   :     0.018273
      dxy     :     0.018304
      f0      :     0.000337  f :     0.004325
      f+1     :     0.000210
      f-1     :     0.000524
      f+2     :     0.001053
      f-2     :     0.000575
      f+3     :     0.000791
      f-3     :     0.000835
 10 O s       :     3.205114  s :     3.205114
      pz      :     1.685879  p :     4.392037
      px      :     1.396250
      py      :     1.309908
[...]
Average map sizes:
   Aux shells -> MOs              39.0
   Aux shells -> PAOs            614.0
   MOs        -> AO shells       211.4
   PAOs       -> AO shells       224.4

Calculating integrals (2.7 sec, 280.087 MB)
Sorting integrals (0.4 sec, 280.070 MB)
Total time for the integral transformation: 3.2 sec
--------------------------------
INITIAL GUESS AND PNO GENERATION
--------------------------------

PNO truncation parameters                   .... 
    ScaleTCutPNO       =        1.000e-02
    PAOOverlapThresh   =        1.000e-08

    TCutPairs          =        1.000e-05
    TCutPNO            =        1.000e-07
    TCutPNOSingles     =        3.000e-09
    TCutMP2Pairs       =        1.000e-06
    TCutMKN            =        1.000e-03
    TCutDO             =        5.000e-03

Pair selection                          .... not used
Type of local MP2 treatment                 .... full local PMP2
Strategy for PNO selection                  .... occupation number selection
Pair density normalization                  .... MP2 norm
Spin component scaling                      .... not used

PASS-1: Formation of initial guess LMP2 amplitudes
Initial amplitudes guess done. Entering LMP2 iteration loop:
   Max. no of iterations          ...  50
   Energy convergence tolerance   ...    1.0e-07
   Residual convergence tolerance ...    5.0e-07
   Fock matrix cutoff             ...    1.0e-05 Eh
   DIIS convergence acceleration parameters:
        Max # vectors in DIIS     ... 7
        Start iteration of DIIS   ... 0
        Levelshift                ... 2.000e-01
        Damping factor 1          ... 5.000e-01
        Damping factor 2          ... 1.000e+00
   L-MP2 PNO cut-off              ...   1.0e-09
   L-MP2 PNO cut-off (core)       ...   1.0e-11
                           *** Turning on DIIS ***
LMP2-Iter=   0:  ELMP2= -2.529587172711  DE=   5.4e-02 RMAX=   6.4e-03
LMP2-Iter=   1:  ELMP2= -2.555874629305  DE=   2.6e-02 RMAX=   3.5e-03
LMP2-Iter=   2:  ELMP2= -2.559979292732  DE=   4.1e-03 RMAX=   7.1e-04
LMP2-Iter=   3:  ELMP2= -2.560465778118  DE=   4.9e-04 RMAX=   2.4e-04
LMP2-Iter=   4:  ELMP2= -2.560494484532  DE=   2.9e-05 RMAX=   2.9e-05
LMP2-Iter=   5:  ELMP2= -2.560491703586  DE=   2.8e-06 RMAX=   8.5e-06
LMP2-Iter=   6:  ELMP2= -2.560491107023  DE=   6.0e-07 RMAX=   1.3e-06
LMP2-Iter=   7:  ELMP2= -2.560491019529  DE=   8.7e-08 RMAX=   2.9e-07
LMP2-Iter=   8:  ELMP2= -2.560491034619  DE=   1.5e-08 RMAX=   4.8e-08 => CONVERGED
PASS-2: Formation of Pair natural orbitals
   .... Finished loop over pairs

 PNO Occupation Number Statistics: 
  | Av. % of trace(Dij) retained        ...  98.320319467026
  | sigma^2 in % of trace(Dij) retained ...   6.87e+00
  | Av. % of trace(Di) retained         ...  99.999710444414
  | sigma^2 in % of trace(Di) retained  ...   9.00e-09
 Distributions of % trace(Dij) recovered:
  |       >= 99.9  ...   118 ( 15.3 % of all pairs)
  |   [70.0, 80.0) ...     4 (  0.5 % of all pairs)
  |   [80.0, 90.0) ...    13 (  1.7 % of all pairs)
  |   [90.0, 99.0) ...   345 ( 44.7 % of all pairs)
  |   [99.0, 99.9) ...   292 ( 37.8 % of all pairs)
 Distributions of % trace(Di) recovered :
  |       >= 99.9  ...    39 (100.0 % of all I-pairs )

Making pair pair interaction lists          ... done

                       ===========================
                        646 OF  772 PAIRS ARE KEPT
                       ===========================

Total time spent in the initial guess                 ...   106.879 sec
L-MP2 correlation energy (all non-screened pairs)     ...      -2.560491034619 Eh
L-MP2 PNO error correction                            ...      -0.000090642886 Eh
                                                          --------------------
Initial total L-MP2 energy (non-screened pairs)       ...      -2.560581677505 Eh

Initial PNO correlation energy                        ...      -2.557171971775 Eh
sum of pair energies estimated for screened out pairs ...      -0.000006963669 Eh
sum of MP2 pair energies for pairs that were not kept ...      -0.000716341253 Eh
sum of PNO error estimates for the kept pairs         ...      -0.002939530558 Eh
                                                          --------------------
sum of all corrections                                         -0.003662835480
Initial total correlation energy                               -2.560834807255
Thresholds for map construction and integral transformation for fine MP2 and CCSD(T) calculation:
   TCutMKN   ...     1.0e-03
   TCutDO    ...     5.0e-03
   TCutPairs ...     1.0e-05
   TCutCMO   ...     1.0e-03
   TCutCPAO  ...     1.0e-03

Time for aux screen maps:            0.020
Time for maps after fine MP2:            0.070
-----------------------------
LOCAL RI TRANSFORMATION (IJV)
-----------------------------

Orbital window:      13 to 51
Basis functions:    614 (226 shells)
Aux. functions:    1533 (459 shells)

Processing maps (0.0 sec)
Average map sizes:
   Aux shells -> MOs(i)           38.7
   Aux shells -> MOs(j)           39.0
   MOs        -> AO shells       211.4

Calculating integrals (2.3 sec, 17.700 MB)
Sorting integrals (0.1 sec, 17.683 MB)
Total time for the integral transformation: 2.4 sec
--------------------------------
LOCAL RI TRANSFORMATION (VABPAO)
--------------------------------

Number of PAOs:     614
Basis functions:    614 (226 shells)
Aux. functions:    1533 (459 shells)

Processing maps (0.0 sec)
Average map sizes:
   Aux shells -> PAOs            614.0
   PAOs       -> AO shells       224.4

Calculating integrals (12.1 sec, 8249.121 MB)
Finished


-------------------------------------
Pair Pair Term precalculation with     
RI-(ij|mn) and (im|jn) transformation  
ON THE FLY                             
-------------------------------------

   IBatch   1 (of   4)              ... done (   79.855 sec)
   IBatch   2 (of   4)              ... done (   89.161 sec)
   IBatch   3 (of   4)              ... done (  107.266 sec)
   IBatch   4 (of   4)              ... done (  127.664 sec)
Total EXT                           ...         403.946 sec

---------------------
RI-PNO TRANSFORMATION
---------------------

Total Number of PNOs                   ... 19616
Average number of PNOs per pair        ...    30
Maximal number of PNOs per pair        ...    70
   #pairs with  1 -  5 PNOs   :    0
   #pairs with  6 - 10 PNOs   :  116
   #pairs with 11 - 15 PNOs   :   72
   #pairs with 16 - 20 PNOs   :   60
   #pairs with 21 - 25 PNOs   :   73
   #pairs with 26 - 30 PNOs   :   60
   #pairs with 31 - 35 PNOs   :   26
   #pairs with 36 - 40 PNOs   :   26
   #pairs with 41 - 45 PNOs   :   37
   #pairs with 46 - 50 PNOs   :   49
   #pairs with 51 - 55 PNOs   :   49
   #pairs with 56 - 60 PNOs   :   21
   #pairs with 61 - 65 PNOs   :   36
   #pairs with 66 - 70 PNOs   :   21

Generation of (ij|ab)[P] integrals            ... on
Generation of (ia|bc)[P],(ja|bc)[P] integrals ... on
Storage of 3 and 4 external integrals         ... on
Generation of ALL (ka|bc)[P] integrals        ... on
Keep RI integrals in memory                   ... off

Ibatch:  1 (of  1)
Starting 2-4 index PNO integral generation ... done

Timings:
Total PNO integral transformation time     ...        265.745 sec
Size of the 3-external file                ...       315 MB
Size of the 4-external file                ...      2154 MB
Size of the IKJL file                      ...         0 MB
Size of the all 3-external file            ...      6145 MB
Size of the 1-external file                ...        17 MB

Making pair/pair overlap matrices          ... done (   44.253 sec)
Size of the pair overlap file              ... 1994 MB
Redoing the guess amplitudes               ... done (    0.009 sec)

-------------------------
FINAL STARTUP INFORMATION
-------------------------

E(0)                                       ...   -686.795032802
E(L-MP2)                                   ...     -2.560581678
E(L-MP2) including corrections             ...     -2.560834807
Initial E(tot)                             ...   -689.355867609
<T|T>                                      ...      0.628726003
Number of pairs included                   ... 646
Total number of pairs                      ... 780

------------------------------------------------
                  RHF COUPLED CLUSTER ITERATIONS
------------------------------------------------

Number of PNO amplitudes to be optimized   ...       820552
Number of non-PNO amplitudes               ...    204035224
Untruncated number of regular amplitudes   ...    246358320

Iter       E(tot)           E(Corr)          Delta-E          Residual     Time
  0   -689.269850397     -2.471154759      0.089426918      0.018683555   32.68
                           *** Turning on DIIS ***
  1   -689.350490505     -2.551794867     -0.080640108      0.008820916   35.90
  2   -689.409822628     -2.611126991     -0.059332123      0.002928337   32.68
  3   -689.421443108     -2.622747471     -0.011620480      0.001302297   32.67
  4   -689.424286066     -2.625590429     -0.002842958      0.000474998   32.65
  5   -689.424806704     -2.626111066     -0.000520638      0.000205669   32.61
  6   -689.424916461     -2.626220823     -0.000109757      0.000099789   32.66
  7   -689.424931386     -2.626235749     -0.000014925      0.000045758   32.66
  8   -689.424933832     -2.626238194     -0.000002445      0.000016870   32.67
  9   -689.424931625     -2.626235987      0.000002207      0.000005710   32.64
               --- The Coupled-Cluster iterations have converged ---

----------------------
COUPLED CLUSTER ENERGY
----------------------

E(0)                                       ...   -686.795032802
E(CORR)(strong-pairs)                      ...     -2.626235987
E(CORR)(weak-pairs)                        ...     -0.003662835
E(CORR)(corrected)                         ...     -2.629898823
E(TOT)                                     ...   -689.424931625
Singles Norm <S|S>**1/2                    ...      0.088777319  
T1 diagnostic                              ...      0.010052052  

------------------
LARGEST AMPLITUDES
------------------
  23-> 52  23-> 52       0.039709
  24-> 52  24-> 52       0.039086
  27-> 54  27-> 54       0.036937
  26-> 55  26-> 55       0.036936
  28-> 55  28-> 55       0.033850
  31-> 53  31-> 53       0.033723
  41-> 58  41-> 58       0.031395
  51-> 58  51-> 58       0.030899
  30-> 52  30-> 52       0.030489
  38-> 52  38-> 52       0.030406
  36-> 52  36-> 52       0.029700
  42-> 52  42-> 52       0.029289
  43-> 58  43-> 58       0.029031
  39-> 52  39-> 52       0.028403
  37-> 52  37-> 52       0.028371
  48-> 58  48-> 58       0.028258


-------------------------------------------
DLPNO BASED TRIPLES CORRECTION
-------------------------------------------

Singles multiplier          ...  1.000000
TCutTNO                     ... 1.000e-09
TCutMP2Pairs                ... 1.000e-06
TCutDOStrong                ... 1.000e-02
TCutMKNStrong               ... 1.000e-02
TCutDOWeak                  ... 2.000e-02
TCutMKNWeak                 ... 1.000e-01

Fragment selection                          .... not used
Number of Triples that are to be computed   ...      9033

 . . . . . . . . .
10% done  
20% done  
30% done               (   1010.346 sec)
 . . . . . . . . .
40% done  
50% done  
60% done  
70% done  
80% done  
90% done               (   1653.010 sec)
Triples timings:
Total time for T0               ...  2881.028 sec
Total time for Iterative (T)    ...     0.000 sec
Total time of overall (T)       ...  2881.033 sec

Triples List generation         ...     0.000 sec
TNO generation                  ...   217.649 sec
Pair density generation         ...     0.009 sec
Look up tables                  ...     0.000 sec
Generating 3-index integrals    ...  2258.603 sec
  Make 4-ind.int. from 3-ind.int...    64.947 sec
  Projecting amplitudes (D + S) ...   272.590 sec
  Downprojecting integrals      ...     0.013 sec
  Energy contr. (sum over a,b,c)...    16.154 sec
Fitting ET(->0)                 ...     0.000 sec

Everything after 3-index        ...   404.753 sec

Timing details:
 TNO integrals                  ...  2317.792 sec
   Reading 3-index integrals    ...     4.111 sec
   Sorting integrals            ...   167.229 sec
       Sorting integrals 1      ...     0.011 sec
       Sorting integrals 2      ...   143.052 sec
       Sorting integrals 3      ...     2.652 sec
       Sorting integrals 4      ...     0.378 sec
       Sorting integrals 5      ...     1.805 sec
       Sorting integrals 6      ...    19.331 sec
   Calculating local VM**-1/2   ...     4.143 sec
   Orthogonal. integrals        ...     4.964 sec
   Multipl. 3-index integrals   ...  2137.344 sec
   All concerning IRIab (w/TNO) ...    34.207 sec

 Calculate W0/W1                ...    51.015 sec
 W 3-ext contribution           ...    25.956 sec
 W 3-int contribution           ...    11.234 sec
 Sorting W                      ...    13.013 sec

 V exchange contribution        ...     6.075 sec

 Timings for Triples without generation
     of 3-index integrals       ...   404.738 sec
       0 weak pairs             ...   345.779 sec
       1 weak pair              ...    58.959 sec
       2 weak pairs             ...     0.000 sec
       3 weak pairs             ...     0.000 sec
  Extra time for extrapolation  ...     0.000 sec

Number of Triples   (0, 1, 2, 3 weak pairs; overall):   6722    2311       0       0  (  9033)
Number of Atoms     (0, 1, 2, 3 weak pairs; overall):   23.4    22.3     0.0     0.0  (    29)
Number of PAOs      (0, 1, 2, 3 weak pairs; overall):  517.8   486.7     0.0     0.0  (   614)
Number of AuxFcns   (0, 1, 2, 3 weak pairs; overall):  482.6   345.2     0.0     0.0  (  1533)
Number of TNOs      (0, 1, 2, 3 weak pairs         ):   82.4    51.3     0.0     0.0
Aver. Number of NTNO, Atoms, PAOs, AuxFcns / Triples:   9033    74.5    23.1   509.9   447.4

Triples Correction (T)                     ...     -0.102726518
Final correlation energy                   ...     -2.732625341
E(CCSD)                                    ...   -689.424931625
E(CCSD(T))                                 ...   -689.527658143


Maximum memory used throughout the entire calculation: 8038.7 MB


------------------------------------------------------------------------------- 
                                     TIMINGS                                   
------------------------------------------------------------------------------- 


Total execution time                   ...     4095.824 sec

Localization of occupied MO's          ...        1.354 sec (  0.0%)
Fock Matrix Formation                  ...        9.436 sec (  0.2%)
Global overlap, Fock, MKN matrices     ...        0.362 sec (  0.0%)
Differential overlap integrals         ...        0.372 sec (  0.0%)
Organizing maps                        ...        0.208 sec (  0.0%)
RI 3-index integral generations        ...       20.815 sec (  0.5%)
RI-PNO integral transformation         ...      721.412 sec ( 17.6%)
Initial Guess                          ...      129.059 sec (  3.2%)
DIIS Solver                            ...        3.605 sec (  0.1%)
State Vector Update                    ...        0.069 sec (  0.0%)
Sigma-vector construction              ...      329.235 sec (  8.0%)
  <0|H|D>                              ...        0.001 sec (  0.0% of sigma)
  <D|H|D>(0-ext)                       ...       14.782 sec (  4.5% of sigma)
  <D|H|D>(2-ext Fock)                  ...        0.026 sec (  0.0% of sigma)
  <D|H|D>(2-ext)                       ...      111.090 sec ( 33.7% of sigma)
  <D|H|D>(4-ext)                       ...       18.151 sec (  5.5% of sigma)
  <D|H|D>(4-ext-corr)                  ...      109.019 sec ( 33.1% of sigma)
  CCSD doubles correction              ...        0.713 sec (  0.2% of sigma)
  <S|H|S>                              ...        1.291 sec (  0.4% of sigma)
  <S|H|D>(1-ext)                       ...        1.541 sec (  0.5% of sigma)
  <D|H|S>(1-ext)                       ...        0.040 sec (  0.0% of sigma)
  <S|H|D>(3-ext)                       ...        0.733 sec (  0.2% of sigma)
  CCSD singles correction              ...        0.001 sec (  0.0% of sigma)
  Fock-dressing                        ...       45.881 sec ( 13.9% of sigma)
  Singles amplitudes                   ...        2.174 sec (  0.7% of sigma)
  (ik|jl)-dressing                     ...       11.398 sec (  3.5% of sigma)
  (ij|ab),(ia|jb)-dressing             ...        6.877 sec (  2.1% of sigma)
  Pair energies                        ...        0.016 sec (  0.0% of sigma)
Total Time for computing (T)           ...     2881.183 sec ( 70.3% of ALL)


-------------------------   --------------------
FINAL SINGLE POINT ENERGY      -689.527658143325
-------------------------   --------------------


                            ***************************************
                            *     ORCA property calculations      *
                            ***************************************

                                    ---------------------
                                    Active property flags
                                    ---------------------
   (+) Dipole Moment


------------------------------------------------------------------------------
                       ORCA ELECTRIC PROPERTIES CALCULATION
------------------------------------------------------------------------------

Dipole Moment Calculation                       ... on
Quadrupole Moment Calculation                   ... off
Polarizability Calculation                      ... off
GBWName                                         ... C_Et_glycoside_a.gbw
Electron density file                           ... C_Et_glycoside_a.scfp.tmp
The origin for moment calculation is the CENTER OF MASS  = (-0.052442,  0.052681 -0.044498)

-------------
DIPOLE MOMENT
-------------
                                X             Y             Z
Electronic contribution:     -6.01933       5.14422      -3.52075
Nuclear contribution   :      5.45389      -5.47877       4.62759
                        -----------------------------------------
Total Dipole Moment    :     -0.56544      -0.33455       1.10685
                        -----------------------------------------
Magnitude (a.u.)       :      1.28715
Magnitude (Debye)      :      3.27168



--------------------
Rotational spectrum 
--------------------
 
Rotational constants in cm-1:     0.034133     0.020508     0.015112 
Rotational constants in MHz :  1023.287336   614.823226   453.053839 

 Dipole components along the rotational axes: 
x,y,z [a.u.] :    -0.577095    -0.305167     1.109321 
x,y,z [Debye]:    -1.466859    -0.775673     2.819670 

 

Timings for individual modules:

Sum of individual times         ...     4160.752 sec (=  69.346 min)
GTO integral calculation        ...        2.694 sec (=   0.045 min)   0.1 %
SCF iterations                  ...       61.282 sec (=   1.021 min)   1.5 %
MDCI module                     ...     4096.776 sec (=  68.280 min)  98.5 %
                             ****ORCA TERMINATED NORMALLY****
TOTAL RUN TIME: 0 days 1 hours 9 minutes 21 seconds 145 msec
C_Et_glycoside_a.gbw -> /home1/pantazis/klk/xyz_1/Oxygen_compounds/C_Et_glycoside_a.gbw
C_Et_glycoside_a.job -> /home1/pantazis/klk/xyz_1/Oxygen_compounds/C_Et_glycoside_a.job
C_Et_glycoside_a.loc -> /home1/pantazis/klk/xyz_1/Oxygen_compounds/C_Et_glycoside_a.loc
C_Et_glycoside_a.nodes -> /home1/pantazis/klk/xyz_1/Oxygen_compounds/C_Et_glycoside_a.nodes
C_Et_glycoside_a.prop -> /home1/pantazis/klk/xyz_1/Oxygen_compounds/C_Et_glycoside_a.prop
C_Et_glycoside_a_property.txt -> /home1/pantazis/klk/xyz_1/Oxygen_compounds/C_Et_glycoside_a_property.txt
C_Et_glycoside_a.xyz -> /home1/pantazis/klk/xyz_1/Oxygen_compounds/C_Et_glycoside_a.xyz
cp: cannot stat C_Et_glycoside_a.asa.inp: No such file or directory
