! Job execution by suborca V 6.07 on ZEUS !
Job started from zeus1, running /scratch/pantazis/chlorocyclohexane_ax__9tX4dI/orca/orca copied from /opt/orca on zeussn151 in /scratch/pantazis/chlorocyclohexane_ax__9tX4dI
Job execution start: Fri Jun 28 09:31:18 CEST 2019
Shared library path: /scratch/pantazis/chlorocyclohexane_ax__9tX4dI/orca:/opt/openmpi_1.10.2/lib:/opt/intel/mkl/lib/intel64:/opt/intel/lib/intel64:
PBS Job ID is: 158359.icqc
izeussn151
izeussn151
izeussn151
izeussn151
izeussn151
izeussn151
izeussn151
izeussn151

                                 *****************
                                 * O   R   C   A *
                                 *****************

           --- An Ab Initio, DFT and Semiempirical electronic structure package ---

                  #######################################################
                  #                        -***-                        #
                  #          Department of theory and spectroscopy      #
                  #               Directorship: Frank Neese             #
                  #        Max Planck Institute fuer Kohlenforschung    #
                  #                Kaiser Wilhelm Platz 1               #
                  #                 D-45470 Muelheim/Ruhr               #
                  #                      Germany                        #
                  #                                                     #
                  #                  All rights reserved                #
                  #                        -***-                        #
                  #######################################################


                         Program Version 4.1.x  -  STABLE  -
                                (SVN: $Rev: 14094$)
                ($Date: 2019-06-14 15:01:15 +0200 (Fri, 14 Jun 2019) $)

                         (BUILD: $Sun Jun 23 06:18:31 CEST 2019$)


 With contributions from (in alphabetic order):
   Daniel Aravena         : Magnetic Properties
   Michael Atanasov       : Ab Initio Ligand Field Theory
   Alexander A. Auer      : GIAO ZORA
   Ute Becker             : Parallelization
   Giovanni Bistoni       : ED, Open-shell LED
   Martin Brehm           : Molecular dynamics
   Dmytro Bykov           : SCF Hessian
   Vijay G. Chilkuri      : MRCI spin determinant printing
   Dipayan Datta          : RHF DLPNO-CCSD density
   Achintya Kumar Dutta   : EOM-CC, STEOM-CC
   Dmitry Ganyushin       : Spin-Orbit,Spin-Spin,Magnetic field MRCI
   Miquel Garcia          : C-PCM Hessian
   Yang Guo               : DLPNO-NEVPT2, CIM, IAO-localization
   Andreas Hansen         : Spin unrestricted coupled pair/coupled cluster methods
   Benjamin Helmich-Paris : CASSCF linear response (MC-RPA)
   Lee Huntington         : MR-EOM, pCC
   Robert Izsak           : Overlap fitted RIJCOSX, COSX-SCS-MP3, EOM
   Christian Kollmar      : KDIIS, OOCD, Brueckner-CCSD(T), CCSD density
   Simone Kossmann        : Meta GGA functionals, TD-DFT gradient, OOMP2, MP2 Hessian
   Martin Krupicka        : AUTO-CI
   Lucas Lang             : DCDCAS
   Dagmar Lenk            : GEPOL surface, SMD
   Dimitrios Liakos       : Extrapolation schemes; parallel MDCI
   Dimitrios Manganas     : ROCIS; embedding schemes
   Dimitrios Pantazis     : SARC Basis sets
   Taras Petrenko         : DFT Hessian,TD-DFT gradient, ASA, ECA, R-Raman, ABS, FL, XAS/XES, NRVS
   Peter Pinski           : DLPNO-MP2, DLPNO-MP2 Gradient
   Christoph Reimann      : Effective Core Potentials
   Marius Retegan         : Local ZFS, SOC
   Christoph Riplinger    : Optimizer, TS searches, QM/MM, DLPNO-CCSD(T), (RO)-DLPNO pert. Triples
   Tobias Risthaus        : Range-separated hybrids, TD-DFT gradient, RPA, STAB
   Michael Roemelt        : Restricted open shell CIS
   Masaaki Saitow         : Open-shell DLPNO
   Barbara Sandhoefer     : DKH picture change effects
   Avijit Sen             : IP-ROCIS
   Kantharuban Sivalingam : CASSCF convergence, NEVPT2, FIC-MRCI
   Bernardo de Souza      : ESD, SOC TD-DFT
   Georgi Stoychev        : AutoAux, RI-MP2 NMR
   Willem Van den Heuvel  : Paramagnetic NMR
   Boris Wezisla          : Elementary symmetry handling
   Frank Wennmohs         : Technical directorship


 We gratefully acknowledge several colleagues who have allowed us to
 interface, adapt or use parts of their codes:
   Stefan Grimme, W. Hujo, H. Kruse,             : VdW corrections, initial TS optimization,
                  C. Bannwarth                     DFT functionals, gCP, sTDA/sTD-DF
   Ed Valeev                                     : LibInt (2-el integral package), F12 methods
   Garnet Chan, S. Sharma, J. Yang, R. Olivares  : DMRG
   Ulf Ekstrom                                   : XCFun DFT Library
   Mihaly Kallay                                 : mrcc  (arbitrary order and MRCC methods)
   Andreas Klamt, Michael Diedenhofen            : otool_cosmo (COSMO solvation model)
   Jiri Pittner, Ondrej Demel                    : Mk-CCSD
   Frank Weinhold                                : gennbo (NPA and NBO analysis)
   Christopher J. Cramer and Donald G. Truhlar   : smd solvation model
   Lars Goerigk                                  : TD-DFT with DH, B97 family of functionals
   V. Asgeirsson, H. Jonsson                     : NEB implementation
   FAccTs GmbH                                   : IRC, NEB, NEB-TS, Multilevel


 Your calculation uses the libint2 library for the computation of 2-el integrals
 For citations please refer to: http://libint.valeyev.net

 This ORCA versions uses:
   CBLAS   interface :  Fast vector & matrix operations
   LAPACKE interface :  Fast linear algebra routines
   SCALAPACK package :  Parallel linear algebra routines




***************************************
The coordinates will be read from file: chlorocyclohexane_ax.xyz
***************************************


----- Orbital basis set information -----
Your calculation utilizes the basis: cc-pVTZ 
       H, B-Ne : Obtained from the ccRepo (grant-hill.group.shef.ac.uk/ccrepo) Feb. 2017
                 T. H. Dunning, Jr., J. Chem. Phys. 90, 1007 (1989)
            He : Obtained from the ccRepo (grant-hill.group.shef.ac.uk/ccrepo) Feb. 2017
                 D. E. Woon, T. H. Dunning, Jr., J. Chem. Phys. 100, 2975 (1994)
  Li-Be, Na-Mg : Obtained from the ccRepo (grant-hill.group.shef.ac.uk/ccrepo) Feb. 2017
                 B. P. Prascher, D. E. Woon, K. A. Peterson, T. H. Dunning, Jr., A. K. Wilson, Theor. Chem. Acc. 128, 69 (2011)
         Al-Ar : Obtained from the ccRepo (grant-hill.group.shef.ac.uk/ccrepo) Feb. 2017
                 D. E. Woon, T. H. Dunning, Jr., J. Chem. Phys. 98, 1358 (1993)
            Ca : Obtained from the Peterson Research Group Website (tyr0.chem.wsu.edu/~kipeters) Feb. 2017
                 J. Koput, K. A. Peterson, J. Phys. Chem. 106, 9595 (2002)
         Sc-Zn : Obtained from the ccRepo (grant-hill.group.shef.ac.uk/ccrepo) Feb. 2017
                 N. B. Balabanov, K. A. Peterson, J. Chem. Phys. 123, 064107 (2005)
                 N. B. Balabanov, K. A. Peterson, J. Chem. Phys. 125, 074110 (2006)
         Ga-Kr : Obtained from the ccRepo (grant-hill.group.shef.ac.uk/ccrepo) Feb. 2017
                 A. K. Wilson, D. E. Woon, K. A. Peterson, T. H. Dunning, Jr., J. Chem. Phys. 110, 7667 (1999)
             Y : Obtained from the ccRepo (grant-hill.group.shef.ac.uk/ccrepo) Feb. 2017
                 K. A. Peterson, D. Figgen, M. Dolg, H. Stoll, J. Chem. Phys. 126, 124101 (2007)
        Ag, Au : Obtained from the Peterson Research Group Website (tyr0.chem.wsu.edu/~kipeters) Feb. 2017
                 K. A. Peterson, C. Puzzarini, Theor. Chem. Acc. 114, 283 (2005)

----- AuxC basis set information -----
Your calculation utilizes the auxiliary basis: cc-pVTZ/C 
  Obtained from the EMSL Basis Set Exchange (bse.pnl.gov) Feb. 2017
  H-He, B-F, Al-Ar, Ga-Kr : F. Weigend, A. Kohn, C. Hattig, J. Chem. Phys. 116, 3175 (2002)
             Li-Be, Na-Mg : C. Haettig, Phys. Chem. Chem. Phys. 7, 59 (2005)
                       Ne : C. Haettig, Phys. Chem. Chem. Phys. 7, 59 (2005)
                            F. Weigend, A. Kohn, C. Hattig, J. Chem. Phys. 116, 3175 (2002)
                    Sc-Zn : J. G. Hill, J. A. Platts, J. Chem. Phys. 128, 044104 (2008)

----- AuxJK basis set information -----
Your calculation utilizes the auxiliary basis: cc-pVTZ/JK 
  H, B-F, Al-Cl, Ga-Br : Obtained from the TURBOMOLE 7.0 basis set library

================================================================================
                                        WARNINGS
                       Please study these warnings very carefully!
================================================================================


WARNING: MDCI localization with Augmented Hessian Foster-Boys
  ===> : Switching off randomization!

WARNING: Post HF methods need fully converged wavefunctions
  ===> : Setting SCFConvForced true
         You can overwrite this default with %scf ConvForced false 


INFO   : the flag for use of LIBINT has been found!

================================================================================
                                       INPUT FILE
================================================================================
NAME = chlorocyclohexane_ax.inp
|  1> ! RHF DLPNO-CCSD(T) cc-pVTZ RIJK cc-pVTZ/JK cc-pVTZ/C
|  2> ! KDIIS SOSCF TightSCF TightPNO
|  3> 
|  4> %pal nprocs 8 end
|  5> 
|  6> %maxcore 8000
|  7> 
|  8> %scf maxiter 300
|  9>      shift shift 0.2 erroff 0.1 end
| 10> end
| 11> 
| 12> * xyzfile 0 1 chlorocyclohexane_ax.xyz 
| 13> 
| 14> 
| 15>                          ****END OF INPUT****
================================================================================

                       ****************************
                       * Single Point Calculation *
                       ****************************

---------------------------------
CARTESIAN COORDINATES (ANGSTROEM)
---------------------------------
  C     -0.694900    0.000010    0.827290
  C      0.155060   -1.271960    0.765100
  C      1.152630   -1.270630   -0.403600
  C      2.018130    0.000000   -0.403560
  C      1.152620    1.270640   -0.403610
  C      0.155050    1.271960    0.765100
  Cl    -1.933170   -0.000010   -0.548460
  H      1.785570   -2.163950   -0.343310
  H      0.600400   -1.338990   -1.349070
  H      2.687570    0.000000   -1.272140
  H      2.663340    0.000000    0.487800
  H      0.600390    1.338990   -1.349080
  H      1.785560    2.163950   -0.343320
  H      0.708540   -1.321860    1.715250
  H     -0.493620   -2.153120    0.729930
  H     -0.493630    2.153110    0.729920
  H      0.708530    1.321870    1.715250
  H     -1.320340    0.000010    1.722270

----------------------------
CARTESIAN COORDINATES (A.U.)
----------------------------
  NO LB      ZA    FRAG     MASS         X           Y           Z
   0 C     6.0000    0    12.011   -1.313171    0.000019    1.563352
   1 C     6.0000    0    12.011    0.293021   -2.403656    1.445829
   2 C     6.0000    0    12.011    2.178155   -2.401143   -0.762693
   3 C     6.0000    0    12.011    3.813713    0.000000   -0.762618
   4 C     6.0000    0    12.011    2.178136    2.401162   -0.762712
   5 C     6.0000    0    12.011    0.293002    2.403656    1.445829
   6 Cl   17.0000    0    35.453   -3.653162   -0.000019   -1.036439
   7 H     1.0000    0     1.008    3.374238   -4.089273   -0.648762
   8 H     1.0000    0     1.008    1.134592   -2.530324   -2.549373
   9 H     1.0000    0     1.008    5.078771    0.000000   -2.403996
  10 H     1.0000    0     1.008    5.032983    0.000000    0.921808
  11 H     1.0000    0     1.008    1.134573    2.530324   -2.549392
  12 H     1.0000    0     1.008    3.374219    4.089273   -0.648781
  13 H     1.0000    0     1.008    1.338947   -2.497953    3.241353
  14 H     1.0000    0     1.008   -0.932807   -4.068807    1.379368
  15 H     1.0000    0     1.008   -0.932826    4.068788    1.379349
  16 H     1.0000    0     1.008    1.338928    2.497972    3.241353
  17 H     1.0000    0     1.008   -2.495081    0.000019    3.254619

--------------------------------
INTERNAL COORDINATES (ANGSTROEM)
--------------------------------
 C      0   0   0     0.000000000000     0.00000000     0.00000000
 C      1   0   0     1.531080428521     0.00000000     0.00000000
 C      2   1   0     1.536556983584   112.99082684     0.00000000
 C      3   2   1     1.537397426985   111.48057100    52.86700017
 C      4   3   2     1.537411321735   111.47779413   305.17405035
 C      1   2   3     1.531058261824   112.35496280   309.41576041
 Cl     1   2   3     1.850945881381   109.94901024    72.21846308
 H      3   2   1     1.096480072824   109.40456009   175.24769734
 H      3   2   1     1.097061795616   109.18639413   291.66880633
 H      4   3   2     1.096622601445   110.09907045   182.68007358
 H      4   3   2     1.100372025135   109.27598362    66.06677558
 H      5   4   3     1.097061172542   109.56653963   293.84958803
 H      5   4   3     1.096471925678   110.38762468   176.63873611
 H      2   1   3     1.100733911034   106.36399192   119.89069435
 H      2   1   3     1.094744544129   109.94071480   235.17750367
 H      6   1   2     1.094736816454   109.94031761   175.40618618
 H      6   1   2     1.100734364413   106.36444778   290.69324895
 H      1   2   3     1.091862809148   110.56608512   185.36050071

---------------------------
INTERNAL COORDINATES (A.U.)
---------------------------
 C      0   0   0     0.000000000000     0.00000000     0.00000000
 C      1   0   0     2.893322698911     0.00000000     0.00000000
 C      2   1   0     2.903671888137   112.99082684     0.00000000
 C      3   2   1     2.905260095997   111.48057100    52.86700017
 C      4   3   2     2.905286353270   111.47779413   305.17405035
 C      1   2   3     2.893280809925   112.35496280   309.41576041
 Cl     1   2   3     3.497780804519   109.94901024    72.21846308
 H      3   2   1     2.072047048939   109.40456009   175.24769734
 H      3   2   1     2.073146345702   109.18639413   291.66880633
 H      4   3   2     2.072316388999   110.09907045   182.68007358
 H      4   3   2     2.079401772934   109.27598362    66.06677558
 H      5   4   3     2.073145168264   109.56653963   293.84958803
 H      5   4   3     2.072031653065   110.38762468   176.63873611
 H      2   1   3     2.080085638174   106.36399192   119.89069435
 H      2   1   3     2.068767375008   109.94071480   235.17750367
 H      6   1   2     2.068752771819   109.94031761   175.40618618
 H      6   1   2     2.080086494937   106.36444778   290.69324895
 H      1   2   3     2.063321685103   110.56608512   185.36050071

---------------------
BASIS SET INFORMATION
---------------------
There are 3 groups of distinct atoms

 Group   1 Type C   : 18s5p2d1f contracted to 4s3p2d1f pattern {8811/311/11/1}
 Group   2 Type Cl  : 41s16p2d1f contracted to 5s4p2d1f pattern {13131311/7711/11/1}
 Group   3 Type H   : 5s2p1d contracted to 3s2p1d pattern {311/11/1}

Atom   0C    basis set group =>   1
Atom   1C    basis set group =>   1
Atom   2C    basis set group =>   1
Atom   3C    basis set group =>   1
Atom   4C    basis set group =>   1
Atom   5C    basis set group =>   1
Atom   6Cl   basis set group =>   2
Atom   7H    basis set group =>   3
Atom   8H    basis set group =>   3
Atom   9H    basis set group =>   3
Atom  10H    basis set group =>   3
Atom  11H    basis set group =>   3
Atom  12H    basis set group =>   3
Atom  13H    basis set group =>   3
Atom  14H    basis set group =>   3
Atom  15H    basis set group =>   3
Atom  16H    basis set group =>   3
Atom  17H    basis set group =>   3
-------------------------------
AUXILIARY BASIS SET INFORMATION
-------------------------------
There are 3 groups of distinct atoms

 Group   1 Type C   : 8s6p5d3f1g contracted to 8s6p5d3f1g pattern {11111111/111111/11111/111/1}
 Group   2 Type Cl  : 10s8p7d5f2g contracted to 10s8p7d5f2g pattern {1111111111/11111111/1111111/11111/11}
 Group   3 Type H   : 4s3p2d1f contracted to 4s3p2d1f pattern {1111/111/11/1}

Atom   0C    basis set group =>   1
Atom   1C    basis set group =>   1
Atom   2C    basis set group =>   1
Atom   3C    basis set group =>   1
Atom   4C    basis set group =>   1
Atom   5C    basis set group =>   1
Atom   6Cl   basis set group =>   2
Atom   7H    basis set group =>   3
Atom   8H    basis set group =>   3
Atom   9H    basis set group =>   3
Atom  10H    basis set group =>   3
Atom  11H    basis set group =>   3
Atom  12H    basis set group =>   3
Atom  13H    basis set group =>   3
Atom  14H    basis set group =>   3
Atom  15H    basis set group =>   3
Atom  16H    basis set group =>   3
Atom  17H    basis set group =>   3
-------------------------------
AUXILIARY BASIS SET INFORMATION
-------------------------------
There are 3 groups of distinct atoms

 Group   1 Type C   : 10s7p5d2f1g contracted to 10s7p5d2f1g pattern {1111111111/1111111/11111/11/1}
 Group   2 Type Cl  : 13s11p9d3f1g contracted to 13s11p9d3f1g pattern {1111111111111/11111111111/111111111/111/1}
 Group   3 Type H   : 4s3p2d1f contracted to 4s3p2d1f pattern {1111/111/11/1}

Atom   0C    basis set group =>   1
Atom   1C    basis set group =>   1
Atom   2C    basis set group =>   1
Atom   3C    basis set group =>   1
Atom   4C    basis set group =>   1
Atom   5C    basis set group =>   1
Atom   6Cl   basis set group =>   2
Atom   7H    basis set group =>   3
Atom   8H    basis set group =>   3
Atom   9H    basis set group =>   3
Atom  10H    basis set group =>   3
Atom  11H    basis set group =>   3
Atom  12H    basis set group =>   3
Atom  13H    basis set group =>   3
Atom  14H    basis set group =>   3
Atom  15H    basis set group =>   3
Atom  16H    basis set group =>   3
Atom  17H    basis set group =>   3


           ************************************************************
           *        Program running with 8 parallel MPI-processes     *
           *              working on a common directory               *
           ************************************************************
------------------------------------------------------------------------------
                           ORCA GTO INTEGRAL CALCULATION
                           -- RI-GTO INTEGRALS CHOSEN --
------------------------------------------------------------------------------

                         BASIS SET STATISTICS AND STARTUP INFO

Gaussian basis set:
 # of primitive gaussian shells          ...  304
 # of primitive gaussian functions       ...  582
 # of contracted shells                  ...  138
 # of contracted basis functions         ...  368
 Highest angular momentum                ...    3
 Maximum contraction depth               ...   13
Auxiliary gaussian basis set:
 # of primitive gaussian shells          ...  297
 # of primitive gaussian functions       ...  925
 # of contracted shells                  ...  297
 # of contracted aux-basis functions     ...  925
 Highest angular momentum                ...    4
 Maximum contraction depth               ...    1
Ratio of auxiliary to basis functions    ...  2.51
Integral package used                  ... LIBINT
 One Electron integrals                  ... done
 Ordering auxiliary basis shells         ... done
 Integral threshhold             Thresh  ...  2.500e-11
 Primitive cut-off               TCut    ...  2.500e-12
 Pre-screening matrix                    ... done
 Shell pair data                         ... 
 Ordering of the shell pairs             ... done (   0.002 sec) 9323 of 9591 pairs
 Determination of significant pairs      ... done (   0.000 sec)
 Creation of shell pair data             ... done (   0.002 sec)
 Storage of shell pair data              ... done (   0.002 sec)
 Shell pair data done in (   0.007 sec)
 Computing two index integrals           ... done
 Cholesky decomposition of the V-matrix  ... done


Timings:
 Total evaluation time                   ...   0.749 sec (  0.012 min)
 One electron matrix time                ...   0.164 sec (  0.003 min) = 21.9%
 Schwartz matrix evaluation time         ...   0.378 sec (  0.006 min) = 50.4%
 Two index repulsion integral time       ...   0.107 sec (  0.002 min) = 14.3%
 Cholesky decomposition of V             ...   0.067 sec (  0.001 min) =  9.0%
 Three index repulsion integral time     ...   0.000 sec (  0.000 min) =  0.0%



           ************************************************************
           *        Program running with 8 parallel MPI-processes     *
           *              working on a common directory               *
           ************************************************************
-------------------------------------------------------------------------------
                                 ORCA SCF
-------------------------------------------------------------------------------

------------
SCF SETTINGS
------------
Hamiltonian:
 Ab initio Hamiltonian  Method          .... Hartree-Fock(GTOs)
 RI-approximation to the Coulomb term is turned on
   Number of auxiliary basis functions  .... 925
   RI-JK (J+K treated both via RI)      .... on


General Settings:
 Integral files         IntName         .... chlorocyclohexane_ax
 Hartree-Fock type      HFTyp           .... RHF
 Total Charge           Charge          ....    0
 Multiplicity           Mult            ....    1
 Number of Electrons    NEL             ....   64
 Basis Dimension        Dim             ....  368
 Nuclear Repulsion      ENuc            ....    386.9675585791 Eh

Convergence Acceleration:
 DIIS                   CNVDIIS         .... off
 Newton-Raphson         CNVNR           .... off
 SOSCF                  CNVSOSCF        .... on
   Start iteration      SOSCFMaxIt      ....   150
   Startup grad/error   SOSCFStart      ....  0.003300
 Level Shifting         CNVShift        .... on
   Level shift para.    LevelShift      ....    0.2000
   Turn off err/grad.   ShiftErr        ....    0.1000
 Zerner damping         CNVZerner       .... off
 Static damping         CNVDamp         .... off
 Fernandez-Rico         CNVRico         .... off

SCF Procedure:
 Maximum # iterations   MaxIter         ....   300
 SCF integral mode      SCFMode         .... Direct
   Integral package                     .... LIBINT
 Reset frequency        DirectResetFreq ....    20
 Integral Threshold     Thresh          ....  2.500e-11 Eh
 Primitive CutOff       TCut            ....  2.500e-12 Eh

Convergence Tolerance:
 Convergence Check Mode ConvCheckMode   .... Total+1el-Energy
 Convergence forced     ConvForced      .... 1
 Energy Change          TolE            ....  1.000e-08 Eh
 1-El. energy change                    ....  1.000e-05 Eh
 Orbital Gradient       TolG            ....  1.000e-05
 Orbital Rotation angle TolX            ....  1.000e-05


Diagonalization of the overlap matrix:
Smallest eigenvalue                        ... 3.705e-04
Time for diagonalization                   ...    0.026 sec
Threshold for overlap eigenvalues          ... 1.000e-08
Number of eigenvalues below threshold      ... 0
Time for construction of square roots      ...    0.031 sec
Total time needed                          ...    0.057 sec

-------------------
DFT GRID GENERATION
-------------------

General Integration Accuracy     IntAcc      ...  4.340
Radial Grid Type                 RadialGrid  ... Gauss-Chebyshev
Angular Grid (max. acc.)         AngularGrid ... Lebedev-110
Angular grid pruning method      GridPruning ... 3 (G Style)
Weight generation scheme         WeightScheme... Becke
Basis function cutoff            BFCut       ...    1.0000e-11
Integration weight cutoff        WCut        ...    1.0000e-14
Grids for H and He will be reduced by one unit

# of grid points (after initial pruning)     ...  20514 (   0.0 sec)
# of grid points (after weights+screening)   ...  18703 (   0.0 sec)
nearest neighbour list constructed           ...    0.0 sec
Grid point re-assignment to atoms done       ...    0.0 sec
Grid point division into batches done        ...    0.0 sec
Reduced shell lists constructed in    0.1 sec

Total number of grid points                  ...    18703
Total number of batches                      ...      300
Average number of points per batch           ...       62
Average number of grid points per atom       ...     1039
Average number of shells per batch           ...   122.77 (88.96%)
Average number of basis functions per batch  ...   326.21 (88.64%)
Average number of large shells per batch     ...   101.08 (82.33%)
Average number of large basis fcns per batch ...   266.05 (81.56%)
Average number of aux-shells per batch       ...   122.77 (41.34%)
Average number of aux functions per batch    ...   326.21 (35.27%)
Maximum spatial batch extension              ...   2.69,  2.95,  2.38 au
Average spatial batch extension              ...   0.19,  0.22,  0.19 au

Time for grid setup =    0.155 sec

------------------------------
INITIAL GUESS: MODEL POTENTIAL
------------------------------
Loading Hartree-Fock densities                     ... done
Calculating cut-offs                               ... done
Setting up the integral package                    ... done
Initializing the effective Hamiltonian             ... done
Starting the Coulomb interaction                   ... done (   0.1 sec)
Reading the grid                                   ... done
Mapping shells                                     ... done
Starting the XC term evaluation                    ... done (   0.1 sec)
Transforming the Hamiltonian                       ... done (   0.0 sec)
Diagonalizing the Hamiltonian                      ... done (   0.0 sec)
Back transforming the eigenvectors                 ... done (   0.0 sec)
Now organizing SCF variables                       ... done
                      ------------------
                      INITIAL GUESS DONE (   0.5 sec)
                      ------------------
--------------
SCF ITERATIONS
--------------
ITER       Energy         Delta-E        Max-DP      RMS-DP      [F,P]   Gradient Norm
                             ****Turning on KDIIS(Cayley)****
  0   -692.8804038434   0.000000000000 0.01580665  0.00023784  0.0957831   0.136280351
  1   -692.9762354719  -0.095831628496 0.02894247  0.00029708  0.0869881   0.118917064
  2   -693.0588145777  -0.082579105781 0.04783996  0.00050445  0.0699229   0.096407344
  3   -693.1602447157  -0.101430138029 0.07277863  0.00080823  0.0421566   0.059230483
                      *** Initiating the SOSCF procedure ***
                           *** Shutting down KDIIS ***
                      *** Re-Reading the Fockian *** 
                      *** Removing any level shift *** 
ITER      Energy       Delta-E        Grad      Rot      Max-DP    RMS-DP
  4   -693.22574559  -0.0655008727  0.002637  0.002637  0.001826  0.000049
  5   -693.22600286  -0.0002572743  0.001077  0.001450  0.001573  0.000037
  6   -693.22604122  -0.0000383563  0.000684  0.000444  0.000706  0.000016
  7   -693.22605480  -0.0000135808  0.000132  0.000227  0.000388  0.000006
  8   -693.22605526  -0.0000004624  0.000035  0.000089  0.000207  0.000003
  9   -693.22605533  -0.0000000700  0.000023  0.000032  0.000044  0.000001
 10   -693.22605534  -0.0000000110  0.000003  0.000006  0.000011  0.000000
                  ***Gradient check signals convergence***
              ***Rediagonalizing the Fockian in SOSCF/NRSCF***

               *****************************************************
               *                     SUCCESS                       *
               *           SCF CONVERGED AFTER  11 CYCLES          *
               *****************************************************


----------------
TOTAL SCF ENERGY
----------------

Total Energy       :         -693.22605534 Eh          -18863.63997 eV

Components:
Nuclear Repulsion  :          386.96755858 Eh           10529.92260 eV
Electronic Energy  :        -1080.19361392 Eh          -29393.56257 eV
One Electron Energy:        -1718.94791363 Eh          -46774.95072 eV
Two Electron Energy:          638.75429970 Eh           17381.38815 eV

Virial components:
Potential Energy   :        -1386.00844693 Eh          -37715.20724 eV
Kinetic Energy     :          692.78239158 Eh           18851.56727 eV
Virial Ratio       :            2.00064041


---------------
SCF CONVERGENCE
---------------

  Last Energy change         ...   -9.3382e-10  Tolerance :   1.0000e-08
  Last MAX-Density change    ...    4.7018e-06  Tolerance :   1.0000e-07
  Last RMS-Density change    ...    7.2271e-08  Tolerance :   5.0000e-09
  Last Orbital Gradient      ...    1.1122e-06  Tolerance :   1.0000e-05
  Last Orbital Rotation      ...    3.3859e-06  Tolerance :   1.0000e-05

             **** THE GBW FILE WAS UPDATED (chlorocyclohexane_ax.gbw) ****
             **** DENSITY FILE WAS UPDATED (chlorocyclohexane_ax.scfp.tmp) ****
             **** ENERGY FILE WAS UPDATED (chlorocyclohexane_ax.en.tmp) ****
----------------
ORBITAL ENERGIES
----------------

  NO   OCC          E(Eh)            E(eV) 
   0   2.0000    -104.806909     -2851.9410 
   1   2.0000     -11.297759      -307.4277 
   2   2.0000     -11.234699      -305.7117 
   3   2.0000     -11.234684      -305.7113 
   4   2.0000     -11.224072      -305.4225 
   5   2.0000     -11.223601      -305.4097 
   6   2.0000     -11.223227      -305.3995 
   7   2.0000     -10.532055      -286.5918 
   8   2.0000      -7.998690      -217.6554 
   9   2.0000      -7.997170      -217.6141 
  10   2.0000      -7.997146      -217.6134 
  11   2.0000      -1.149038       -31.2669 
  12   2.0000      -1.071904       -29.1680 
  13   2.0000      -1.013821       -27.5875 
  14   2.0000      -0.985082       -26.8054 
  15   2.0000      -0.844738       -22.9865 
  16   2.0000      -0.830646       -22.6030 
  17   2.0000      -0.740728       -20.1562 
  18   2.0000      -0.668577       -18.1929 
  19   2.0000      -0.623702       -16.9718 
  20   2.0000      -0.613410       -16.6917 
  21   2.0000      -0.592223       -16.1152 
  22   2.0000      -0.552272       -15.0281 
  23   2.0000      -0.542540       -14.7633 
  24   2.0000      -0.535796       -14.5797 
  25   2.0000      -0.495362       -13.4795 
  26   2.0000      -0.489828       -13.3289 
  27   2.0000      -0.461068       -12.5463 
  28   2.0000      -0.450779       -12.2663 
  29   2.0000      -0.450733       -12.2651 
  30   2.0000      -0.419694       -11.4205 
  31   2.0000      -0.417727       -11.3669 
  32   0.0000       0.130424         3.5490 
  33   0.0000       0.155190         4.2229 
  34   0.0000       0.161103         4.3838 
  35   0.0000       0.166947         4.5429 
  36   0.0000       0.193913         5.2767 
  37   0.0000       0.200094         5.4448 
  38   0.0000       0.203736         5.5439 
  39   0.0000       0.215857         5.8738 
  40   0.0000       0.218552         5.9471 
  41   0.0000       0.233235         6.3467 
  42   0.0000       0.238217         6.4822 
  43   0.0000       0.252596         6.8735 
  44   0.0000       0.309241         8.4149 
  45   0.0000       0.310427         8.4471 
  46   0.0000       0.326560         8.8861 
  47   0.0000       0.371676        10.1138 
  48   0.0000       0.371856        10.1187 
  49   0.0000       0.381356        10.3772 
  50   0.0000       0.392473        10.6797 
  51   0.0000       0.412993        11.2381 
  52   0.0000       0.413044        11.2395 
  53   0.0000       0.430918        11.7259 
  54   0.0000       0.452744        12.3198 
  55   0.0000       0.456592        12.4245 
  56   0.0000       0.462419        12.5831 
  57   0.0000       0.469695        12.7811 
  58   0.0000       0.502277        13.6676 
  59   0.0000       0.516634        14.0583 
  60   0.0000       0.528010        14.3679 
  61   0.0000       0.542641        14.7660 
  62   0.0000       0.561366        15.2755 
  63   0.0000       0.576995        15.7008 
  64   0.0000       0.583896        15.8886 
  65   0.0000       0.584855        15.9147 
  66   0.0000       0.600658        16.3447 
  67   0.0000       0.602611        16.3979 
  68   0.0000       0.611468        16.6389 
  69   0.0000       0.617937        16.8149 
  70   0.0000       0.622229        16.9317 
  71   0.0000       0.643078        17.4991 
  72   0.0000       0.649538        17.6748 
  73   0.0000       0.661692        18.0056 
  74   0.0000       0.674330        18.3494 
  75   0.0000       0.685430        18.6515 
  76   0.0000       0.688396        18.7322 
  77   0.0000       0.692443        18.8423 
  78   0.0000       0.692795        18.8519 
  79   0.0000       0.699722        19.0404 
  80   0.0000       0.724241        19.7076 
  81   0.0000       0.742330        20.1998 
  82   0.0000       0.758853        20.6494 
  83   0.0000       0.778776        21.1916 
  84   0.0000       0.796060        21.6619 
  85   0.0000       0.843333        22.9483 
  86   0.0000       0.853755        23.2319 
  87   0.0000       0.865290        23.5457 
  88   0.0000       0.889859        24.2143 
  89   0.0000       0.924468        25.1561 
  90   0.0000       0.930295        25.3146 
  91   0.0000       0.963747        26.2249 
  92   0.0000       0.983198        26.7542 
  93   0.0000       0.988714        26.9043 
  94   0.0000       1.020092        27.7581 
  95   0.0000       1.022429        27.8217 
  96   0.0000       1.056334        28.7443 
  97   0.0000       1.068169        29.0664 
  98   0.0000       1.103935        30.0396 
  99   0.0000       1.109096        30.1800 
 100   0.0000       1.128365        30.7044 
 101   0.0000       1.136828        30.9347 
 102   0.0000       1.187592        32.3160 
 103   0.0000       1.197870        32.5957 
 104   0.0000       1.199774        32.6475 
 105   0.0000       1.215558        33.0770 
 106   0.0000       1.218680        33.1620 
 107   0.0000       1.227650        33.4061 
 108   0.0000       1.262859        34.3641 
 109   0.0000       1.281681        34.8763 
 110   0.0000       1.285873        34.9904 
 111   0.0000       1.298572        35.3360 
 112   0.0000       1.313891        35.7528 
 113   0.0000       1.316780        35.8314 
 114   0.0000       1.331501        36.2320 
 115   0.0000       1.340262        36.4704 
 116   0.0000       1.353053        36.8184 
 117   0.0000       1.367758        37.2186 
 118   0.0000       1.372474        37.3469 
 119   0.0000       1.380992        37.5787 
 120   0.0000       1.389883        37.8206 
 121   0.0000       1.397577        38.0300 
 122   0.0000       1.407012        38.2867 
 123   0.0000       1.447182        39.3798 
 124   0.0000       1.460466        39.7413 
 125   0.0000       1.474011        40.1099 
 126   0.0000       1.474844        40.1325 
 127   0.0000       1.495213        40.6868 
 128   0.0000       1.501878        40.8682 
 129   0.0000       1.513805        41.1927 
 130   0.0000       1.545751        42.0620 
 131   0.0000       1.550933        42.2030 
 132   0.0000       1.556750        42.3613 
 133   0.0000       1.581830        43.0438 
 134   0.0000       1.584472        43.1157 
 135   0.0000       1.607872        43.7524 
 136   0.0000       1.618209        44.0337 
 137   0.0000       1.627250        44.2797 
 138   0.0000       1.676834        45.6290 
 139   0.0000       1.682281        45.7772 
 140   0.0000       1.687511        45.9195 
 141   0.0000       1.688893        45.9571 
 142   0.0000       1.696989        46.1774 
 143   0.0000       1.709417        46.5156 
 144   0.0000       1.755199        47.7614 
 145   0.0000       1.757863        47.8339 
 146   0.0000       1.799381        48.9636 
 147   0.0000       1.801287        49.0155 
 148   0.0000       1.810408        49.2637 
 149   0.0000       1.864255        50.7290 
 150   0.0000       1.871172        50.9172 
 151   0.0000       1.875976        51.0479 
 152   0.0000       1.942269        52.8518 
 153   0.0000       1.973837        53.7108 
 154   0.0000       2.043728        55.6127 
 155   0.0000       2.056290        55.9545 
 156   0.0000       2.093822        56.9758 
 157   0.0000       2.320115        63.1335 
 158   0.0000       2.331888        63.4539 
 159   0.0000       2.346340        63.8471 
 160   0.0000       2.374671        64.6181 
 161   0.0000       2.415026        65.7162 
 162   0.0000       2.444609        66.5212 
 163   0.0000       2.450286        66.6757 
 164   0.0000       2.461724        66.9869 
 165   0.0000       2.470024        67.2128 
 166   0.0000       2.542835        69.1941 
 167   0.0000       2.570802        69.9551 
 168   0.0000       2.597995        70.6950 
 169   0.0000       2.601335        70.7859 
 170   0.0000       2.632381        71.6307 
 171   0.0000       2.633896        71.6719 
 172   0.0000       2.669283        72.6349 
 173   0.0000       2.675978        72.8171 
 174   0.0000       2.684624        73.0523 
 175   0.0000       2.706307        73.6424 
 176   0.0000       2.751331        74.8675 
 177   0.0000       2.760233        75.1098 
 178   0.0000       2.788317        75.8740 
 179   0.0000       2.789970        75.9189 
 180   0.0000       2.819856        76.7322 
 181   0.0000       2.826177        76.9042 
 182   0.0000       2.836236        77.1779 
 183   0.0000       2.852959        77.6330 
 184   0.0000       2.887913        78.5841 
 185   0.0000       2.887981        78.5859 
 186   0.0000       2.901774        78.9613 
 187   0.0000       2.919202        79.4355 
 188   0.0000       2.929455        79.7145 
 189   0.0000       2.939067        79.9761 
 190   0.0000       2.944159        80.1146 
 191   0.0000       2.978068        81.0373 
 192   0.0000       2.984901        81.2233 
 193   0.0000       2.988537        81.3222 
 194   0.0000       3.010651        81.9240 
 195   0.0000       3.017126        82.1002 
 196   0.0000       3.024879        82.3111 
 197   0.0000       3.034717        82.5788 
 198   0.0000       3.045317        82.8673 
 199   0.0000       3.060753        83.2873 
 200   0.0000       3.080856        83.8344 
 201   0.0000       3.112431        84.6935 
 202   0.0000       3.147081        85.6364 
 203   0.0000       3.188219        86.7558 
 204   0.0000       3.205314        87.2210 
 205   0.0000       3.220651        87.6384 
 206   0.0000       3.249648        88.4274 
 207   0.0000       3.256397        88.6111 
 208   0.0000       3.270481        88.9943 
 209   0.0000       3.293900        89.6316 
 210   0.0000       3.329402        90.5976 
 211   0.0000       3.355225        91.3003 
 212   0.0000       3.369695        91.6941 
 213   0.0000       3.382952        92.0548 
 214   0.0000       3.389883        92.2434 
 215   0.0000       3.428737        93.3007 
 216   0.0000       3.438206        93.5583 
 217   0.0000       3.440451        93.6194 
 218   0.0000       3.445704        93.7624 
 219   0.0000       3.461939        94.2041 
 220   0.0000       3.470128        94.4270 
 221   0.0000       3.474427        94.5440 
 222   0.0000       3.481607        94.7393 
 223   0.0000       3.488270        94.9207 
 224   0.0000       3.495943        95.1294 
 225   0.0000       3.501871        95.2908 
 226   0.0000       3.511841        95.5620 
 227   0.0000       3.535059        96.1938 
 228   0.0000       3.535121        96.1955 
 229   0.0000       3.549382        96.5836 
 230   0.0000       3.575849        97.3038 
 231   0.0000       3.576109        97.3109 
 232   0.0000       3.597959        97.9054 
 233   0.0000       3.611117        98.2635 
 234   0.0000       3.659089        99.5689 
 235   0.0000       3.679249       100.1175 
 236   0.0000       3.693602       100.5080 
 237   0.0000       3.704781       100.8122 
 238   0.0000       3.727286       101.4246 
 239   0.0000       3.731362       101.5355 
 240   0.0000       3.768696       102.5514 
 241   0.0000       3.780893       102.8833 
 242   0.0000       3.793432       103.2245 
 243   0.0000       3.818171       103.8977 
 244   0.0000       3.821096       103.9773 
 245   0.0000       3.850587       104.7798 
 246   0.0000       3.863419       105.1290 
 247   0.0000       3.881052       105.6088 
 248   0.0000       3.906063       106.2894 
 249   0.0000       3.906156       106.2919 
 250   0.0000       3.945042       107.3500 
 251   0.0000       3.949100       107.4605 
 252   0.0000       3.967083       107.9498 
 253   0.0000       3.991205       108.6062 
 254   0.0000       4.002387       108.9105 
 255   0.0000       4.016922       109.3060 
 256   0.0000       4.026953       109.5790 
 257   0.0000       4.039858       109.9301 
 258   0.0000       4.042360       109.9982 
 259   0.0000       4.071542       110.7923 
 260   0.0000       4.089772       111.2884 
 261   0.0000       4.097518       111.4991 
 262   0.0000       4.120149       112.1150 
 263   0.0000       4.123823       112.2149 
 264   0.0000       4.138816       112.6229 
 265   0.0000       4.147751       112.8660 
 266   0.0000       4.192642       114.0876 
 267   0.0000       4.205241       114.4304 
 268   0.0000       4.215168       114.7006 
 269   0.0000       4.221556       114.8744 
 270   0.0000       4.231281       115.1390 
 271   0.0000       4.254648       115.7749 
 272   0.0000       4.274322       116.3102 
 273   0.0000       4.298591       116.9706 
 274   0.0000       4.305538       117.1597 
 275   0.0000       4.326380       117.7268 
 276   0.0000       4.341421       118.1361 
 277   0.0000       4.347278       118.2954 
 278   0.0000       4.347923       118.3130 
 279   0.0000       4.356598       118.5491 
 280   0.0000       4.385259       119.3290 
 281   0.0000       4.389381       119.4411 
 282   0.0000       4.408825       119.9702 
 283   0.0000       4.429103       120.5220 
 284   0.0000       4.430767       120.5673 
 285   0.0000       4.455130       121.2303 
 286   0.0000       4.458026       121.3091 
 287   0.0000       4.479494       121.8932 
 288   0.0000       4.500596       122.4674 
 289   0.0000       4.516310       122.8950 
 290   0.0000       4.524039       123.1054 
 291   0.0000       4.542487       123.6074 
 292   0.0000       4.555226       123.9540 
 293   0.0000       4.562368       124.1483 
 294   0.0000       4.590865       124.9238 
 295   0.0000       4.597650       125.1084 
 296   0.0000       4.613938       125.5516 
 297   0.0000       4.615760       125.6012 
 298   0.0000       4.629948       125.9873 
 299   0.0000       4.651363       126.5700 
 300   0.0000       4.672838       127.1544 
 301   0.0000       4.680156       127.3535 
 302   0.0000       4.708147       128.1152 
 303   0.0000       4.718588       128.3993 
 304   0.0000       4.731965       128.7633 
 305   0.0000       4.774646       129.9247 
 306   0.0000       4.812911       130.9660 
 307   0.0000       4.826267       131.3294 
 308   0.0000       4.869453       132.5046 
 309   0.0000       4.870273       132.5269 
 310   0.0000       4.905540       133.4865 
 311   0.0000       4.974154       135.3536 
 312   0.0000       4.995356       135.9305 
 313   0.0000       5.036477       137.0495 
 314   0.0000       5.076982       138.1517 
 315   0.0000       5.087266       138.4316 
 316   0.0000       5.105606       138.9306 
 317   0.0000       5.123910       139.4287 
 318   0.0000       5.145319       140.0112 
 319   0.0000       5.162119       140.4684 
 320   0.0000       5.181451       140.9945 
 321   0.0000       5.195506       141.3769 
 322   0.0000       5.253811       142.9635 
 323   0.0000       5.297716       144.1582 
 324   0.0000       5.298360       144.1757 
 325   0.0000       5.323203       144.8517 
 326   0.0000       5.333112       145.1214 
 327   0.0000       5.356482       145.7573 
 328   0.0000       5.367462       146.0561 
 329   0.0000       5.390276       146.6769 
 330   0.0000       5.394762       146.7989 
 331   0.0000       5.400210       146.9472 
 332   0.0000       5.417192       147.4093 
 333   0.0000       5.422574       147.5557 
 334   0.0000       5.483277       149.2075 
 335   0.0000       5.541715       150.7977 
 336   0.0000       5.546310       150.9228 
 337   0.0000       5.597644       152.3196 
 338   0.0000       5.635929       153.3614 
 339   0.0000       5.643475       153.5668 
 340   0.0000       5.658201       153.9675 
 341   0.0000       5.702847       155.1824 
 342   0.0000       5.743591       156.2910 
 343   0.0000       5.748799       156.4328 
 344   0.0000       5.783733       157.3834 
 345   0.0000       5.803243       157.9143 
 346   0.0000       5.813453       158.1921 
 347   0.0000       5.835597       158.7947 
 348   0.0000       5.854607       159.3119 
 349   0.0000       5.878265       159.9557 
 350   0.0000       5.896049       160.4397 
 351   0.0000       5.926685       161.2733 
 352   0.0000       5.964729       162.3085 
 353   0.0000       6.005695       163.4233 
 354   0.0000       6.101831       166.0393 
 355   0.0000       6.107534       166.1944 
 356   0.0000       6.197292       168.6369 
 357   0.0000       6.381336       173.6450 
 358   0.0000       6.390834       173.9034 
 359   0.0000       6.424067       174.8078 
 360   0.0000       6.470209       176.0634 
 361   0.0000       6.473959       176.1654 
 362   0.0000      11.794944       320.9567 
 363   0.0000      12.813282       348.6671 
 364   0.0000      13.220675       359.7529 
 365   0.0000      13.409178       364.8823 
 366   0.0000      13.518445       367.8556 
 367   0.0000      13.548505       368.6736 

                    ********************************
                    * MULLIKEN POPULATION ANALYSIS *
                    ********************************

-----------------------
MULLIKEN ATOMIC CHARGES
-----------------------
   0 C :   -0.019569
   1 C :   -0.184676
   2 C :   -0.198437
   3 C :   -0.198612
   4 C :   -0.198445
   5 C :   -0.184678
   6 Cl:   -0.258918
   7 H :    0.113055
   8 H :    0.109351
   9 H :    0.112247
  10 H :    0.085404
  11 H :    0.109352
  12 H :    0.113059
  13 H :    0.100287
  14 H :    0.123973
  15 H :    0.123975
  16 H :    0.100289
  17 H :    0.152344
Sum of atomic charges:   -0.0000000

--------------------------------
MULLIKEN REDUCED ORBITAL CHARGES
--------------------------------
  0 C s       :     3.202063  s :     3.202063
      pz      :     0.877599  p :     2.641436
      px      :     0.831924
      py      :     0.931912
      dz2     :     0.027595  d :     0.167292
      dxz     :     0.052838
      dyz     :     0.022518
      dx2y2   :     0.031925
      dxy     :     0.032416
      f0      :     0.000946  f :     0.008778
      f+1     :     0.001698
      f-1     :     0.000740
      f+2     :     0.000987
      f-2     :     0.001421
      f+3     :     0.001472
      f-3     :     0.001514
  1 C s       :     3.211469  s :     3.211469
      pz      :     0.963623  p :     2.850455
      px      :     0.943578
      py      :     0.943253
      dz2     :     0.029312  d :     0.115921
      dxz     :     0.026355
      dyz     :     0.009779
      dx2y2   :     0.016845
      dxy     :     0.033631
      f0      :     0.000723  f :     0.006832
      f+1     :     0.001801
      f-1     :     0.000580
      f+2     :     0.000509
      f-2     :     0.000827
      f+3     :     0.001414
      f-3     :     0.000979
  2 C s       :     3.215227  s :     3.215227
      pz      :     0.960434  p :     2.863115
      px      :     0.943025
      py      :     0.959656
      dz2     :     0.027014  d :     0.113450
      dxz     :     0.028826
      dyz     :     0.010264
      dx2y2   :     0.017859
      dxy     :     0.029487
      f0      :     0.000736  f :     0.006646
      f+1     :     0.001771
      f-1     :     0.000489
      f+2     :     0.000586
      f-2     :     0.000838
      f+3     :     0.001326
      f-3     :     0.000900
  3 C s       :     3.217054  s :     3.217054
      pz      :     1.022982  p :     2.860817
      px      :     0.956683
      py      :     0.881152
      dz2     :     0.016350  d :     0.114065
      dxz     :     0.037060
      dyz     :     0.013715
      dx2y2   :     0.022562
      dxy     :     0.024378
      f0      :     0.000546  f :     0.006677
      f+1     :     0.001574
      f-1     :     0.000660
      f+2     :     0.000202
      f-2     :     0.000869
      f+3     :     0.001532
      f-3     :     0.001294
  4 C s       :     3.215230  s :     3.215230
      pz      :     0.960434  p :     2.863121
      px      :     0.943026
      py      :     0.959660
      dz2     :     0.027014  d :     0.113449
      dxz     :     0.028826
      dyz     :     0.010264
      dx2y2   :     0.017858
      dxy     :     0.029487
      f0      :     0.000736  f :     0.006646
      f+1     :     0.001771
      f-1     :     0.000489
      f+2     :     0.000586
      f-2     :     0.000838
      f+3     :     0.001326
      f-3     :     0.000899
  5 C s       :     3.211467  s :     3.211467
      pz      :     0.963623  p :     2.850458
      px      :     0.943580
      py      :     0.943254
      dz2     :     0.029312  d :     0.115922
      dxz     :     0.026355
      dyz     :     0.009779
      dx2y2   :     0.016845
      dxy     :     0.033631
      f0      :     0.000723  f :     0.006832
      f+1     :     0.001801
      f-1     :     0.000580
      f+2     :     0.000509
      f-2     :     0.000827
      f+3     :     0.001414
      f-3     :     0.000979
  6 Cls       :     5.939545  s :     5.939545
      pz      :     3.620559  p :    11.271154
      px      :     3.677634
      py      :     3.972962
      dz2     :     0.008283  d :     0.044359
      dxz     :     0.022509
      dyz     :     0.003685
      dx2y2   :     0.006339
      dxy     :     0.003542
      f0      :     0.000517  f :     0.003860
      f+1     :     0.001244
      f-1     :     0.000119
      f+2     :     0.001054
      f-2     :     0.000510
      f+3     :     0.000215
      f-3     :     0.000200
  7 H s       :     0.856043  s :     0.856043
      pz      :     0.007932  p :     0.028464
      px      :     0.008920
      py      :     0.011612
      dz2     :     0.000211  d :     0.002438
      dxz     :     0.000331
      dyz     :     0.000433
      dx2y2   :     0.000878
      dxy     :     0.000584
  8 H s       :     0.859926  s :     0.859926
      pz      :     0.011628  p :     0.028285
      px      :     0.008843
      py      :     0.007813
      dz2     :     0.000868  d :     0.002439
      dxz     :     0.000625
      dyz     :     0.000518
      dx2y2   :     0.000130
      dxy     :     0.000298
  9 H s       :     0.856713  s :     0.856713
      pz      :     0.007970  p :     0.028601
      px      :     0.011480
      py      :     0.009151
      dz2     :     0.000555  d :     0.002439
      dxz     :     0.000622
      dyz     :     0.000520
      dx2y2   :     0.000222
      dxy     :     0.000519
 10 H s       :     0.884463  s :     0.884463
      pz      :     0.008245  p :     0.027718
      px      :     0.010646
      py      :     0.008827
      dz2     :     0.000596  d :     0.002415
      dxz     :     0.000596
      dyz     :     0.000537
      dx2y2   :     0.000210
      dxy     :     0.000476
 11 H s       :     0.859924  s :     0.859924
      pz      :     0.011628  p :     0.028285
      px      :     0.008843
      py      :     0.007813
      dz2     :     0.000868  d :     0.002439
      dxz     :     0.000625
      dyz     :     0.000518
      dx2y2   :     0.000130
      dxy     :     0.000298
 12 H s       :     0.856039  s :     0.856039
      pz      :     0.007932  p :     0.028464
      px      :     0.008920
      py      :     0.011612
      dz2     :     0.000211  d :     0.002438
      dxz     :     0.000331
      dyz     :     0.000433
      dx2y2   :     0.000879
      dxy     :     0.000584
 13 H s       :     0.868636  s :     0.868636
      pz      :     0.011761  p :     0.028631
      px      :     0.008846
      py      :     0.008024
      dz2     :     0.000873  d :     0.002447
      dxz     :     0.000629
      dyz     :     0.000517
      dx2y2   :     0.000130
      dxy     :     0.000298
 14 H s       :     0.844461  s :     0.844461
      pz      :     0.008020  p :     0.029089
      px      :     0.009070
      py      :     0.011999
      dz2     :     0.000223  d :     0.002478
      dxz     :     0.000351
      dyz     :     0.000427
      dx2y2   :     0.000894
      dxy     :     0.000583
 15 H s       :     0.844459  s :     0.844459
      pz      :     0.008020  p :     0.029089
      px      :     0.009070
      py      :     0.011999
      dz2     :     0.000223  d :     0.002478
      dxz     :     0.000351
      dyz     :     0.000427
      dx2y2   :     0.000894
      dxy     :     0.000583
 16 H s       :     0.868634  s :     0.868634
      pz      :     0.011761  p :     0.028631
      px      :     0.008845
      py      :     0.008024
      dz2     :     0.000873  d :     0.002447
      dxz     :     0.000629
      dyz     :     0.000517
      dx2y2   :     0.000130
      dxy     :     0.000298
 17 H s       :     0.811420  s :     0.811420
      pz      :     0.014296  p :     0.033513
      px      :     0.008929
      py      :     0.010288
      dz2     :     0.000738  d :     0.002723
      dxz     :     0.000635
      dyz     :     0.000632
      dx2y2   :     0.000165
      dxy     :     0.000553


                     *******************************
                     * LOEWDIN POPULATION ANALYSIS *
                     *******************************

----------------------
LOEWDIN ATOMIC CHARGES
----------------------
   0 C :   -0.135053
   1 C :    0.042837
   2 C :    0.060138
   3 C :    0.057760
   4 C :    0.060149
   5 C :    0.042833
   6 Cl:    0.137539
   7 H :   -0.025323
   8 H :   -0.025020
   9 H :   -0.025177
  10 H :   -0.028055
  11 H :   -0.025021
  12 H :   -0.025328
  13 H :   -0.018713
  14 H :   -0.021089
  15 H :   -0.021092
  16 H :   -0.018710
  17 H :   -0.032676

-------------------------------
LOEWDIN REDUCED ORBITAL CHARGES
-------------------------------
  0 C s       :     2.722050  s :     2.722050
      pz      :     0.882359  p :     2.784864
      px      :     0.914049
      py      :     0.988455
      dz2     :     0.096587  d :     0.575534
      dxz     :     0.167556
      dyz     :     0.072917
      dx2y2   :     0.116383
      dxy     :     0.122091
      f0      :     0.006160  f :     0.052606
      f+1     :     0.007746
      f-1     :     0.004936
      f+2     :     0.007465
      f-2     :     0.008927
      f+3     :     0.006181
      f-3     :     0.011190
  1 C s       :     2.662036  s :     2.662036
      pz      :     0.949651  p :     2.830365
      px      :     0.947108
      py      :     0.933606
      dz2     :     0.102793  d :     0.424820
      dxz     :     0.100829
      dyz     :     0.038326
      dx2y2   :     0.062624
      dxy     :     0.120249
      f0      :     0.005118  f :     0.039942
      f+1     :     0.006339
      f-1     :     0.005295
      f+2     :     0.005140
      f-2     :     0.005425
      f+3     :     0.006630
      f-3     :     0.005996
  2 C s       :     2.658692  s :     2.658692
      pz      :     0.946123  p :     2.822878
      px      :     0.939047
      py      :     0.937708
      dz2     :     0.097408  d :     0.418609
      dxz     :     0.105192
      dyz     :     0.041242
      dx2y2   :     0.064272
      dxy     :     0.110495
      f0      :     0.005436  f :     0.039683
      f+1     :     0.006378
      f-1     :     0.004839
      f+2     :     0.005497
      f-2     :     0.005759
      f+3     :     0.005988
      f-3     :     0.005786
  3 C s       :     2.660242  s :     2.660242
      pz      :     0.971954  p :     2.820092
      px      :     0.936369
      py      :     0.911770
      dz2     :     0.058718  d :     0.422203
      dxz     :     0.122733
      dyz     :     0.048267
      dx2y2   :     0.092068
      dxy     :     0.100418
      f0      :     0.003613  f :     0.039703
      f+1     :     0.005461
      f-1     :     0.004678
      f+2     :     0.004583
      f-2     :     0.005645
      f+3     :     0.006293
      f-3     :     0.009431
  4 C s       :     2.658694  s :     2.658694
      pz      :     0.946123  p :     2.822876
      px      :     0.939045
      py      :     0.937708
      dz2     :     0.097407  d :     0.418600
      dxz     :     0.105190
      dyz     :     0.041240
      dx2y2   :     0.064270
      dxy     :     0.110493
      f0      :     0.005436  f :     0.039682
      f+1     :     0.006378
      f-1     :     0.004839
      f+2     :     0.005497
      f-2     :     0.005759
      f+3     :     0.005988
      f-3     :     0.005786
  5 C s       :     2.662032  s :     2.662032
      pz      :     0.949647  p :     2.830367
      px      :     0.947108
      py      :     0.933612
      dz2     :     0.102792  d :     0.424825
      dxz     :     0.100830
      dyz     :     0.038327
      dx2y2   :     0.062626
      dxy     :     0.120250
      f0      :     0.005118  f :     0.039943
      f+1     :     0.006339
      f-1     :     0.005295
      f+2     :     0.005140
      f-2     :     0.005425
      f+3     :     0.006630
      f-3     :     0.005996
  6 Cls       :     5.684860  s :     5.684860
      pz      :     3.579483  p :    11.096892
      px      :     3.621604
      py      :     3.895805
      dz2     :     0.016897  d :     0.072919
      dxz     :     0.031114
      dyz     :     0.008150
      dx2y2   :     0.009191
      dxy     :     0.007567
      f0      :     0.001354  f :     0.007789
      f+1     :     0.002256
      f-1     :     0.000337
      f+2     :     0.001708
      f-2     :     0.001285
      f+3     :     0.000383
      f-3     :     0.000466
  7 H s       :     0.843973  s :     0.843973
      pz      :     0.039936  p :     0.153285
      px      :     0.050611
      py      :     0.062738
      dz2     :     0.002499  d :     0.028065
      dxz     :     0.003890
      dyz     :     0.005420
      dx2y2   :     0.008738
      dxy     :     0.007517
  8 H s       :     0.842422  s :     0.842422
      pz      :     0.066082  p :     0.154334
      px      :     0.049614
      py      :     0.038638
      dz2     :     0.009231  d :     0.028264
      dxz     :     0.007844
      dyz     :     0.006348
      dx2y2   :     0.001709
      dxy     :     0.003132
  9 H s       :     0.844356  s :     0.844356
      pz      :     0.060348  p :     0.152823
      px      :     0.052663
      py      :     0.039812
      dz2     :     0.008564  d :     0.027998
      dxz     :     0.007583
      dyz     :     0.005066
      dx2y2   :     0.002677
      dxy     :     0.004107
 10 H s       :     0.848231  s :     0.848231
      pz      :     0.062126  p :     0.151852
      px      :     0.050678
      py      :     0.039049
      dz2     :     0.008601  d :     0.027972
      dxz     :     0.007665
      dyz     :     0.005408
      dx2y2   :     0.002469
      dxy     :     0.003830
 11 H s       :     0.842423  s :     0.842423
      pz      :     0.066082  p :     0.154334
      px      :     0.049614
      py      :     0.038638
      dz2     :     0.009231  d :     0.028264
      dxz     :     0.007844
      dyz     :     0.006348
      dx2y2   :     0.001709
      dxy     :     0.003132
 12 H s       :     0.843974  s :     0.843974
      pz      :     0.039937  p :     0.153288
      px      :     0.050613
      py      :     0.062739
      dz2     :     0.002500  d :     0.028066
      dxz     :     0.003890
      dyz     :     0.005420
      dx2y2   :     0.008739
      dxy     :     0.007517
 13 H s       :     0.838445  s :     0.838445
      pz      :     0.065698  p :     0.152122
      px      :     0.048156
      py      :     0.038267
      dz2     :     0.009278  d :     0.028146
      dxz     :     0.007779
      dyz     :     0.006220
      dx2y2   :     0.001728
      dxy     :     0.003142
 14 H s       :     0.840531  s :     0.840531
      pz      :     0.039108  p :     0.152260
      px      :     0.051030
      py      :     0.062122
      dz2     :     0.002538  d :     0.028299
      dxz     :     0.004034
      dyz     :     0.005329
      dx2y2   :     0.008792
      dxy     :     0.007606
 15 H s       :     0.840529  s :     0.840529
      pz      :     0.039109  p :     0.152263
      px      :     0.051032
      py      :     0.062123
      dz2     :     0.002538  d :     0.028299
      dxz     :     0.004034
      dyz     :     0.005329
      dx2y2   :     0.008793
      dxy     :     0.007606
 16 H s       :     0.838443  s :     0.838443
      pz      :     0.065698  p :     0.152121
      px      :     0.048156
      py      :     0.038267
      dz2     :     0.009278  d :     0.028146
      dxz     :     0.007779
      dyz     :     0.006220
      dx2y2   :     0.001728
      dxy     :     0.003142
 17 H s       :     0.845133  s :     0.845133
      pz      :     0.068026  p :     0.158805
      px      :     0.049412
      py      :     0.041366
      dz2     :     0.008013  d :     0.028738
      dxz     :     0.008490
      dyz     :     0.006220
      dx2y2   :     0.001991
      dxy     :     0.004024


                      *****************************
                      * MAYER POPULATION ANALYSIS *
                      *****************************

  NA   - Mulliken gross atomic population
  ZA   - Total nuclear charge
  QA   - Mulliken gross atomic charge
  VA   - Mayer's total valence
  BVA  - Mayer's bonded valence
  FA   - Mayer's free valence

  ATOM       NA         ZA         QA         VA         BVA        FA
  0 C      6.0196     6.0000    -0.0196     3.8244     3.8244    -0.0000
  1 C      6.1847     6.0000    -0.1847     3.8415     3.8415    -0.0000
  2 C      6.1984     6.0000    -0.1984     3.8538     3.8538     0.0000
  3 C      6.1986     6.0000    -0.1986     3.8661     3.8661     0.0000
  4 C      6.1984     6.0000    -0.1984     3.8538     3.8538    -0.0000
  5 C      6.1847     6.0000    -0.1847     3.8415     3.8415    -0.0000
  6 Cl    17.2589    17.0000    -0.2589     0.9551     0.9551     0.0000
  7 H      0.8869     1.0000     0.1131     0.9782     0.9782     0.0000
  8 H      0.8906     1.0000     0.1094     0.9871     0.9871    -0.0000
  9 H      0.8878     1.0000     0.1122     0.9788     0.9788    -0.0000
 10 H      0.9146     1.0000     0.0854     0.9839     0.9839    -0.0000
 11 H      0.8906     1.0000     0.1094     0.9871     0.9871    -0.0000
 12 H      0.8869     1.0000     0.1131     0.9782     0.9782    -0.0000
 13 H      0.8997     1.0000     0.1003     0.9845     0.9845     0.0000
 14 H      0.8760     1.0000     0.1240     0.9856     0.9856    -0.0000
 15 H      0.8760     1.0000     0.1240     0.9856     0.9856    -0.0000
 16 H      0.8997     1.0000     0.1003     0.9845     0.9845    -0.0000
 17 H      0.8477     1.0000     0.1523     0.9786     0.9786     0.0000

  Mayer bond orders larger than 0.1
B(  0-C ,  1-C ) :   0.9448 B(  0-C ,  5-C ) :   0.9448 B(  0-C ,  6-Cl) :   0.9329 
B(  0-C , 17-H ) :   0.9928 B(  1-C ,  2-C ) :   0.9471 B(  1-C , 13-H ) :   0.9791 
B(  1-C , 14-H ) :   0.9870 B(  2-C ,  3-C ) :   0.9477 B(  2-C ,  7-H ) :   0.9928 
B(  2-C ,  8-H ) :   0.9781 B(  3-C ,  4-C ) :   0.9477 B(  3-C ,  9-H ) :   0.9937 
B(  3-C , 10-H ) :   0.9858 B(  4-C ,  5-C ) :   0.9471 B(  4-C , 11-H ) :   0.9781 
B(  4-C , 12-H ) :   0.9928 B(  5-C , 15-H ) :   0.9870 B(  5-C , 16-H ) :   0.9791 


-------
TIMINGS
-------

Total SCF time: 0 days 0 hours 0 min 31 sec 

Total time                  ....      31.173 sec
Sum of individual times     ....      30.881 sec  ( 99.1%)

Fock matrix formation       ....      30.108 sec  ( 96.6%)
Diagonalization             ....       0.109 sec  (  0.3%)
Density matrix formation    ....       0.017 sec  (  0.1%)
Population analysis         ....       0.046 sec  (  0.1%)
Initial guess               ....       0.305 sec  (  1.0%)
Orbital Transformation      ....       0.000 sec  (  0.0%)
Orbital Orthonormalization  ....       0.000 sec  (  0.0%)
DIIS solution               ....       0.000 sec  (  0.0%)
SOSCF solution              ....       0.140 sec  (  0.4%)


           ************************************************************
           *        Program running with 8 parallel MPI-processes     *
           *              working on a common directory               *
           ************************************************************


------------------------------------------------------------------------------- 
                              ORCA-MATRIX DRIVEN CI                            
------------------------------------------------------------------------------- 


Wavefunction type
-----------------
Correlation treatment                      ...      CCSD     
Single excitations                         ... ON
Orbital optimization                       ... OFF
Calculation of Z vector                    ... OFF
Calculation of Brueckner orbitals          ... OFF
Perturbative triple excitations            ... ON
Calculation of F12 correction              ... OFF
Frozen core treatment                      ... chemical core (22 el)
Reference Wavefunction                     ... RHF
  Internal Orbitals:    11 ...   31 ( 21 MO's/ 42 electrons)
  Virtual  Orbitals:    32 ...  367 (336 MO's              )
Number of AO's                             ...    368
Number of electrons                        ...     64
Number of correlated electrons             ...     42

Algorithmic settings
--------------------
Integral transformation                    ... All integrals via the RI transformation
K(C) Formation                             ... RI-DLPNO
   PNO-Integral Storage                    ... ON DISK
   PNO occupation number cut-off           ... 1.000e-07
   Singles PNO occupation number cut-off   ... 3.000e-09
   PNO Mulliken prescreening cut-off       ... 1.000e-03
   Domain cut-off (Mulliken population)    ... 1.000e-03
   PNO Normalization                       ...    1
Maximum number of iterations               ...        50
Convergence tolerance (max. residuum)      ... 1.000e-05
Level shift for amplitude update           ... 2.000e-01
Maximum number of DIIS vectors             ...         7
DIIS turned on at iteration                ...         0
Damping before turning on DIIS             ...     0.500
Damping after turning on DIIS              ...     0.000
Pair specific amplitude update             ... OFF
Natural orbital iterations                 ... OFF
Perturbative natural orbital generation    ... OFF
Printlevel                                 ... 2

Singles Fock matrix elements calculated using PNOs.

Memory handling:
----------------
Maximum memory for working arrays          ...   8000 MB
Data storage in matrix containers          ... UNCOMPRESSED
Data type for integral storage             ... DOUBLE
In-Core Storage of quantities:
   Amplitudes+Sigma Vector      ... NO
   J+K operators                ... NO
   DIIS vectors                 ... NO
   3-external integrals         ... NO
   4-external integrals         ... NO

Localization treatment:
-----------------------
Localization option                        ...    6
Localization threshhold                    ... -1.0e+00
Using relative localization threshhold     ... 1.0e-08
Neglect threshold for strong pairs         ... 1.000e-05 Eh
Prescreening threshold for very weak pairs ... 1.000e-07 Eh

Initializing the integral package          ... done
Localizing the valence orbitals
------------------------------------------------------------------------------
                           ORCA ORBITAL LOCALIZATION
------------------------------------------------------------------------------

Input orbitals are from                  ... chlorocyclohexane_ax.proc0.gbw
Output orbitals are to                   ... chlorocyclohexane_ax.proc0.loc
Max. number of iterations                ... 128
Localizations seeded randomly            ... off
Convergence tolerance                    ... 1.000e-06
Using relative localization threshhold   ... 1.000e-08
Treshold for strong local MOs            ... 9.500e-01
Treshold for bond MOs                    ... 8.500e-01
Operator                                 ... 0
Orbital range for localization           ... 11 to 31
Localization criterion                   ... FOSTER-BOYS (AUGMENTED HESSIAN)
Doing the dipole integrals     ... o.k.
Initial value of the localization sum :   219.240059
ITERATION   0 : L=  276.7014408533 DL=  5.75e+01 (AVERGE_DL)=    0.5230923700 
ITERATION   1 : L=  284.9438295229 DL=  8.24e+00 (AVERGE_DL)=    0.1981147896 
ITERATION   2 : L=  285.1424624965 DL=  1.99e-01 (AVERGE_DL)=    0.0307550208 
ITERATION   3 : L=  285.1437271901 DL=  1.26e-03 (AVERGE_DL)=    0.0024540478 
ITERATION   4 : L=  285.1445611397 DL=  8.34e-04 (AVERGE_DL)=    0.0019927842 
ITERATION   5 : L=  285.1453753679 DL=  8.14e-04 (AVERGE_DL)=    0.0019690803 
ITERATION   6 : L=  285.1461370556 DL=  7.62e-04 (AVERGE_DL)=    0.0019044906 
ITERATION   7 : L=  285.1468423760 DL=  7.05e-04 (AVERGE_DL)=    0.0018326671 
ITERATION   8 : L=  285.1474916678 DL=  6.49e-04 (AVERGE_DL)=    0.0017583702 
ITERATION   9 : L=  285.1480864749 DL=  5.95e-04 (AVERGE_DL)=    0.0016829779 
ITERATION  10 : L=  285.1486289223 DL=  5.42e-04 (AVERGE_DL)=    0.0016071972 
ITERATION  11 : L=  285.1491215984 DL=  4.93e-04 (AVERGE_DL)=    0.0015316908 
ITERATION  12 : L=  285.1495674118 DL=  4.46e-04 (AVERGE_DL)=    0.0014570246 
ITERATION  13 : L=  285.1499694722 DL=  4.02e-04 (AVERGE_DL)=    0.0013836812 
ITERATION  14 : L=  285.1503309831 DL=  3.62e-04 (AVERGE_DL)=    0.0013120520 
ITERATION  15 : L=  285.1506551591 DL=  3.24e-04 (AVERGE_DL)=    0.0012424553 
ITERATION  16 : L=  285.1509451561 DL=  2.90e-04 (AVERGE_DL)=    0.0011751333 
ITERATION  17 : L=  285.1512040181 DL=  2.59e-04 (AVERGE_DL)=    0.0011102595 
ITERATION  18 : L=  285.1514346509 DL=  2.31e-04 (AVERGE_DL)=    0.0010479748 
ITERATION  19 : L=  285.1516397842 DL=  2.05e-04 (AVERGE_DL)=    0.0009883449 
ITERATION  20 : L=  285.1518219628 DL=  1.82e-04 (AVERGE_DL)=    0.0009314060 
ITERATION  21 : L=  285.1519835388 DL=  1.62e-04 (AVERGE_DL)=    0.0008771597 
ITERATION  22 : L=  285.1521266757 DL=  1.43e-04 (AVERGE_DL)=    0.0008255933 
ITERATION  23 : L=  285.1522533452 DL=  1.27e-04 (AVERGE_DL)=    0.0007766520 
ITERATION  24 : L=  285.1523653389 DL=  1.12e-04 (AVERGE_DL)=    0.0007302761 
ITERATION  25 : L=  285.1524642795 DL=  9.89e-05 (AVERGE_DL)=    0.0006864004 
ITERATION  26 : L=  285.1525516264 DL=  8.73e-05 (AVERGE_DL)=    0.0006449325 
ITERATION  27 : L=  285.1526286880 DL=  7.71e-05 (AVERGE_DL)=    0.0006057720 
ITERATION  28 : L=  285.1526966420 DL=  6.80e-05 (AVERGE_DL)=    0.0005688504 
ITERATION  29 : L=  285.1527565330 DL=  5.99e-05 (AVERGE_DL)=    0.0005340367 
ITERATION  30 : L=  285.1528092992 DL=  5.28e-05 (AVERGE_DL)=    0.0005012661 
ITERATION  31 : L=  285.1528557680 DL=  4.65e-05 (AVERGE_DL)=    0.0004704039 
ITERATION  32 : L=  285.1528966794 DL=  4.09e-05 (AVERGE_DL)=    0.0004413803 
ITERATION  33 : L=  285.1529326873 DL=  3.60e-05 (AVERGE_DL)=    0.0004140846 
ITERATION  34 : L=  285.1529643719 DL=  3.17e-05 (AVERGE_DL)=    0.0003884315 
ITERATION  35 : L=  285.1529922469 DL=  2.79e-05 (AVERGE_DL)=    0.0003643324 
ITERATION  36 : L=  285.1530167641 DL=  2.45e-05 (AVERGE_DL)=    0.0003416847 
ITERATION  37 : L=  285.1530383268 DL=  2.16e-05 (AVERGE_DL)=    0.0003204370 
ITERATION  38 : L=  285.1530572869 DL=  1.90e-05 (AVERGE_DL)=    0.0003004763 
ITERATION  39 : L=  285.1530739575 DL=  1.67e-05 (AVERGE_DL)=    0.0002817510 
ITERATION  40 : L=  285.1530886140 DL=  1.47e-05 (AVERGE_DL)=    0.0002641838 
ITERATION  41 : L=  285.1531014938 DL=  1.29e-05 (AVERGE_DL)=    0.0002476539 
ITERATION  42 : L=  285.1531128181 DL=  1.13e-05 (AVERGE_DL)=    0.0002322174 
ITERATION  43 : L=  285.1531227686 DL=  9.95e-06 (AVERGE_DL)=    0.0002176779 
ITERATION  44 : L=  285.1531315155 DL=  8.75e-06 (AVERGE_DL)=    0.0002040873 
ITERATION  45 : L=  285.1531392002 DL=  7.68e-06 (AVERGE_DL)=    0.0001912956 
ITERATION  46 : L=  285.1531459553 DL=  6.76e-06 (AVERGE_DL)=    0.0001793514 
ITERATION  47 : L=  285.1531518905 DL=  5.94e-06 (AVERGE_DL)=    0.0001681161 
ITERATION  48 : L=  285.1531571066 DL=  5.22e-06 (AVERGE_DL)=    0.0001576022 
ITERATION  49 : L=  285.1531616868 DL=  4.58e-06 (AVERGE_DL)=    0.0001476841 
ITERATION  50 : L=  285.1531657158 DL=  4.03e-06 (AVERGE_DL)=    0.0001385121 
ITERATION  51 : L=  285.1531692522 DL=  3.54e-06 (AVERGE_DL)=    0.0001297696 
ITERATION  52 : L=  285.1531723626 DL=  3.11e-06 (AVERGE_DL)=    0.0001217018 
ITERATION  53 : L=  285.1531750929 DL=  2.73e-06 (AVERGE_DL)=    0.0001140239 
ITERATION  54 : L=  285.1531774930 DL=  2.40e-06 (AVERGE_DL)=    0.0001069062 
ITERATION  55 : L=  285.1531796011 DL=  2.11e-06 (AVERGE_DL)=    0.0001001939 
ITERATION  56 : L=  285.1531814544 DL=  1.85e-06 (AVERGE_DL)=    0.0000939412 
ITERATION  57 : L=  285.1531830808 DL=  1.63e-06 (AVERGE_DL)=    0.0000880060 
ITERATION  58 : L=  285.1531845115 DL=  1.43e-06 (AVERGE_DL)=    0.0000825389 
ITERATION  59 : L=  285.1531857671 DL=  1.26e-06 (AVERGE_DL)=    0.0000773260 
ITERATION  60 : L=  285.1531868713 DL=  1.10e-06 (AVERGE_DL)=    0.0000725102 
ITERATION  61 : L=  285.1531878404 DL=  9.69e-07 (AVERGE_DL)=    0.0000679326 
LOCALIZATION SUM CONVERGED

------------------------------------------------------
AUGMENTED HESSIAN OPTIMIZATION OF FOSTER-BOYS ORBITALS
------------------------------------------------------

Spin operator:           0
Orbital window:          11 to 31
Number of iterations:    128
Gradient tolerance:      1.000e-06
Number of pairs:         210
Davidson threshold:      2000
Diagonalization method:  LAPACK
Iter:    0   L: 285.1531878404   Grad. norm: 2.311329e-03
   *** Likely close to a maximum now. ***
       Augmented Hessian eigenvalues:  1.41e-05 -1.53e-01 -5.99e+00 -6.06e+00 ... 
Iter:    1   L: 285.1531948688   Grad. norm: 3.270317e-05
Iter:    2   L: 285.1531948688   Grad. norm: 5.199869e-12
LOCALIZATION HAS CONVERGED.

Eigenvalues of the Hessian:
  0 -1.526e-01
  1 -5.993e+00
  2 -6.066e+00
  3 -1.130e+01
  4 -1.136e+01
  5 -1.735e+01
  6 -1.764e+01
  7 -1.765e+01
  8 -1.774e+01
  9 -1.776e+01
    ...


------------------------------------------------------------------------------- 
                    LOCALIZED MOLECULAR ORBITAL COMPOSITIONS                   
------------------------------------------------------------------------------- 

The Mulliken populations for each LMO on each atom are computed
The LMO`s will be ordered according to atom index and type
  (A) Strongly localized MO`s have populations of >=0.950 on one atom
  (B) Two center bond orbitals have populations of >=0.850 on two atoms
  (C) Other MO`s are considered to be `delocalized`

FOUND  -   3 strongly local MO`s
       -  18 two center bond MO`s
       -   0 significantly delocalized MO`s

Rather strongly localized orbitals:
MO  13:   6Cl -   0.999185
MO  12:   6Cl -   0.997686
MO  11:   6Cl -   0.997686
Bond-like localized orbitals:
MO  31:  17H  -   0.433326  and   0C  -   0.604803
MO  30:  16H  -   0.467007  and   5C  -   0.559122
MO  29:  15H  -   0.450695  and   5C  -   0.578927
MO  28:  14H  -   0.450696  and   1C  -   0.578926
MO  27:  13H  -   0.467008  and   1C  -   0.559122
MO  26:  12H  -   0.460988  and   4C  -   0.572672
MO  25:  11H  -   0.460055  and   4C  -   0.565683
MO  24:  10H  -   0.476088  and   3C  -   0.553135
MO  23:   9H  -   0.461130  and   3C  -   0.572434
MO  22:   8H  -   0.460056  and   2C  -   0.565683
MO  21:   7H  -   0.460991  and   2C  -   0.572670
MO  20:   6Cl -   0.662406  and   0C  -   0.360718
MO  19:   5C  -   0.524844  and   4C  -   0.501499
MO  18:   5C  -   0.488757  and   0C  -   0.541587
MO  17:   4C  -   0.516829  and   3C  -   0.514429
MO  16:   3C  -   0.514427  and   2C  -   0.516830
MO  15:   2C  -   0.501499  and   1C  -   0.524844
MO  14:   1C  -   0.488756  and   0C  -   0.541588
Localized MO's were stored in: chlorocyclohexane_ax.proc0.loc

Localizing the core orbitals
------------------------------------------------------------------------------
                           ORCA ORBITAL LOCALIZATION
------------------------------------------------------------------------------

Input orbitals are from                  ... chlorocyclohexane_ax.proc0.loc
Output orbitals are to                   ... chlorocyclohexane_ax.proc0.loc
Max. number of iterations                ... 128
Localizations seeded randomly            ... off
Convergence tolerance                    ... 1.000e-06
Using relative localization threshhold   ... 1.000e-08
Treshold for strong local MOs            ... 9.500e-01
Treshold for bond MOs                    ... 8.500e-01
Operator                                 ... 0
Orbital range for localization           ... 0 to 10
Localization criterion                   ... FOSTER-BOYS (AUGMENTED HESSIAN)
Doing the dipole integrals     ... o.k.
Initial value of the localization sum :   129.479928
ITERATION   0 : L=  129.6101661940 DL=  1.30e-01 (AVERGE_DL)=    0.0486617223 
ITERATION   1 : L=  129.6552106840 DL=  4.50e-02 (AVERGE_DL)=    0.0286180140 
ITERATION   2 : L=  129.6562004823 DL=  9.90e-04 (AVERGE_DL)=    0.0042422084 
ITERATION   3 : L=  129.6562380093 DL=  3.75e-05 (AVERGE_DL)=    0.0008260208 
ITERATION   4 : L=  129.6562400359 DL=  2.03e-06 (AVERGE_DL)=    0.0001919548 
ITERATION   5 : L=  129.6562401424 DL=  1.06e-07 (AVERGE_DL)=    0.0000439968 
LOCALIZATION SUM CONVERGED

------------------------------------------------------
AUGMENTED HESSIAN OPTIMIZATION OF FOSTER-BOYS ORBITALS
------------------------------------------------------

Spin operator:           0
Orbital window:          0 to 10
Number of iterations:    128
Gradient tolerance:      1.000e-06
Number of pairs:         55
Davidson threshold:      2000
Diagonalization method:  LAPACK
Iter:    0   L: 129.6562401424   Grad. norm: 4.311530e-04
Iter:    1   L: 129.6562419992   Grad. norm: 2.387203e-04
Iter:    2   L: 129.6562425480   Grad. norm: 1.817684e-05
   *** Likely close to a maximum now. ***
       Augmented Hessian eigenvalues:  7.78e-10 -6.92e-06 -3.28e-05 -3.61e-05 ... 
Iter:    3   L: 129.6562425484   Grad. norm: 2.166837e-09
LOCALIZATION HAS CONVERGED.

Eigenvalues of the Hessian:
  0 -6.916e-06
  1 -3.277e-05
  2 -3.603e-05
  3 -1.173e-01
  4 -1.173e-01
  5 -1.179e-01
  6 -3.526e-01
  7 -4.695e-01
  8 -4.696e-01
  9 -4.714e-01
    ...


------------------------------------------------------------------------------- 
                    LOCALIZED MOLECULAR ORBITAL COMPOSITIONS                   
------------------------------------------------------------------------------- 

The Mulliken populations for each LMO on each atom are computed
The LMO`s will be ordered according to atom index and type
  (A) Strongly localized MO`s have populations of >=0.950 on one atom
  (B) Two center bond orbitals have populations of >=0.850 on two atoms
  (C) Other MO`s are considered to be `delocalized`

FOUND  -  11 strongly local MO`s
       -   0 two center bond MO`s
       -   0 significantly delocalized MO`s

Rather strongly localized orbitals:
MO  10:   6Cl -   1.000108
MO   9:   6Cl -   1.000108
MO   8:   6Cl -   1.000130
MO   7:   6Cl -   0.999999
MO   6:   6Cl -   0.999055
MO   5:   5C  -   1.001516
MO   4:   4C  -   1.001497
MO   3:   3C  -   1.001473
MO   2:   2C  -   1.001497
MO   1:   1C  -   1.001516
MO   0:   0C  -   1.001422
[...]
   TCutMKN   ...     1.0e-01
   TCutDO    ...     2.0e-02
   TCutCMO   ...     1.0e-03
   TCutCPAO  ...     1.0e-03

--------------------------------
LOCAL RI TRANSFORMATION (IAVPAO)
--------------------------------

Orbital window:      11 to 31
Number of PAOs:     368
Basis functions:    368 (138 shells)
Aux. functions:     938 (280 shells)

Processing maps (0.0 sec)
Average map sizes:
   Aux shells -> MOs              21.0
   Aux shells -> PAOs            368.0
   MOs        -> AO shells       137.4
   PAOs       -> AO shells       138.0

Calculating integrals (1.0 sec, 55.315 MB)
Sorting integrals (0.1 sec, 55.305 MB)
Total time for the integral transformation: 1.1 sec
--------------------------------
INITIAL GUESS AND PNO GENERATION
--------------------------------

PNO truncation parameters                   .... 
    ScaleTCutPNO       =        1.000e-02
    PAOOverlapThresh   =        1.000e-08

    TCutPairs          =        1.000e-05
    TCutPNO            =        1.000e-07
    TCutPNOSingles     =        3.000e-09
    TCutMP2Pairs       =        1.000e-06
    TCutMKN            =        1.000e-03
    TCutDO             =        5.000e-03

Pair selection                          .... not used
Type of local MP2 treatment                 .... full local PMP2
Strategy for PNO selection                  .... occupation number selection
Pair density normalization                  .... MP2 norm
Spin component scaling                      .... not used

PASS-1: Formation of initial guess LMP2 amplitudes
Initial amplitudes guess done. Entering LMP2 iteration loop:
   Max. no of iterations          ...  50
   Energy convergence tolerance   ...    1.0e-07
   Residual convergence tolerance ...    5.0e-07
   Fock matrix cutoff             ...    1.0e-05 Eh
   DIIS convergence acceleration parameters:
        Max # vectors in DIIS     ... 7
        Start iteration of DIIS   ... 0
        Levelshift                ... 2.000e-01
        Damping factor 1          ... 5.000e-01
        Damping factor 2          ... 1.000e+00
   L-MP2 PNO cut-off              ...   1.0e-09
   L-MP2 PNO cut-off (core)       ...   1.0e-11
                           *** Turning on DIIS ***
LMP2-Iter=   0:  ELMP2= -1.209452251439  DE=   2.3e-02 RMAX=   7.2e-03
LMP2-Iter=   1:  ELMP2= -1.221374423779  DE=   1.2e-02 RMAX=   4.9e-03
LMP2-Iter=   2:  ELMP2= -1.223271140998  DE=   1.9e-03 RMAX=   8.5e-04
LMP2-Iter=   3:  ELMP2= -1.223460350952  DE=   1.9e-04 RMAX=   4.0e-04
LMP2-Iter=   4:  ELMP2= -1.223469789151  DE=   9.4e-06 RMAX=   4.7e-05
LMP2-Iter=   5:  ELMP2= -1.223468209156  DE=   1.6e-06 RMAX=   2.0e-05
LMP2-Iter=   6:  ELMP2= -1.223467901205  DE=   3.1e-07 RMAX=   1.8e-06
LMP2-Iter=   7:  ELMP2= -1.223467881628  DE=   2.0e-08 RMAX=   5.2e-07
LMP2-Iter=   8:  ELMP2= -1.223467886730  DE=   5.1e-09 RMAX=   4.8e-08 => CONVERGED
PASS-2: Formation of Pair natural orbitals
   .... Finished loop over pairs

 PNO Occupation Number Statistics: 
  | Av. % of trace(Dij) retained        ...  99.591061882118
  | sigma^2 in % of trace(Dij) retained ...   1.95e-01
  | Av. % of trace(Di) retained         ...  99.999715783318
  | sigma^2 in % of trace(Di) retained  ...   4.08e-09
 Distributions of % trace(Dij) recovered:
  |       >= 99.9  ...    64 ( 27.7 % of all pairs)
  |   [90.0, 99.0) ...    28 ( 12.1 % of all pairs)
  |   [99.0, 99.9) ...   139 ( 60.2 % of all pairs)
 Distributions of % trace(Di) recovered :
  |       >= 99.9  ...    21 (100.0 % of all I-pairs )

Making pair pair interaction lists          ... done

                       ===========================
                        231 OF  231 PAIRS ARE KEPT
                       ===========================

Total time spent in the initial guess                 ...    18.082 sec
L-MP2 correlation energy (all non-screened pairs)     ...      -1.223467886730 Eh
L-MP2 PNO error correction                            ...      -0.000029840918 Eh
                                                          --------------------
Initial total L-MP2 energy (non-screened pairs)       ...      -1.223497727648 Eh

Initial PNO correlation energy                        ...      -1.222236619247 Eh
sum of pair energies estimated for screened out pairs ...       0.000000000000 Eh
sum of MP2 pair energies for pairs that were not kept ...       0.000000000000 Eh
sum of PNO error estimates for the kept pairs         ...      -0.001261108401 Eh
                                                          --------------------
sum of all corrections                                         -0.001261108401
Initial total correlation energy                               -1.223497727648
Thresholds for map construction and integral transformation for fine MP2 and CCSD(T) calculation:
   TCutMKN   ...     1.0e-03
   TCutDO    ...     5.0e-03
   TCutPairs ...     1.0e-05
   TCutCMO   ...     1.0e-03
   TCutCPAO  ...     1.0e-03

Time for aux screen maps:            0.005
Time for maps after fine MP2:            0.015
-----------------------------
LOCAL RI TRANSFORMATION (IJV)
-----------------------------

Orbital window:      11 to 31
Basis functions:    368 (138 shells)
Aux. functions:     938 (280 shells)

Processing maps (0.0 sec)
Average map sizes:
   Aux shells -> MOs(i)           21.0
   Aux shells -> MOs(j)           21.0
   MOs        -> AO shells       137.4

Calculating integrals (0.9 sec, 3.167 MB)
Sorting integrals (0.0 sec, 3.156 MB)
Total time for the integral transformation: 0.9 sec
--------------------------------
LOCAL RI TRANSFORMATION (VABPAO)
--------------------------------

Number of PAOs:     368
Basis functions:    368 (138 shells)
Aux. functions:     938 (280 shells)

Processing maps (0.0 sec)
Average map sizes:
   Aux shells -> PAOs            368.0
   PAOs       -> AO shells       138.0

Calculating integrals (2.6 sec, 1823.624 MB)
Finished


-------------------------------------
Pair Pair Term precalculation with     
RI-(ij|mn) and (im|jn) transformation  
ON THE FLY                             
-------------------------------------

   IBatch   1 (of   2)              ... done (   93.224 sec)
   IBatch   2 (of   2)              ... done (   33.302 sec)
Total EXT                           ...         126.526 sec

---------------------
RI-PNO TRANSFORMATION
---------------------

Total Number of PNOs                   ...  9637
Average number of PNOs per pair        ...    41
Maximal number of PNOs per pair        ...    71
   #pairs with  1 -  5 PNOs   :    0
   #pairs with  6 - 10 PNOs   :    3
   #pairs with 11 - 15 PNOs   :   12
   #pairs with 16 - 20 PNOs   :   11
   #pairs with 21 - 25 PNOs   :   18
   #pairs with 26 - 30 PNOs   :   38
   #pairs with 31 - 35 PNOs   :   13
   #pairs with 36 - 40 PNOs   :   11
   #pairs with 41 - 45 PNOs   :    7
   #pairs with 46 - 50 PNOs   :   41
   #pairs with 51 - 55 PNOs   :   34
   #pairs with 56 - 60 PNOs   :    1
   #pairs with 61 - 65 PNOs   :   10
   #pairs with 66 - 70 PNOs   :   27
   #pairs with 71 - 75 PNOs   :    5

Generation of (ij|ab)[P] integrals            ... on
Generation of (ia|bc)[P],(ja|bc)[P] integrals ... on
Storage of 3 and 4 external integrals         ... on
Generation of ALL (ka|bc)[P] integrals        ... on
Keep RI integrals in memory                   ... off

Ibatch:  1 (of  1)
Starting 2-4 index PNO integral generation ... done

Timings:
Total PNO integral transformation time     ...         43.325 sec
Size of the 3-external file                ...       194 MB
Size of the 4-external file                ...      1404 MB
Size of the IKJL file                      ...         0 MB
Size of the all 3-external file            ...      2038 MB
Size of the 1-external file                ...         4 MB

Making pair/pair overlap matrices          ... done (    4.312 sec)
Size of the pair overlap file              ... 504 MB
Redoing the guess amplitudes               ... done (    0.102 sec)

-------------------------
FINAL STARTUP INFORMATION
-------------------------

E(0)                                       ...   -693.226055344
E(L-MP2)                                   ...     -1.223497728
E(L-MP2) including corrections             ...     -1.223497728
Initial E(tot)                             ...   -694.449553072
<T|T>                                      ...      0.360707325
Number of pairs included                   ... 231
Total number of pairs                      ... 231

------------------------------------------------
                  RHF COUPLED CLUSTER ITERATIONS
------------------------------------------------

Number of PNO amplitudes to be optimized   ...       467615
Number of non-PNO amplitudes               ...     26078976
Untruncated number of regular amplitudes   ...     26078976

Iter       E(tot)           E(Corr)          Delta-E          Residual     Time
  0   -694.412318233     -1.185001781      0.038495947      0.011103303   14.27
                           *** Turning on DIIS ***
  1   -694.478598768     -1.251282315     -0.066280535      0.009785684   14.65
  2   -694.511972998     -1.284656545     -0.033374230      0.003271969   15.35
  3   -694.517655550     -1.290339098     -0.005682552      0.001800816   14.59
  4   -694.518758007     -1.291441554     -0.001102457      0.000565254   14.58
  5   -694.518961294     -1.291644841     -0.000203286      0.000275432   14.56
  6   -694.519008628     -1.291692175     -0.000047334      0.000123851   14.48
  7   -694.519016556     -1.291700103     -0.000007928      0.000058563   14.58
  8   -694.519017344     -1.291700892     -0.000000788      0.000018659   14.53
  9   -694.519016568     -1.291700115      0.000000776      0.000005672   14.52
               --- The Coupled-Cluster iterations have converged ---

----------------------
COUPLED CLUSTER ENERGY
----------------------

E(0)                                       ...   -693.226055344
E(CORR)(strong-pairs)                      ...     -1.291700115
E(CORR)(weak-pairs)                        ...     -0.001261108
E(CORR)(corrected)                         ...     -1.292961224
E(TOT)                                     ...   -694.519016568
Singles Norm <S|S>**1/2                    ...      0.056472208  
T1 diagnostic                              ...      0.008713851  

------------------
LARGEST AMPLITUDES
------------------
  20-> 32  20-> 32       0.059243
  30-> 39  30-> 39       0.031572
  27-> 39  27-> 39       0.031571
  25-> 38  25-> 38       0.030666
  22-> 38  22-> 38       0.030664
  24-> 32  24-> 32       0.028523
  27-> 32  27-> 32       0.028349
  30-> 32  30-> 32       0.028349
  28-> 38  28-> 38       0.027903
  29-> 38  29-> 38       0.027902
  22-> 32  22-> 32       0.027871
  25-> 32  25-> 32       0.027870
  21-> 32  21-> 32       0.027219
  26-> 32  26-> 32       0.027219
  23-> 32  23-> 32       0.027072
  24-> 38  24-> 38       0.027047


-------------------------------------------
DLPNO BASED TRIPLES CORRECTION
-------------------------------------------

Singles multiplier          ...  1.000000
TCutTNO                     ... 1.000e-09
TCutMP2Pairs                ... 1.000e-06
TCutDOStrong                ... 1.000e-02
TCutMKNStrong               ... 1.000e-02
TCutDOWeak                  ... 2.000e-02
TCutMKNWeak                 ... 1.000e-01

Fragment selection                          .... not used
Number of Triples that are to be computed   ...      1750

 . . . . . . . . .
10% done  
20% done  
30% done  
40% done  
50% done  
60% done  
70% done  
80% done  
90% done               (    247.723 sec)
Triples timings:
Total time for T0               ...   263.271 sec
Total time for Iterative (T)    ...     0.000 sec
Total time of overall (T)       ...   263.273 sec

Triples List generation         ...     0.000 sec
TNO generation                  ...    15.466 sec
Pair density generation         ...     0.022 sec
Look up tables                  ...     0.000 sec
Generating 3-index integrals    ...   172.224 sec
  Make 4-ind.int. from 3-ind.int...    22.871 sec
  Projecting amplitudes (D + S) ...    20.744 sec
  Downprojecting integrals      ...     0.004 sec
  Energy contr. (sum over a,b,c)...     9.062 sec
Fitting ET(->0)                 ...     0.000 sec

Everything after 3-index        ...    75.499 sec

Timing details:
 TNO integrals                  ...   192.829 sec
   Reading 3-index integrals    ...     0.384 sec
   Sorting integrals            ...    22.717 sec
       Sorting integrals 1      ...     0.002 sec
       Sorting integrals 2      ...    13.705 sec
       Sorting integrals 3      ...     0.633 sec
       Sorting integrals 4      ...     0.037 sec
       Sorting integrals 5      ...     0.235 sec
       Sorting integrals 6      ...     8.105 sec
   Calculating local VM**-1/2   ...     0.683 sec
   Orthogonal. integrals        ...     1.183 sec
   Multipl. 3-index integrals   ...   167.862 sec
   All concerning IRIab (w/TNO) ...    12.273 sec

 Calculate W0/W1                ...    22.810 sec
 W 3-ext contribution           ...    12.309 sec
 W 3-int contribution           ...     3.378 sec
 Sorting W                      ...     6.813 sec

 V exchange contribution        ...     2.987 sec

 Timings for Triples without generation
     of 3-index integrals       ...    75.496 sec
       0 weak pairs             ...    75.496 sec
       1 weak pair              ...     0.000 sec
       2 weak pairs             ...     0.000 sec
       3 weak pairs             ...     0.000 sec
  Extra time for extrapolation  ...     0.000 sec

Number of Triples   (0, 1, 2, 3 weak pairs; overall):   1750       0       0       0  (  1750)
Number of Atoms     (0, 1, 2, 3 weak pairs; overall):   17.4     0.0     0.0     0.0  (    18)
Number of PAOs      (0, 1, 2, 3 weak pairs; overall):  359.4     0.0     0.0     0.0  (   368)
Number of AuxFcns   (0, 1, 2, 3 weak pairs; overall):  418.7     0.0     0.0     0.0  (   938)
Number of TNOs      (0, 1, 2, 3 weak pairs         ):  102.0     0.0     0.0     0.0
Aver. Number of NTNO, Atoms, PAOs, AuxFcns / Triples:   1750   102.0    17.4   359.4   418.7

Triples Correction (T)                     ...     -0.053211093
Final correlation energy                   ...     -1.346172317
E(CCSD)                                    ...   -694.519016568
E(CCSD(T))                                 ...   -694.572227661


Maximum memory used throughout the entire calculation: 7976.6 MB


------------------------------------------------------------------------------- 
                                     TIMINGS                                   
------------------------------------------------------------------------------- 


Total execution time                   ...      616.762 sec

Localization of occupied MO's          ...        0.703 sec (  0.1%)
Fock Matrix Formation                  ...        2.735 sec (  0.4%)
Global overlap, Fock, MKN matrices     ...        0.222 sec (  0.0%)
Differential overlap integrals         ...        0.135 sec (  0.0%)
Organizing maps                        ...        0.047 sec (  0.0%)
RI 3-index integral generations        ...        5.692 sec (  0.9%)
RI-PNO integral transformation         ...      175.466 sec ( 28.4%)
Initial Guess                          ...       20.781 sec (  3.4%)
DIIS Solver                            ...        2.094 sec (  0.3%)
State Vector Update                    ...        0.040 sec (  0.0%)
Sigma-vector construction              ...      145.550 sec ( 23.6%)
  <D|H|D>(0-ext)                       ...        3.639 sec (  2.5% of sigma)
  <D|H|D>(2-ext Fock)                  ...        0.015 sec (  0.0% of sigma)
  <D|H|D>(2-ext)                       ...       19.100 sec ( 13.1% of sigma)
  <D|H|D>(4-ext)                       ...       16.978 sec ( 11.7% of sigma)
  <D|H|D>(4-ext-corr)                  ...       79.620 sec ( 54.7% of sigma)
  CCSD doubles correction              ...        0.239 sec (  0.2% of sigma)
  <S|H|S>                              ...        0.270 sec (  0.2% of sigma)
  <S|H|D>(1-ext)                       ...        0.424 sec (  0.3% of sigma)
  <D|H|S>(1-ext)                       ...        0.013 sec (  0.0% of sigma)
  <S|H|D>(3-ext)                       ...        0.628 sec (  0.4% of sigma)
  Fock-dressing                        ...       17.366 sec ( 11.9% of sigma)
  Singles amplitudes                   ...        0.556 sec (  0.4% of sigma)
  (ik|jl)-dressing                     ...        2.723 sec (  1.9% of sigma)
  (ij|ab),(ia|jb)-dressing             ...        2.862 sec (  2.0% of sigma)
  Pair energies                        ...        0.012 sec (  0.0% of sigma)
Total Time for computing (T)           ...      263.353 sec ( 42.7% of ALL)


-------------------------   --------------------
FINAL SINGLE POINT ENERGY      -694.572227661001
-------------------------   --------------------


                            ***************************************
                            *     ORCA property calculations      *
                            ***************************************

                                    ---------------------
                                    Active property flags
                                    ---------------------
   (+) Dipole Moment


------------------------------------------------------------------------------
                       ORCA ELECTRIC PROPERTIES CALCULATION
------------------------------------------------------------------------------

Dipole Moment Calculation                       ... on
Quadrupole Moment Calculation                   ... off
Polarizability Calculation                      ... off
GBWName                                         ... chlorocyclohexane_ax.gbw
Electron density file                           ... chlorocyclohexane_ax.scfp.tmp
The origin for moment calculation is the CENTER OF MASS  = (-0.189983, -0.000002 -0.051116)

-------------
DIPOLE MOMENT
-------------
                                X             Y             Z
Electronic contribution:    -11.38832      -0.00002      -2.65482
Nuclear contribution   :     12.15882       0.00003       3.27142
                        -----------------------------------------
Total Dipole Moment    :      0.77050       0.00001       0.61661
                        -----------------------------------------
Magnitude (a.u.)       :      0.98685
Magnitude (Debye)      :      2.50838



--------------------
Rotational spectrum 
--------------------
 
Rotational constants in cm-1:     0.106803     0.056597     0.048559 
Rotational constants in MHz :  3201.877425  1696.739614  1455.759134 

 Dipole components along the rotational axes: 
x,y,z [a.u.] :     0.791791    -0.000012     0.589018 
x,y,z [Debye]:     2.012573    -0.000031     1.497165 

 

Timings for individual modules:

Sum of individual times         ...      659.697 sec (=  10.995 min)
GTO integral calculation        ...        0.876 sec (=   0.015 min)   0.1 %
SCF iterations                  ...       31.310 sec (=   0.522 min)   4.7 %
MDCI module                     ...      627.510 sec (=  10.459 min)  95.1 %
                             ****ORCA TERMINATED NORMALLY****
TOTAL RUN TIME: 0 days 0 hours 11 minutes 6 seconds 395 msec
chlorocyclohexane_ax.gbw -> /home1/pantazis/klk/xyz/Cyclohexanes/chlorocyclohexane_ax.gbw
chlorocyclohexane_ax.job -> /home1/pantazis/klk/xyz/Cyclohexanes/chlorocyclohexane_ax.job
chlorocyclohexane_ax.loc -> /home1/pantazis/klk/xyz/Cyclohexanes/chlorocyclohexane_ax.loc
chlorocyclohexane_ax.nodes -> /home1/pantazis/klk/xyz/Cyclohexanes/chlorocyclohexane_ax.nodes
chlorocyclohexane_ax.prop -> /home1/pantazis/klk/xyz/Cyclohexanes/chlorocyclohexane_ax.prop
chlorocyclohexane_ax_property.txt -> /home1/pantazis/klk/xyz/Cyclohexanes/chlorocyclohexane_ax_property.txt
chlorocyclohexane_ax.xyz -> /home1/pantazis/klk/xyz/Cyclohexanes/chlorocyclohexane_ax.xyz
cp: cannot stat chlorocyclohexane_ax.asa.inp: No such file or directory
