! Job execution by suborca V 6.07 on ZEUS !
Job started from zeus1, running /scratch/pantazis/cis_2_6_DiMe_cyclOMe_anti__Fz9yDO/orca/orca copied from /opt/orca on zeussn123 in /scratch/pantazis/cis_2_6_DiMe_cyclOMe_anti__Fz9yDO
Job execution start: Thu Jun 27 13:46:08 CEST 2019
Shared library path: /scratch/pantazis/cis_2_6_DiMe_cyclOMe_anti__Fz9yDO/orca:/opt/openmpi_1.10.2/lib:/opt/intel/mkl/lib/intel64:/opt/intel/lib/intel64:
PBS Job ID is: 158128.icqc
izeussn123
izeussn123
izeussn123
izeussn123
izeussn123
izeussn123
izeussn123
izeussn123

                                 *****************
                                 * O   R   C   A *
                                 *****************

           --- An Ab Initio, DFT and Semiempirical electronic structure package ---

                  #######################################################
                  #                        -***-                        #
                  #          Department of theory and spectroscopy      #
                  #               Directorship: Frank Neese             #
                  #        Max Planck Institute fuer Kohlenforschung    #
                  #                Kaiser Wilhelm Platz 1               #
                  #                 D-45470 Muelheim/Ruhr               #
                  #                      Germany                        #
                  #                                                     #
                  #                  All rights reserved                #
                  #                        -***-                        #
                  #######################################################


                         Program Version 4.1.x  -  STABLE  -
                                (SVN: $Rev: 14094$)
                ($Date: 2019-06-14 15:01:15 +0200 (Fri, 14 Jun 2019) $)

                         (BUILD: $Sun Jun 23 06:18:31 CEST 2019$)


 With contributions from (in alphabetic order):
   Daniel Aravena         : Magnetic Properties
   Michael Atanasov       : Ab Initio Ligand Field Theory
   Alexander A. Auer      : GIAO ZORA
   Ute Becker             : Parallelization
   Giovanni Bistoni       : ED, Open-shell LED
   Martin Brehm           : Molecular dynamics
   Dmytro Bykov           : SCF Hessian
   Vijay G. Chilkuri      : MRCI spin determinant printing
   Dipayan Datta          : RHF DLPNO-CCSD density
   Achintya Kumar Dutta   : EOM-CC, STEOM-CC
   Dmitry Ganyushin       : Spin-Orbit,Spin-Spin,Magnetic field MRCI
   Miquel Garcia          : C-PCM Hessian
   Yang Guo               : DLPNO-NEVPT2, CIM, IAO-localization
   Andreas Hansen         : Spin unrestricted coupled pair/coupled cluster methods
   Benjamin Helmich-Paris : CASSCF linear response (MC-RPA)
   Lee Huntington         : MR-EOM, pCC
   Robert Izsak           : Overlap fitted RIJCOSX, COSX-SCS-MP3, EOM
   Christian Kollmar      : KDIIS, OOCD, Brueckner-CCSD(T), CCSD density
   Simone Kossmann        : Meta GGA functionals, TD-DFT gradient, OOMP2, MP2 Hessian
   Martin Krupicka        : AUTO-CI
   Lucas Lang             : DCDCAS
   Dagmar Lenk            : GEPOL surface, SMD
   Dimitrios Liakos       : Extrapolation schemes; parallel MDCI
   Dimitrios Manganas     : ROCIS; embedding schemes
   Dimitrios Pantazis     : SARC Basis sets
   Taras Petrenko         : DFT Hessian,TD-DFT gradient, ASA, ECA, R-Raman, ABS, FL, XAS/XES, NRVS
   Peter Pinski           : DLPNO-MP2, DLPNO-MP2 Gradient
   Christoph Reimann      : Effective Core Potentials
   Marius Retegan         : Local ZFS, SOC
   Christoph Riplinger    : Optimizer, TS searches, QM/MM, DLPNO-CCSD(T), (RO)-DLPNO pert. Triples
   Tobias Risthaus        : Range-separated hybrids, TD-DFT gradient, RPA, STAB
   Michael Roemelt        : Restricted open shell CIS
   Masaaki Saitow         : Open-shell DLPNO
   Barbara Sandhoefer     : DKH picture change effects
   Avijit Sen             : IP-ROCIS
   Kantharuban Sivalingam : CASSCF convergence, NEVPT2, FIC-MRCI
   Bernardo de Souza      : ESD, SOC TD-DFT
   Georgi Stoychev        : AutoAux, RI-MP2 NMR
   Willem Van den Heuvel  : Paramagnetic NMR
   Boris Wezisla          : Elementary symmetry handling
   Frank Wennmohs         : Technical directorship


 We gratefully acknowledge several colleagues who have allowed us to
 interface, adapt or use parts of their codes:
   Stefan Grimme, W. Hujo, H. Kruse,             : VdW corrections, initial TS optimization,
                  C. Bannwarth                     DFT functionals, gCP, sTDA/sTD-DF
   Ed Valeev                                     : LibInt (2-el integral package), F12 methods
   Garnet Chan, S. Sharma, J. Yang, R. Olivares  : DMRG
   Ulf Ekstrom                                   : XCFun DFT Library
   Mihaly Kallay                                 : mrcc  (arbitrary order and MRCC methods)
   Andreas Klamt, Michael Diedenhofen            : otool_cosmo (COSMO solvation model)
   Jiri Pittner, Ondrej Demel                    : Mk-CCSD
   Frank Weinhold                                : gennbo (NPA and NBO analysis)
   Christopher J. Cramer and Donald G. Truhlar   : smd solvation model
   Lars Goerigk                                  : TD-DFT with DH, B97 family of functionals
   V. Asgeirsson, H. Jonsson                     : NEB implementation
   FAccTs GmbH                                   : IRC, NEB, NEB-TS, Multilevel


 Your calculation uses the libint2 library for the computation of 2-el integrals
 For citations please refer to: http://libint.valeyev.net

 This ORCA versions uses:
   CBLAS   interface :  Fast vector & matrix operations
   LAPACKE interface :  Fast linear algebra routines
   SCALAPACK package :  Parallel linear algebra routines




***************************************
The coordinates will be read from file: cis_2_6_DiMe_cyclOMe_anti.xyz
***************************************


----- Orbital basis set information -----
Your calculation utilizes the basis: cc-pVTZ 
       H, B-Ne : Obtained from the ccRepo (grant-hill.group.shef.ac.uk/ccrepo) Feb. 2017
                 T. H. Dunning, Jr., J. Chem. Phys. 90, 1007 (1989)
            He : Obtained from the ccRepo (grant-hill.group.shef.ac.uk/ccrepo) Feb. 2017
                 D. E. Woon, T. H. Dunning, Jr., J. Chem. Phys. 100, 2975 (1994)
  Li-Be, Na-Mg : Obtained from the ccRepo (grant-hill.group.shef.ac.uk/ccrepo) Feb. 2017
                 B. P. Prascher, D. E. Woon, K. A. Peterson, T. H. Dunning, Jr., A. K. Wilson, Theor. Chem. Acc. 128, 69 (2011)
         Al-Ar : Obtained from the ccRepo (grant-hill.group.shef.ac.uk/ccrepo) Feb. 2017
                 D. E. Woon, T. H. Dunning, Jr., J. Chem. Phys. 98, 1358 (1993)
            Ca : Obtained from the Peterson Research Group Website (tyr0.chem.wsu.edu/~kipeters) Feb. 2017
                 J. Koput, K. A. Peterson, J. Phys. Chem. 106, 9595 (2002)
         Sc-Zn : Obtained from the ccRepo (grant-hill.group.shef.ac.uk/ccrepo) Feb. 2017
                 N. B. Balabanov, K. A. Peterson, J. Chem. Phys. 123, 064107 (2005)
                 N. B. Balabanov, K. A. Peterson, J. Chem. Phys. 125, 074110 (2006)
         Ga-Kr : Obtained from the ccRepo (grant-hill.group.shef.ac.uk/ccrepo) Feb. 2017
                 A. K. Wilson, D. E. Woon, K. A. Peterson, T. H. Dunning, Jr., J. Chem. Phys. 110, 7667 (1999)
             Y : Obtained from the ccRepo (grant-hill.group.shef.ac.uk/ccrepo) Feb. 2017
                 K. A. Peterson, D. Figgen, M. Dolg, H. Stoll, J. Chem. Phys. 126, 124101 (2007)
        Ag, Au : Obtained from the Peterson Research Group Website (tyr0.chem.wsu.edu/~kipeters) Feb. 2017
                 K. A. Peterson, C. Puzzarini, Theor. Chem. Acc. 114, 283 (2005)

----- AuxC basis set information -----
Your calculation utilizes the auxiliary basis: cc-pVTZ/C 
  Obtained from the EMSL Basis Set Exchange (bse.pnl.gov) Feb. 2017
  H-He, B-F, Al-Ar, Ga-Kr : F. Weigend, A. Kohn, C. Hattig, J. Chem. Phys. 116, 3175 (2002)
             Li-Be, Na-Mg : C. Haettig, Phys. Chem. Chem. Phys. 7, 59 (2005)
                       Ne : C. Haettig, Phys. Chem. Chem. Phys. 7, 59 (2005)
                            F. Weigend, A. Kohn, C. Hattig, J. Chem. Phys. 116, 3175 (2002)
                    Sc-Zn : J. G. Hill, J. A. Platts, J. Chem. Phys. 128, 044104 (2008)

----- AuxJK basis set information -----
Your calculation utilizes the auxiliary basis: cc-pVTZ/JK 
  H, B-F, Al-Cl, Ga-Br : Obtained from the TURBOMOLE 7.0 basis set library

================================================================================
                                        WARNINGS
                       Please study these warnings very carefully!
================================================================================


WARNING: MDCI localization with Augmented Hessian Foster-Boys
  ===> : Switching off randomization!

WARNING: Post HF methods need fully converged wavefunctions
  ===> : Setting SCFConvForced true
         You can overwrite this default with %scf ConvForced false 


INFO   : the flag for use of LIBINT has been found!

================================================================================
                                       INPUT FILE
================================================================================
NAME = cis_2_6_DiMe_cyclOMe_anti.inp
|  1> ! RHF DLPNO-CCSD(T) cc-pVTZ RIJK cc-pVTZ/JK cc-pVTZ/C
|  2> ! KDIIS SOSCF TightSCF TightPNO
|  3> 
|  4> %pal nprocs 8 end
|  5> 
|  6> %maxcore 8000
|  7> 
|  8> %scf maxiter 300
|  9>      shift shift 0.2 erroff 0.1 end
| 10> end
| 11> 
| 12> * xyzfile 0 1 cis_2_6_DiMe_cyclOMe_anti.xyz 
| 13> 
| 14> 
| 15>                          ****END OF INPUT****
================================================================================

                       ****************************
                       * Single Point Calculation *
                       ****************************

---------------------------------
CARTESIAN COORDINATES (ANGSTROEM)
---------------------------------
  C      0.450350    0.000120   -0.445210
  C     -0.166930    1.287220    0.147200
  C     -1.698380    1.262590   -0.024810
  C     -2.332910   -0.000600    0.569660
  C     -1.697700   -1.263460   -0.024790
  C     -0.166230   -1.287280    0.147200
  C      0.442900    2.550500   -0.474720
  C      0.444260   -2.550230   -0.474760
  O      1.887330    0.000490   -0.401890
  C      2.503050    0.000570    0.875580
  H     -2.129460    2.161630    0.433870
  H     -3.415600   -0.000890    0.392810
  H     -2.194480   -0.000550    1.660600
  H     -1.936920   -1.319600   -1.097730
  H     -2.128310   -2.162720    0.433880
  H      0.036930    1.298470    1.228980
  H      0.037660   -1.298440    1.228970
  H      0.246060    0.000050   -1.526050
  H      3.580360    0.001070    0.691720
  H      2.251370    0.892590    1.465880
  H      2.252120   -0.891840    1.465610
  H      0.006160    3.451600   -0.029040
  H      1.526610    2.588140   -0.335640
  H      0.249320    2.583550   -1.554140
  H     -1.937620    1.318590   -1.097750
  H      0.250900   -2.583220   -1.554220
  H      0.007810   -3.451560   -0.029270
  H      1.527950   -2.587430   -0.335480

----------------------------
CARTESIAN COORDINATES (A.U.)
----------------------------
  NO LB      ZA    FRAG     MASS         X           Y           Z
   0 C     6.0000    0    12.011    0.851038    0.000227   -0.841325
   1 C     6.0000    0    12.011   -0.315452    2.432493    0.278168
   2 C     6.0000    0    12.011   -3.209473    2.385949   -0.046884
   3 C     6.0000    0    12.011   -4.408561   -0.001134    1.076501
   4 C     6.0000    0    12.011   -3.208188   -2.387593   -0.046846
   5 C     6.0000    0    12.011   -0.314129   -2.432607    0.278168
   6 C     6.0000    0    12.011    0.836960    4.819747   -0.897091
   7 C     6.0000    0    12.011    0.839530   -4.819236   -0.897166
   8 O     8.0000    0    15.999    3.566537    0.000926   -0.759462
   9 C     6.0000    0    12.011    4.730079    0.001077    1.654606
  10 H     1.0000    0     1.008   -4.024096    4.084889    0.819895
  11 H     1.0000    0     1.008   -6.454549   -0.001682    0.742303
  12 H     1.0000    0     1.008   -4.146966   -0.001039    3.138079
  13 H     1.0000    0     1.008   -3.660248   -2.493683   -2.074409
  14 H     1.0000    0     1.008   -4.021923   -4.086949    0.819914
  15 H     1.0000    0     1.008    0.069788    2.453753    2.322436
  16 H     1.0000    0     1.008    0.071167   -2.453696    2.322417
  17 H     1.0000    0     1.008    0.464986    0.000094   -2.883817
  18 H     1.0000    0     1.008    6.765900    0.002022    1.307161
  19 H     1.0000    0     1.008    4.254473    1.686751    2.770112
  20 H     1.0000    0     1.008    4.255890   -1.685333    2.769602
  21 H     1.0000    0     1.008    0.011641    6.522579   -0.054878
  22 H     1.0000    0     1.008    2.884875    4.890876   -0.634268
  23 H     1.0000    0     1.008    0.471147    4.882202   -2.936899
  24 H     1.0000    0     1.008   -3.661571    2.491774   -2.074447
  25 H     1.0000    0     1.008    0.474132   -4.881578   -2.937050
  26 H     1.0000    0     1.008    0.014759   -6.522503   -0.055312
  27 H     1.0000    0     1.008    2.887407   -4.889534   -0.633965

--------------------------------
INTERNAL COORDINATES (ANGSTROEM)
--------------------------------
 C      0   0   0     0.000000000000     0.00000000     0.00000000
 C      1   0   0     1.545513059311     0.00000000     0.00000000
 C      2   1   0     1.541276477307   109.92369523     0.00000000
 C      3   2   1     1.533516181167   112.39793189    54.72428486
 C      4   3   2     1.533518153202   110.89629231   304.64741632
 C      5   4   3     1.541281386834   112.39883246    55.35214069
 C      2   1   3     1.534455432295   111.81024244   235.89471825
 C      6   5   4     1.534462441443   111.27287114   180.86143447
 O      1   2   3     1.437632873755   112.79626030   175.91376527
 C      9   1   2     1.418111676033   117.46006658    64.62188622
 H      3   2   1     1.097492701752   109.30209421   177.79793324
 H      4   3   2     1.097038578492   110.24824756   182.25630919
 H      4   3   2     1.099687660656   109.41718757    65.43746201
 H      5   4   3     1.100717107889   109.25875135   294.34573286
 H      5   4   3     1.097484254375   110.50189322   177.75216688
 H      2   1   3     1.100878481259   108.13212692   116.58733059
 H      6   5   4     1.100873294526   107.08785856    62.51835769
 H      1   2   3     1.099977051852   107.60879860    63.68192893
 H     10   9   1     1.092886812849   106.04820027   180.01140753
 H     10   9   1     1.098861498461   112.61381615   298.42069900
 H     10   9   1     1.098861626366   112.61278252    61.60057477
 H      7   2   1     1.096062817543   110.71209518   181.04848190
 H      7   2   1     1.093246257757   111.76132781   301.94495083
 H      7   2   1     1.097138576161   110.69763070    61.61527524
 H      3   2   1     1.100714323156   108.90120220   293.51245087
 H      8   6   5     1.097137330192   110.69711679    61.74487471
 H      8   6   5     1.096059173357   110.71142194   302.31162353
 H      8   6   5     1.093236833673   111.76160307   181.41499956

---------------------------
INTERNAL COORDINATES (A.U.)
---------------------------
 C      0   0   0     0.000000000000     0.00000000     0.00000000
 C      1   0   0     2.920596418496     0.00000000     0.00000000
 C      2   1   0     2.912590438765   109.92369523     0.00000000
 C      3   2   1     2.897925604342   112.39793189    54.72428486
 C      4   3   2     2.897929330948   110.89629231   304.64741632
 C      5   4   3     2.912599716426   112.39883246    55.35214069
 C      2   1   3     2.899700531746   111.81024244   235.89471825
 C      6   5   4     2.899713777116   111.27287114   180.86143447
 O      1   2   3     2.716732412518   112.79626030   175.91376527
 C      9   1   2     2.679842695018   117.46006658    64.62188622
 H      3   2   1     2.073960640290   109.30209421   177.79793324
 H      4   3   2     2.073102471696   110.24824756   182.25630919
 H      4   3   2     2.078108511493   109.41718757    65.43746201
 H      5   4   3     2.080053884832   109.25875135   294.34573286
 H      5   4   3     2.073944677059   110.50189322   177.75216688
 H      2   1   3     2.080358836307   108.13212692   116.58733059
 H      6   5   4     2.080349034801   107.08785856    62.51835769
 H      1   2   3     2.078655381598   107.60879860    63.68192893
 H     10   9   1     2.065256771659   106.04820027   180.01140753
 H     10   9   1     2.076547291202   112.61381615   298.42069900
 H     10   9   1     2.076547532907   112.61278252    61.60057477
 H      7   2   1     2.071258550730   110.71209518   181.04848190
 H      7   2   1     2.065936024095   111.76132781   301.94495083
 H      7   2   1     2.073291439904   110.69763070    61.61527524
 H      3   2   1     2.080048622449   108.90120220   293.51245087
 H      8   6   5     2.073289085364   110.69711679    61.74487471
 H      8   6   5     2.071251664217   110.71142194   302.31162353
 H      8   6   5     2.065918215158   111.76160307   181.41499956

---------------------
BASIS SET INFORMATION
---------------------
There are 3 groups of distinct atoms

 Group   1 Type C   : 18s5p2d1f contracted to 4s3p2d1f pattern {8811/311/11/1}
 Group   2 Type O   : 18s5p2d1f contracted to 4s3p2d1f pattern {8811/311/11/1}
 Group   3 Type H   : 5s2p1d contracted to 3s2p1d pattern {311/11/1}

Atom   0C    basis set group =>   1
Atom   1C    basis set group =>   1
Atom   2C    basis set group =>   1
Atom   3C    basis set group =>   1
Atom   4C    basis set group =>   1
Atom   5C    basis set group =>   1
Atom   6C    basis set group =>   1
Atom   7C    basis set group =>   1
Atom   8O    basis set group =>   2
Atom   9C    basis set group =>   1
Atom  10H    basis set group =>   3
Atom  11H    basis set group =>   3
Atom  12H    basis set group =>   3
Atom  13H    basis set group =>   3
Atom  14H    basis set group =>   3
Atom  15H    basis set group =>   3
Atom  16H    basis set group =>   3
Atom  17H    basis set group =>   3
Atom  18H    basis set group =>   3
Atom  19H    basis set group =>   3
Atom  20H    basis set group =>   3
Atom  21H    basis set group =>   3
Atom  22H    basis set group =>   3
Atom  23H    basis set group =>   3
Atom  24H    basis set group =>   3
Atom  25H    basis set group =>   3
Atom  26H    basis set group =>   3
Atom  27H    basis set group =>   3
-------------------------------
AUXILIARY BASIS SET INFORMATION
-------------------------------
There are 3 groups of distinct atoms

 Group   1 Type C   : 8s6p5d3f1g contracted to 8s6p5d3f1g pattern {11111111/111111/11111/111/1}
 Group   2 Type O   : 8s6p5d3f1g contracted to 8s6p5d3f1g pattern {11111111/111111/11111/111/1}
 Group   3 Type H   : 4s3p2d1f contracted to 4s3p2d1f pattern {1111/111/11/1}

Atom   0C    basis set group =>   1
Atom   1C    basis set group =>   1
Atom   2C    basis set group =>   1
Atom   3C    basis set group =>   1
Atom   4C    basis set group =>   1
Atom   5C    basis set group =>   1
Atom   6C    basis set group =>   1
Atom   7C    basis set group =>   1
Atom   8O    basis set group =>   2
Atom   9C    basis set group =>   1
Atom  10H    basis set group =>   3
Atom  11H    basis set group =>   3
Atom  12H    basis set group =>   3
Atom  13H    basis set group =>   3
Atom  14H    basis set group =>   3
Atom  15H    basis set group =>   3
Atom  16H    basis set group =>   3
Atom  17H    basis set group =>   3
Atom  18H    basis set group =>   3
Atom  19H    basis set group =>   3
Atom  20H    basis set group =>   3
Atom  21H    basis set group =>   3
Atom  22H    basis set group =>   3
Atom  23H    basis set group =>   3
Atom  24H    basis set group =>   3
Atom  25H    basis set group =>   3
Atom  26H    basis set group =>   3
Atom  27H    basis set group =>   3
-------------------------------
AUXILIARY BASIS SET INFORMATION
-------------------------------
There are 3 groups of distinct atoms

 Group   1 Type C   : 10s7p5d2f1g contracted to 10s7p5d2f1g pattern {1111111111/1111111/11111/11/1}
 Group   2 Type O   : 10s7p5d2f1g contracted to 10s7p5d2f1g pattern {1111111111/1111111/11111/11/1}
 Group   3 Type H   : 4s3p2d1f contracted to 4s3p2d1f pattern {1111/111/11/1}

Atom   0C    basis set group =>   1
Atom   1C    basis set group =>   1
Atom   2C    basis set group =>   1
Atom   3C    basis set group =>   1
Atom   4C    basis set group =>   1
Atom   5C    basis set group =>   1
Atom   6C    basis set group =>   1
Atom   7C    basis set group =>   1
Atom   8O    basis set group =>   2
Atom   9C    basis set group =>   1
Atom  10H    basis set group =>   3
Atom  11H    basis set group =>   3
Atom  12H    basis set group =>   3
Atom  13H    basis set group =>   3
Atom  14H    basis set group =>   3
Atom  15H    basis set group =>   3
Atom  16H    basis set group =>   3
Atom  17H    basis set group =>   3
Atom  18H    basis set group =>   3
Atom  19H    basis set group =>   3
Atom  20H    basis set group =>   3
Atom  21H    basis set group =>   3
Atom  22H    basis set group =>   3
Atom  23H    basis set group =>   3
Atom  24H    basis set group =>   3
Atom  25H    basis set group =>   3
Atom  26H    basis set group =>   3
Atom  27H    basis set group =>   3


           ************************************************************
           *        Program running with 8 parallel MPI-processes     *
           *              working on a common directory               *
           ************************************************************
------------------------------------------------------------------------------
                           ORCA GTO INTEGRAL CALCULATION
                           -- RI-GTO INTEGRALS CHOSEN --
------------------------------------------------------------------------------

                         BASIS SET STATISTICS AND STARTUP INFO

Gaussian basis set:
 # of primitive gaussian shells          ...  404
 # of primitive gaussian functions       ...  788
 # of contracted shells                  ...  208
 # of contracted basis functions         ...  552
 Highest angular momentum                ...    3
 Maximum contraction depth               ...    8
Auxiliary gaussian basis set:
 # of primitive gaussian shells          ...  430
 # of primitive gaussian functions       ... 1330
 # of contracted shells                  ...  430
 # of contracted aux-basis functions     ... 1330
 Highest angular momentum                ...    4
 Maximum contraction depth               ...    1
Ratio of auxiliary to basis functions    ...  2.41
Integral package used                  ... LIBINT
 One Electron integrals                  ... done
 Ordering auxiliary basis shells         ... done
 Integral threshhold             Thresh  ...  2.500e-11
 Primitive cut-off               TCut    ...  2.500e-12
 Pre-screening matrix                    ... done
 Shell pair data                         ... 
 Ordering of the shell pairs             ... done (   0.004 sec) 19679 of 21736 pairs
 Determination of significant pairs      ... done (   0.000 sec)
 Creation of shell pair data             ... done (   0.004 sec)
 Storage of shell pair data              ... done (   0.005 sec)
 Shell pair data done in (   0.013 sec)
 Computing two index integrals           ... done
 Cholesky decomposition of the V-matrix  ... done


Timings:
 Total evaluation time                   ...   0.972 sec (  0.016 min)
 One electron matrix time                ...   0.283 sec (  0.005 min) = 29.2%
 Schwartz matrix evaluation time         ...   0.374 sec (  0.006 min) = 38.5%
 Two index repulsion integral time       ...   0.118 sec (  0.002 min) = 12.2%
 Cholesky decomposition of V             ...   0.156 sec (  0.003 min) = 16.0%
 Three index repulsion integral time     ...   0.000 sec (  0.000 min) =  0.0%



           ************************************************************
           *        Program running with 8 parallel MPI-processes     *
           *              working on a common directory               *
           ************************************************************
-------------------------------------------------------------------------------
                                 ORCA SCF
-------------------------------------------------------------------------------

------------
SCF SETTINGS
------------
Hamiltonian:
 Ab initio Hamiltonian  Method          .... Hartree-Fock(GTOs)
 RI-approximation to the Coulomb term is turned on
   Number of auxiliary basis functions  .... 1330
   RI-JK (J+K treated both via RI)      .... on


General Settings:
 Integral files         IntName         .... cis_2_6_DiMe_cyclOMe_anti
 Hartree-Fock type      HFTyp           .... RHF
 Total Charge           Charge          ....    0
 Multiplicity           Mult            ....    1
 Number of Electrons    NEL             ....   80
 Basis Dimension        Dim             ....  552
 Nuclear Repulsion      ENuc            ....    600.6714609325 Eh

Convergence Acceleration:
 DIIS                   CNVDIIS         .... off
 Newton-Raphson         CNVNR           .... off
 SOSCF                  CNVSOSCF        .... on
   Start iteration      SOSCFMaxIt      ....   150
   Startup grad/error   SOSCFStart      ....  0.003300
 Level Shifting         CNVShift        .... on
   Level shift para.    LevelShift      ....    0.2000
   Turn off err/grad.   ShiftErr        ....    0.1000
 Zerner damping         CNVZerner       .... off
 Static damping         CNVDamp         .... off
 Fernandez-Rico         CNVRico         .... off

SCF Procedure:
 Maximum # iterations   MaxIter         ....   300
 SCF integral mode      SCFMode         .... Direct
   Integral package                     .... LIBINT
 Reset frequency        DirectResetFreq ....    20
 Integral Threshold     Thresh          ....  2.500e-11 Eh
 Primitive CutOff       TCut            ....  2.500e-12 Eh

Convergence Tolerance:
 Convergence Check Mode ConvCheckMode   .... Total+1el-Energy
 Convergence forced     ConvForced      .... 1
 Energy Change          TolE            ....  1.000e-08 Eh
 1-El. energy change                    ....  1.000e-05 Eh
 Orbital Gradient       TolG            ....  1.000e-05
 Orbital Rotation angle TolX            ....  1.000e-05


Diagonalization of the overlap matrix:
Smallest eigenvalue                        ... 1.915e-04
Time for diagonalization                   ...    0.063 sec
Threshold for overlap eigenvalues          ... 1.000e-08
Number of eigenvalues below threshold      ... 0
Time for construction of square roots      ...    0.086 sec
Total time needed                          ...    0.150 sec

-------------------
DFT GRID GENERATION
-------------------

General Integration Accuracy     IntAcc      ...  4.340
Radial Grid Type                 RadialGrid  ... Gauss-Chebyshev
Angular Grid (max. acc.)         AngularGrid ... Lebedev-110
Angular grid pruning method      GridPruning ... 3 (G Style)
Weight generation scheme         WeightScheme... Becke
Basis function cutoff            BFCut       ...    1.0000e-11
Integration weight cutoff        WCut        ...    1.0000e-14
Grids for H and He will be reduced by one unit

# of grid points (after initial pruning)     ...  30912 (   0.0 sec)
# of grid points (after weights+screening)   ...  27571 (   0.0 sec)
nearest neighbour list constructed           ...    0.0 sec
Grid point re-assignment to atoms done       ...    0.0 sec
Grid point division into batches done        ...    0.0 sec
Reduced shell lists constructed in    0.3 sec

Total number of grid points                  ...    27571
Total number of batches                      ...      446
Average number of points per batch           ...       61
Average number of grid points per atom       ...      985
Average number of shells per batch           ...   166.05 (79.83%)
Average number of basis functions per batch  ...   428.16 (77.56%)
Average number of large shells per batch     ...   126.65 (76.27%)
Average number of large basis fcns per batch ...   322.02 (75.21%)
Average number of aux-shells per batch       ...   166.05 (38.62%)
Average number of aux functions per batch    ...   428.16 (32.19%)
Maximum spatial batch extension              ...   2.38,  2.45,  2.41 au
Average spatial batch extension              ...   0.19,  0.20,  0.18 au

Time for grid setup =    0.310 sec

------------------------------
INITIAL GUESS: MODEL POTENTIAL
------------------------------
Loading Hartree-Fock densities                     ... done
Calculating cut-offs                               ... done
Setting up the integral package                    ... done
Initializing the effective Hamiltonian             ... done
Starting the Coulomb interaction                   ... done (   0.2 sec)
Reading the grid                                   ... done
Mapping shells                                     ... done
Starting the XC term evaluation                    ... done (   0.1 sec)
Transforming the Hamiltonian                       ... done (   0.0 sec)
Diagonalizing the Hamiltonian                      ... done (   0.1 sec)
Back transforming the eigenvectors                 ... done (   0.0 sec)
Now organizing SCF variables                       ... done
                      ------------------
                      INITIAL GUESS DONE (   0.9 sec)
                      ------------------
--------------
SCF ITERATIONS
--------------
ITER       Energy         Delta-E        Max-DP      RMS-DP      [F,P]   Gradient Norm
                             ****Turning on KDIIS(Cayley)****
  0   -425.7681158196   0.000000000000 0.01049553  0.00019361  0.1371093   0.147029961
  1   -425.9130032751  -0.144887455511 0.01819174  0.00023609  0.1255709   0.128085577
  2   -426.0394056386  -0.126402363532 0.03011826  0.00041116  0.1010220   0.103954423
  3   -426.1958925326  -0.156486893965 0.04552795  0.00065320  0.0607784   0.063819247
                      *** Initiating the SOSCF procedure ***
                           *** Shutting down KDIIS ***
                      *** Re-Reading the Fockian *** 
                      *** Removing any level shift *** 
ITER      Energy       Delta-E        Grad      Rot      Max-DP    RMS-DP
  4   -426.29585522  -0.0999626875  0.002128  0.002128  0.002099  0.000051
  5   -426.29626707  -0.0004118526  0.000724  0.000980  0.001543  0.000030
  6   -426.29631000  -0.0000429246  0.000314  0.000249  0.000723  0.000014
  7   -426.29632137  -0.0000113740  0.000049  0.000065  0.000317  0.000005
  8   -426.29632167  -0.0000002960  0.000047  0.000026  0.000116  0.000002
  9   -426.29632177  -0.0000000991  0.000007  0.000004  0.000016  0.000000
                  ***Gradient check signals convergence***
              ***Rediagonalizing the Fockian in SOSCF/NRSCF***

               *****************************************************
               *                     SUCCESS                       *
               *           SCF CONVERGED AFTER  10 CYCLES          *
               *****************************************************


----------------
TOTAL SCF ENERGY
----------------

Total Energy       :         -426.29632177 Eh          -11600.11265 eV

Components:
Nuclear Repulsion  :          600.67146093 Eh           16345.10142 eV
Electronic Energy  :        -1026.96778270 Eh          -27945.21407 eV
One Electron Energy:        -1770.31216639 Eh          -48172.64310 eV
Two Electron Energy:          743.34438369 Eh           20227.42902 eV

Virial components:
Potential Energy   :         -851.83265601 Eh          -23179.54500 eV
Kinetic Energy     :          425.53633423 Eh           11579.43234 eV
Virial Ratio       :            2.00178595


---------------
SCF CONVERGENCE
---------------

  Last Energy change         ...   -4.2774e-09  Tolerance :   1.0000e-08
  Last MAX-Density change    ...    8.3418e-06  Tolerance :   1.0000e-07
  Last RMS-Density change    ...    1.7202e-07  Tolerance :   5.0000e-09
  Last Orbital Gradient      ...    1.6618e-06  Tolerance :   1.0000e-05
  Last Orbital Rotation      ...    2.2650e-06  Tolerance :   1.0000e-05

             **** THE GBW FILE WAS UPDATED (cis_2_6_DiMe_cyclOMe_anti.gbw) ****
             **** DENSITY FILE WAS UPDATED (cis_2_6_DiMe_cyclOMe_anti.scfp.tmp) ****
             **** ENERGY FILE WAS UPDATED (cis_2_6_DiMe_cyclOMe_anti.en.tmp) ****
----------------
ORBITAL ENERGIES
----------------

  NO   OCC          E(Eh)            E(eV) 
   0   2.0000     -20.544503      -559.0444 
   1   2.0000     -11.271199      -306.7049 
   2   2.0000     -11.265523      -306.5505 
   3   2.0000     -11.224072      -305.4225 
   4   2.0000     -11.224057      -305.4221 
   5   2.0000     -11.219260      -305.2916 
   6   2.0000     -11.218770      -305.2783 
   7   2.0000     -11.218398      -305.2681 
   8   2.0000     -11.207695      -304.9769 
   9   2.0000     -11.207694      -304.9769 
  10   2.0000      -1.357094       -36.9284 
  11   2.0000      -1.118423       -30.4338 
  12   2.0000      -1.045364       -28.4458 
  13   2.0000      -1.011209       -27.5164 
  14   2.0000      -0.944252       -25.6944 
  15   2.0000      -0.913704       -24.8631 
  16   2.0000      -0.890651       -24.2358 
  17   2.0000      -0.804658       -21.8958 
  18   2.0000      -0.788294       -21.4506 
  19   2.0000      -0.753519       -20.5043 
  20   2.0000      -0.661498       -18.0003 
  21   2.0000      -0.641276       -17.4500 
  22   2.0000      -0.631445       -17.1825 
  23   2.0000      -0.620823       -16.8935 
  24   2.0000      -0.597168       -16.2498 
  25   2.0000      -0.580369       -15.7927 
  26   2.0000      -0.562053       -15.2942 
  27   2.0000      -0.557794       -15.1783 
  28   2.0000      -0.540822       -14.7165 
  29   2.0000      -0.530947       -14.4478 
  30   2.0000      -0.523222       -14.2376 
  31   2.0000      -0.507154       -13.8004 
  32   2.0000      -0.495531       -13.4841 
  33   2.0000      -0.487470       -13.2647 
  34   2.0000      -0.467468       -12.7205 
  35   2.0000      -0.465146       -12.6573 
  36   2.0000      -0.449381       -12.2283 
  37   2.0000      -0.447986       -12.1903 
  38   2.0000      -0.420188       -11.4339 
  39   2.0000      -0.395528       -10.7629 
  40   0.0000       0.137621         3.7449 
  41   0.0000       0.148582         4.0431 
  42   0.0000       0.154296         4.1986 
  43   0.0000       0.157407         4.2833 
  44   0.0000       0.182822         4.9748 
  45   0.0000       0.197166         5.3652 
  46   0.0000       0.199784         5.4364 
  47   0.0000       0.205453         5.5907 
  48   0.0000       0.212709         5.7881 
  49   0.0000       0.225624         6.1395 
  50   0.0000       0.226758         6.1704 
  51   0.0000       0.234205         6.3730 
  52   0.0000       0.238512         6.4902 
  53   0.0000       0.244613         6.6563 
  54   0.0000       0.254865         6.9352 
  55   0.0000       0.271687         7.3930 
  56   0.0000       0.277250         7.5443 
  57   0.0000       0.287152         7.8138 
  58   0.0000       0.305833         8.3221 
  59   0.0000       0.307463         8.3665 
  60   0.0000       0.321810         8.7569 
  61   0.0000       0.338535         9.2120 
  62   0.0000       0.350315         9.5326 
  63   0.0000       0.352961         9.6045 
  64   0.0000       0.373440        10.1618 
  65   0.0000       0.382650        10.4124 
  66   0.0000       0.386855        10.5269 
  67   0.0000       0.402797        10.9607 
  68   0.0000       0.412244        11.2177 
  69   0.0000       0.434427        11.8214 
  70   0.0000       0.439665        11.9639 
  71   0.0000       0.454585        12.3699 
  72   0.0000       0.467032        12.7086 
  73   0.0000       0.468469        12.7477 
  74   0.0000       0.474001        12.8982 
  75   0.0000       0.492001        13.3880 
  76   0.0000       0.508725        13.8431 
  77   0.0000       0.519799        14.1445 
  78   0.0000       0.536303        14.5936 
  79   0.0000       0.546888        14.8816 
  80   0.0000       0.563290        15.3279 
  81   0.0000       0.566605        15.4181 
  82   0.0000       0.569107        15.4862 
  83   0.0000       0.577451        15.7132 
  84   0.0000       0.593957        16.1624 
  85   0.0000       0.594418        16.1749 
  86   0.0000       0.605303        16.4711 
  87   0.0000       0.615945        16.7607 
  88   0.0000       0.617985        16.8162 
  89   0.0000       0.618957        16.8427 
  90   0.0000       0.630454        17.1555 
  91   0.0000       0.635105        17.2821 
  92   0.0000       0.638041        17.3620 
  93   0.0000       0.644413        17.5354 
  94   0.0000       0.646315        17.5871 
  95   0.0000       0.654252        17.8031 
  96   0.0000       0.661050        17.9881 
  97   0.0000       0.661398        17.9975 
  98   0.0000       0.670538        18.2463 
  99   0.0000       0.672781        18.3073 
 100   0.0000       0.684363        18.6225 
 101   0.0000       0.684609        18.6292 
 102   0.0000       0.689132        18.7522 
 103   0.0000       0.702811        19.1245 
 104   0.0000       0.713048        19.4030 
 105   0.0000       0.716926        19.5086 
 106   0.0000       0.723017        19.6743 
 107   0.0000       0.727873        19.8064 
 108   0.0000       0.750325        20.4174 
 109   0.0000       0.762104        20.7379 
 110   0.0000       0.766971        20.8704 
 111   0.0000       0.777766        21.1641 
 112   0.0000       0.814839        22.1729 
 113   0.0000       0.820279        22.3209 
 114   0.0000       0.825842        22.4723 
 115   0.0000       0.847250        23.0549 
 116   0.0000       0.881356        23.9829 
 117   0.0000       0.895184        24.3592 
 118   0.0000       0.923700        25.1352 
 119   0.0000       0.925719        25.1901 
 120   0.0000       0.952319        25.9139 
 121   0.0000       0.960489        26.1362 
 122   0.0000       0.971901        26.4468 
 123   0.0000       0.985703        26.8223 
 124   0.0000       0.991880        26.9904 
 125   0.0000       1.012710        27.5572 
 126   0.0000       1.020557        27.7708 
 127   0.0000       1.032170        28.0868 
 128   0.0000       1.033306        28.1177 
 129   0.0000       1.041417        28.3384 
 130   0.0000       1.043727        28.4013 
 131   0.0000       1.059282        28.8245 
 132   0.0000       1.067024        29.0352 
 133   0.0000       1.092231        29.7211 
 134   0.0000       1.103567        30.0296 
 135   0.0000       1.116141        30.3717 
 136   0.0000       1.128894        30.7188 
 137   0.0000       1.133110        30.8335 
 138   0.0000       1.149261        31.2730 
 139   0.0000       1.157640        31.5010 
 140   0.0000       1.174040        31.9473 
 141   0.0000       1.180283        32.1171 
 142   0.0000       1.201760        32.7016 
 143   0.0000       1.211318        32.9616 
 144   0.0000       1.222352        33.2619 
 145   0.0000       1.223988        33.3064 
 146   0.0000       1.244378        33.8612 
 147   0.0000       1.247941        33.9582 
 148   0.0000       1.255104        34.1531 
 149   0.0000       1.260221        34.2924 
 150   0.0000       1.264422        34.4067 
 151   0.0000       1.290533        35.1172 
 152   0.0000       1.299622        35.3645 
 153   0.0000       1.306533        35.5526 
 154   0.0000       1.309439        35.6316 
 155   0.0000       1.328104        36.1396 
 156   0.0000       1.336380        36.3648 
 157   0.0000       1.345634        36.6166 
 158   0.0000       1.346373        36.6367 
 159   0.0000       1.351408        36.7737 
 160   0.0000       1.355228        36.8776 
 161   0.0000       1.368079        37.2273 
 162   0.0000       1.373822        37.3836 
 163   0.0000       1.386355        37.7246 
 164   0.0000       1.386595        37.7312 
 165   0.0000       1.396779        38.0083 
 166   0.0000       1.408698        38.3326 
 167   0.0000       1.415668        38.5223 
 168   0.0000       1.442640        39.2562 
 169   0.0000       1.445412        39.3317 
 170   0.0000       1.456014        39.6202 
 171   0.0000       1.460698        39.7476 
 172   0.0000       1.476746        40.1843 
 173   0.0000       1.483178        40.3593 
 174   0.0000       1.495161        40.6854 
 175   0.0000       1.504171        40.9306 
 176   0.0000       1.509153        41.0661 
 177   0.0000       1.516555        41.2676 
 178   0.0000       1.522731        41.4356 
 179   0.0000       1.524449        41.4824 
 180   0.0000       1.545590        42.0576 
 181   0.0000       1.547959        42.1221 
 182   0.0000       1.556580        42.3567 
 183   0.0000       1.559250        42.4293 
 184   0.0000       1.559595        42.4387 
 185   0.0000       1.569721        42.7143 
 186   0.0000       1.582576        43.0641 
 187   0.0000       1.583807        43.0976 
 188   0.0000       1.601973        43.5919 
 189   0.0000       1.611723        43.8572 
 190   0.0000       1.617811        44.0229 
 191   0.0000       1.618963        44.0542 
 192   0.0000       1.640952        44.6526 
 193   0.0000       1.649213        44.8774 
 194   0.0000       1.655415        45.0461 
 195   0.0000       1.683270        45.8041 
 196   0.0000       1.687329        45.9145 
 197   0.0000       1.693671        46.0871 
 198   0.0000       1.713510        46.6270 
 199   0.0000       1.718286        46.7570 
 200   0.0000       1.735746        47.2320 
 201   0.0000       1.741254        47.3819 
 202   0.0000       1.751965        47.6734 
 203   0.0000       1.764060        48.0025 
 204   0.0000       1.785601        48.5887 
 205   0.0000       1.797288        48.9067 
 206   0.0000       1.802486        49.0481 
 207   0.0000       1.823146        49.6103 
 208   0.0000       1.834466        49.9184 
 209   0.0000       1.864726        50.7418 
 210   0.0000       1.875367        51.0313 
 211   0.0000       1.888000        51.3751 
 212   0.0000       1.892915        51.5088 
 213   0.0000       1.907011        51.8924 
 214   0.0000       1.922613        52.3170 
 215   0.0000       1.927024        52.4370 
 216   0.0000       1.975743        53.7627 
 217   0.0000       1.990450        54.1629 
 218   0.0000       2.012343        54.7586 
 219   0.0000       2.033179        55.3256 
 220   0.0000       2.057396        55.9846 
 221   0.0000       2.066357        56.2284 
 222   0.0000       2.086970        56.7893 
 223   0.0000       2.103156        57.2298 
 224   0.0000       2.205873        60.0249 
 225   0.0000       2.305667        62.7404 
 226   0.0000       2.322699        63.2038 
 227   0.0000       2.361152        64.2502 
 228   0.0000       2.445261        66.5389 
 229   0.0000       2.529827        68.8401 
 230   0.0000       2.557103        69.5823 
 231   0.0000       2.570592        69.9494 
 232   0.0000       2.600735        70.7696 
 233   0.0000       2.635726        71.7218 
 234   0.0000       2.645272        71.9815 
 235   0.0000       2.655687        72.2649 
 236   0.0000       2.685400        73.0734 
 237   0.0000       2.690766        73.2195 
 238   0.0000       2.702590        73.5412 
 239   0.0000       2.704705        73.5988 
 240   0.0000       2.727615        74.2222 
 241   0.0000       2.730760        74.3077 
 242   0.0000       2.761664        75.1487 
 243   0.0000       2.801758        76.2397 
 244   0.0000       2.806154        76.3593 
 245   0.0000       2.816164        76.6317 
 246   0.0000       2.822203        76.7960 
 247   0.0000       2.861875        77.8756 
 248   0.0000       2.873397        78.1891 
 249   0.0000       2.891068        78.6700 
 250   0.0000       2.895554        78.7920 
 251   0.0000       2.917726        79.3954 
 252   0.0000       2.918655        79.4206 
 253   0.0000       2.928160        79.6793 
 254   0.0000       2.932737        79.8038 
 255   0.0000       2.935826        79.8879 
 256   0.0000       2.955325        80.4185 
 257   0.0000       2.955716        80.4291 
 258   0.0000       2.959875        80.5423 
 259   0.0000       2.980026        81.0906 
 260   0.0000       2.989074        81.3368 
 261   0.0000       2.999204        81.6125 
 262   0.0000       3.004701        81.7621 
 263   0.0000       3.043116        82.8074 
 264   0.0000       3.045318        82.8673 
 265   0.0000       3.055800        83.1525 
 266   0.0000       3.074034        83.6487 
 267   0.0000       3.076815        83.7244 
 268   0.0000       3.090030        84.0840 
 269   0.0000       3.095355        84.2289 
 270   0.0000       3.110537        84.6420 
 271   0.0000       3.125222        85.0416 
 272   0.0000       3.128270        85.1245 
 273   0.0000       3.131035        85.1998 
 274   0.0000       3.144346        85.5620 
 275   0.0000       3.156600        85.8954 
 276   0.0000       3.161883        86.0392 
 277   0.0000       3.179215        86.5108 
 278   0.0000       3.194600        86.9295 
 279   0.0000       3.196293        86.9755 
 280   0.0000       3.211320        87.3845 
 281   0.0000       3.219466        87.6061 
 282   0.0000       3.225348        87.7662 
 283   0.0000       3.236812        88.0781 
 284   0.0000       3.252315        88.5000 
 285   0.0000       3.275919        89.1423 
 286   0.0000       3.278963        89.2251 
 287   0.0000       3.294721        89.6539 
 288   0.0000       3.296303        89.6970 
 289   0.0000       3.300421        89.8090 
 290   0.0000       3.307225        89.9942 
 291   0.0000       3.313045        90.1525 
 292   0.0000       3.334472        90.7356 
 293   0.0000       3.335132        90.7535 
 294   0.0000       3.349978        91.1575 
 295   0.0000       3.367635        91.6380 
 296   0.0000       3.371009        91.7298 
 297   0.0000       3.383919        92.0811 
 298   0.0000       3.387679        92.1834 
 299   0.0000       3.398280        92.4719 
 300   0.0000       3.417015        92.9817 
 301   0.0000       3.427188        93.2585 
 302   0.0000       3.431605        93.3787 
 303   0.0000       3.436760        93.5190 
 304   0.0000       3.447792        93.8192 
 305   0.0000       3.449697        93.8710 
 306   0.0000       3.452122        93.9370 
 307   0.0000       3.463923        94.2581 
 308   0.0000       3.476154        94.5910 
 309   0.0000       3.484197        94.8098 
 310   0.0000       3.501364        95.2770 
 311   0.0000       3.503771        95.3425 
 312   0.0000       3.523542        95.8804 
 313   0.0000       3.526854        95.9706 
 314   0.0000       3.527615        95.9913 
 315   0.0000       3.533191        96.1430 
 316   0.0000       3.539403        96.3121 
 317   0.0000       3.552823        96.6772 
 318   0.0000       3.563590        96.9702 
 319   0.0000       3.566735        97.0558 
 320   0.0000       3.569239        97.1239 
 321   0.0000       3.570433        97.1564 
 322   0.0000       3.593425        97.7821 
 323   0.0000       3.614578        98.3577 
 324   0.0000       3.624080        98.6162 
 325   0.0000       3.638934        99.0204 
 326   0.0000       3.640890        99.0736 
 327   0.0000       3.667943        99.8098 
 328   0.0000       3.673853        99.9706 
 329   0.0000       3.677774       100.0773 
 330   0.0000       3.690599       100.4263 
 331   0.0000       3.695768       100.5670 
 332   0.0000       3.696568       100.5887 
 333   0.0000       3.702085       100.7389 
 334   0.0000       3.726269       101.3969 
 335   0.0000       3.736909       101.6865 
 336   0.0000       3.748336       101.9974 
 337   0.0000       3.752974       102.1236 
 338   0.0000       3.757923       102.2583 
 339   0.0000       3.759031       102.2884 
 340   0.0000       3.778815       102.8268 
 341   0.0000       3.788591       103.0928 
 342   0.0000       3.792949       103.2114 
 343   0.0000       3.805633       103.5565 
 344   0.0000       3.807702       103.6129 
 345   0.0000       3.810392       103.6860 
 346   0.0000       3.816755       103.8592 
 347   0.0000       3.838198       104.4427 
 348   0.0000       3.843287       104.5812 
 349   0.0000       3.848447       104.7216 
 350   0.0000       3.880846       105.6032 
 351   0.0000       3.887460       105.7832 
 352   0.0000       3.889435       105.8369 
 353   0.0000       3.899187       106.1023 
 354   0.0000       3.924030       106.7783 
 355   0.0000       3.937785       107.1526 
 356   0.0000       3.946703       107.3952 
 357   0.0000       3.950625       107.5020 
 358   0.0000       3.962095       107.8141 
 359   0.0000       3.966466       107.9330 
 360   0.0000       3.978305       108.2552 
 361   0.0000       3.987259       108.4988 
 362   0.0000       3.994024       108.6829 
 363   0.0000       3.994971       108.7087 
 364   0.0000       4.015144       109.2576 
 365   0.0000       4.023965       109.4977 
 366   0.0000       4.026989       109.5800 
 367   0.0000       4.058405       110.4348 
 368   0.0000       4.072999       110.8320 
 369   0.0000       4.084758       111.1519 
 370   0.0000       4.086021       111.1863 
 371   0.0000       4.095606       111.4471 
 372   0.0000       4.100844       111.5896 
 373   0.0000       4.113213       111.9262 
 374   0.0000       4.142893       112.7339 
 375   0.0000       4.149200       112.9055 
 376   0.0000       4.167525       113.4041 
 377   0.0000       4.172473       113.5388 
 378   0.0000       4.196974       114.2055 
 379   0.0000       4.200302       114.2960 
 380   0.0000       4.212681       114.6329 
 381   0.0000       4.212852       114.6375 
 382   0.0000       4.221185       114.8643 
 383   0.0000       4.226228       115.0015 
 384   0.0000       4.236580       115.2832 
 385   0.0000       4.251332       115.6846 
 386   0.0000       4.275191       116.3339 
 387   0.0000       4.281310       116.5004 
 388   0.0000       4.284425       116.5851 
 389   0.0000       4.296796       116.9218 
 390   0.0000       4.300551       117.0239 
 391   0.0000       4.327975       117.7702 
 392   0.0000       4.328011       117.7712 
 393   0.0000       4.333253       117.9138 
 394   0.0000       4.343162       118.1834 
 395   0.0000       4.348865       118.3386 
 396   0.0000       4.358798       118.6089 
 397   0.0000       4.381309       119.2215 
 398   0.0000       4.384567       119.3101 
 399   0.0000       4.391639       119.5026 
 400   0.0000       4.399269       119.7102 
 401   0.0000       4.414825       120.1335 
 402   0.0000       4.424103       120.3860 
 403   0.0000       4.435873       120.7062 
 404   0.0000       4.437512       120.7509 
 405   0.0000       4.446458       120.9943 
 406   0.0000       4.447311       121.0175 
 407   0.0000       4.468838       121.6033 
 408   0.0000       4.470478       121.6479 
 409   0.0000       4.480036       121.9080 
 410   0.0000       4.489318       122.1606 
 411   0.0000       4.495758       122.3358 
 412   0.0000       4.507257       122.6487 
 413   0.0000       4.520242       123.0020 
 414   0.0000       4.523777       123.0982 
 415   0.0000       4.531589       123.3108 
 416   0.0000       4.537648       123.4757 
 417   0.0000       4.547783       123.7515 
 418   0.0000       4.552566       123.8816 
 419   0.0000       4.570003       124.3561 
 420   0.0000       4.578815       124.5959 
 421   0.0000       4.589250       124.8798 
 422   0.0000       4.598332       125.1270 
 423   0.0000       4.603549       125.2689 
 424   0.0000       4.631113       126.0190 
 425   0.0000       4.639984       126.2604 
 426   0.0000       4.649045       126.5069 
 427   0.0000       4.659977       126.8044 
 428   0.0000       4.671717       127.1239 
 429   0.0000       4.685139       127.4891 
 430   0.0000       4.695658       127.7754 
 431   0.0000       4.708024       128.1118 
 432   0.0000       4.712406       128.2311 
 433   0.0000       4.750959       129.2802 
 434   0.0000       4.751343       129.2906 
 435   0.0000       4.762098       129.5833 
 436   0.0000       4.781778       130.1188 
 437   0.0000       4.812201       130.9467 
 438   0.0000       4.821742       131.2063 
 439   0.0000       4.829450       131.4160 
 440   0.0000       4.858295       132.2009 
 441   0.0000       4.870002       132.5195 
 442   0.0000       4.886756       132.9754 
 443   0.0000       4.890408       133.0748 
 444   0.0000       4.911878       133.6590 
 445   0.0000       4.922083       133.9367 
 446   0.0000       4.960772       134.9895 
 447   0.0000       4.997823       135.9977 
 448   0.0000       5.015453       136.4774 
 449   0.0000       5.020201       136.6066 
 450   0.0000       5.038214       137.0968 
 451   0.0000       5.043397       137.2378 
 452   0.0000       5.051005       137.4448 
 453   0.0000       5.074505       138.0843 
 454   0.0000       5.074804       138.0924 
 455   0.0000       5.083258       138.3225 
 456   0.0000       5.095069       138.6439 
 457   0.0000       5.112752       139.1251 
 458   0.0000       5.155413       140.2859 
 459   0.0000       5.160607       140.4273 
 460   0.0000       5.167026       140.6019 
 461   0.0000       5.198793       141.4664 
 462   0.0000       5.206170       141.6671 
 463   0.0000       5.224938       142.1778 
 464   0.0000       5.229360       142.2981 
 465   0.0000       5.247534       142.7927 
 466   0.0000       5.249884       142.8566 
 467   0.0000       5.253640       142.9588 
 468   0.0000       5.271967       143.4575 
 469   0.0000       5.285168       143.8167 
 470   0.0000       5.307806       144.4328 
 471   0.0000       5.323148       144.8502 
 472   0.0000       5.338793       145.2759 
 473   0.0000       5.354840       145.7126 
 474   0.0000       5.358101       145.8013 
 475   0.0000       5.381116       146.4276 
 476   0.0000       5.385148       146.5373 
 477   0.0000       5.389422       146.6536 
 478   0.0000       5.399265       146.9215 
 479   0.0000       5.419207       147.4641 
 480   0.0000       5.431755       147.8056 
 481   0.0000       5.443614       148.1283 
 482   0.0000       5.464648       148.7006 
 483   0.0000       5.465645       148.7278 
 484   0.0000       5.491171       149.4224 
 485   0.0000       5.503252       149.7511 
 486   0.0000       5.526192       150.3753 
 487   0.0000       5.535833       150.6377 
 488   0.0000       5.572206       151.6274 
 489   0.0000       5.575277       151.7110 
 490   0.0000       5.594598       152.2368 
 491   0.0000       5.603268       152.4727 
 492   0.0000       5.607917       152.5992 
 493   0.0000       5.616055       152.8206 
 494   0.0000       5.631832       153.2499 
 495   0.0000       5.636218       153.3693 
 496   0.0000       5.651158       153.7758 
 497   0.0000       5.658432       153.9738 
 498   0.0000       5.678618       154.5230 
 499   0.0000       5.709295       155.3578 
 500   0.0000       5.734335       156.0392 
 501   0.0000       5.761035       156.7657 
 502   0.0000       5.765854       156.8969 
 503   0.0000       5.768293       156.9632 
 504   0.0000       5.792052       157.6098 
 505   0.0000       5.824748       158.4995 
 506   0.0000       5.827512       158.5746 
 507   0.0000       5.852371       159.2511 
 508   0.0000       5.858506       159.4180 
 509   0.0000       5.867361       159.6590 
 510   0.0000       5.873817       159.8347 
 511   0.0000       5.897039       160.4666 
 512   0.0000       5.920563       161.1067 
 513   0.0000       5.926032       161.2555 
 514   0.0000       5.954262       162.0237 
 515   0.0000       5.973684       162.5522 
 516   0.0000       6.005491       163.4177 
 517   0.0000       6.064549       165.0248 
 518   0.0000       6.078636       165.4081 
 519   0.0000       6.136370       166.9791 
 520   0.0000       6.223521       169.3506 
 521   0.0000       6.241547       169.8411 
 522   0.0000       6.256143       170.2383 
 523   0.0000       6.294665       171.2865 
 524   0.0000       6.295619       171.3125 
 525   0.0000       6.321091       172.0056 
 526   0.0000       6.340496       172.5337 
 527   0.0000       6.346866       172.7070 
 528   0.0000       6.369353       173.3189 
 529   0.0000       6.401270       174.1874 
 530   0.0000       6.410055       174.4265 
 531   0.0000       6.457374       175.7141 
 532   0.0000       6.509493       177.1323 
 533   0.0000       6.566221       178.6760 
 534   0.0000       6.749388       183.6602 
 535   0.0000       6.847115       186.3195 
 536   0.0000       6.949799       189.1136 
 537   0.0000       7.358862       200.2448 
 538   0.0000       7.396373       201.2655 
 539   0.0000       7.578737       206.2279 
 540   0.0000       7.857662       213.8179 
 541   0.0000       8.065593       219.4760 
 542   0.0000      11.315866       307.9204 
 543   0.0000      12.033719       327.4541 
 544   0.0000      12.559785       341.7691 
 545   0.0000      13.091612       356.2409 
 546   0.0000      13.449487       365.9792 
 547   0.0000      13.696478       372.7001 
 548   0.0000      13.730770       373.6333 
 549   0.0000      13.963766       379.9734 
 550   0.0000      14.260210       388.0401 
 551   0.0000      14.320343       389.6763 

                    ********************************
                    * MULLIKEN POPULATION ANALYSIS *
                    ********************************

-----------------------
MULLIKEN ATOMIC CHARGES
-----------------------
   0 C :    0.155928
   1 C :   -0.117620
   2 C :   -0.192224
   3 C :   -0.205672
   4 C :   -0.192230
   5 C :   -0.117631
   6 C :   -0.305246
   7 C :   -0.305237
   8 O :   -0.404644
   9 C :   -0.113737
  10 H :    0.109224
  11 H :    0.110970
  12 H :    0.088511
  13 H :    0.090473
  14 H :    0.109229
  15 H :    0.103608
  16 H :    0.103612
  17 H :    0.111051
  18 H :    0.126106
  19 H :    0.075851
  20 H :    0.075853
  21 H :    0.095980
  22 H :    0.116635
  23 H :    0.089060
  24 H :    0.090477
  25 H :    0.089060
  26 H :    0.095978
  27 H :    0.116634
Sum of atomic charges:   -0.0000000

--------------------------------
MULLIKEN REDUCED ORBITAL CHARGES
--------------------------------
  0 C s       :     3.092572  s :     3.092572
      pz      :     1.030887  p :     2.533008
      px      :     0.637643
      py      :     0.864478
      dz2     :     0.050719  d :     0.204520
      dxz     :     0.033388
      dyz     :     0.020562
      dx2y2   :     0.043892
      dxy     :     0.055959
      f0      :     0.001854  f :     0.013971
      f+1     :     0.001337
      f-1     :     0.001175
      f+2     :     0.001970
      f-2     :     0.000871
      f+3     :     0.002553
      f-3     :     0.004212
  1 C s       :     3.179533  s :     3.179533
      pz      :     1.002317  p :     2.796636
      px      :     0.918560
      py      :     0.875758
      dz2     :     0.039456  d :     0.133146
      dxz     :     0.017320
      dyz     :     0.019996
      dx2y2   :     0.030150
      dxy     :     0.026223
      f0      :     0.001378  f :     0.008306
      f+1     :     0.000820
      f-1     :     0.000967
      f+2     :     0.001037
      f-2     :     0.000833
      f+3     :     0.001693
      f-3     :     0.001579
  2 C s       :     3.214496  s :     3.214496
      pz      :     0.997539  p :     2.853127
      px      :     0.892149
      py      :     0.963439
      dz2     :     0.031117  d :     0.117711
      dxz     :     0.017552
      dyz     :     0.015799
      dx2y2   :     0.026490
      dxy     :     0.026754
      f0      :     0.001295  f :     0.006890
      f+1     :     0.000789
      f-1     :     0.000552
      f+2     :     0.000880
      f-2     :     0.000509
      f+3     :     0.001493
      f-3     :     0.001373
  3 C s       :     3.222936  s :     3.222936
      pz      :     0.975196  p :     2.861971
      px      :     1.006374
      py      :     0.880401
      dz2     :     0.037175  d :     0.114040
      dxz     :     0.006647
      dyz     :     0.018311
      dx2y2   :     0.032177
      dxy     :     0.019729
      f0      :     0.001308  f :     0.006725
      f+1     :     0.000447
      f-1     :     0.000869
      f+2     :     0.000625
      f-2     :     0.000869
      f+3     :     0.001472
      f-3     :     0.001136
  4 C s       :     3.214497  s :     3.214497
      pz      :     0.997538  p :     2.853132
      px      :     0.892104
      py      :     0.963490
      dz2     :     0.031117  d :     0.117711
      dxz     :     0.017552
      dyz     :     0.015798
      dx2y2   :     0.026499
      dxy     :     0.026745
      f0      :     0.001295  f :     0.006890
      f+1     :     0.000789
      f-1     :     0.000552
      f+2     :     0.000880
      f-2     :     0.000509
      f+3     :     0.001493
      f-3     :     0.001373
  5 C s       :     3.179533  s :     3.179533
      pz      :     1.002316  p :     2.796646
      px      :     0.918569
      py      :     0.875761
      dz2     :     0.039456  d :     0.133146
      dxz     :     0.017321
      dyz     :     0.019996
      dx2y2   :     0.030161
      dxy     :     0.026212
      f0      :     0.001378  f :     0.008306
      f+1     :     0.000820
      f-1     :     0.000967
      f+2     :     0.001037
      f-2     :     0.000833
      f+3     :     0.001693
      f-3     :     0.001579
  6 C s       :     3.264924  s :     3.264924
      pz      :     0.991038  p :     2.949324
      px      :     1.017814
      py      :     0.940472
      dz2     :     0.026104  d :     0.086018
      dxz     :     0.005570
      dyz     :     0.013938
      dx2y2   :     0.026084
      dxy     :     0.014321
      f0      :     0.001196  f :     0.004981
      f+1     :     0.000402
      f-1     :     0.000484
      f+2     :     0.000420
      f-2     :     0.000513
      f+3     :     0.001299
      f-3     :     0.000667
  7 C s       :     3.264919  s :     3.264919
      pz      :     0.991040  p :     2.949321
      px      :     1.017772
      py      :     0.940509
      dz2     :     0.026108  d :     0.086017
      dxz     :     0.005569
      dyz     :     0.013933
      dx2y2   :     0.026094
      dxy     :     0.014313
      f0      :     0.001197  f :     0.004981
      f+1     :     0.000401
      f-1     :     0.000484
      f+2     :     0.000419
      f-2     :     0.000513
      f+3     :     0.001299
      f-3     :     0.000667
  8 O s       :     3.746241  s :     3.746241
      pz      :     1.439572  p :     4.620718
      px      :     1.307338
      py      :     1.873808
      dz2     :     0.012781  d :     0.035657
      dxz     :     0.007646
      dyz     :     0.003031
      dx2y2   :     0.008291
      dxy     :     0.003908
      f0      :     0.000316  f :     0.002028
      f+1     :     0.000482
      f-1     :     0.000142
      f+2     :     0.000282
      f-2     :     0.000080
      f+3     :     0.000484
      f-3     :     0.000243
  9 C s       :     3.223839  s :     3.223839
      pz      :     0.762230  p :     2.752199
      px      :     0.992372
      py      :     0.997597
      dz2     :     0.028590  d :     0.127387
      dxz     :     0.022949
      dyz     :     0.042099
      dx2y2   :     0.025246
      dxy     :     0.008503
      f0      :     0.002400  f :     0.010312
      f+1     :     0.002003
      f-1     :     0.001919
      f+2     :     0.001785
      f-2     :     0.001300
      f+3     :     0.000769
      f-3     :     0.000135
 10 H s       :     0.859687  s :     0.859687
      pz      :     0.006879  p :     0.028626
      px      :     0.010427
      py      :     0.011321
      dz2     :     0.000443  d :     0.002463
      dxz     :     0.000201
      dyz     :     0.000407
      dx2y2   :     0.000795
      dxy     :     0.000617
 11 H s       :     0.857857  s :     0.857857
      pz      :     0.007393  p :     0.028711
      px      :     0.011955
      py      :     0.009363
      dz2     :     0.000283  d :     0.002461
      dxz     :     0.000599
      dyz     :     0.000013
      dx2y2   :     0.000521
      dxy     :     0.001044
 12 H s       :     0.881812  s :     0.881812
      pz      :     0.011650  p :     0.027266
      px      :     0.007049
      py      :     0.008567
      dz2     :     0.000718  d :     0.002411
      dxz     :     0.000641
      dyz     :     0.000995
      dx2y2   :     0.000049
      dxy     :     0.000007
 13 H s       :     0.879467  s :     0.879467
      pz      :     0.010487  p :     0.027634
      px      :     0.009172
      py      :     0.007975
      dz2     :     0.000650  d :     0.002426
      dxz     :     0.000845
      dyz     :     0.000785
      dx2y2   :     0.000117
      dxy     :     0.000030
 14 H s       :     0.859681  s :     0.859681
      pz      :     0.006879  p :     0.028627
      px      :     0.010425
      py      :     0.011322
      dz2     :     0.000443  d :     0.002463
      dxz     :     0.000201
      dyz     :     0.000407
      dx2y2   :     0.000794
      dxy     :     0.000618
 15 H s       :     0.863703  s :     0.863703
      pz      :     0.010902  p :     0.029889
      px      :     0.009948
      py      :     0.009039
      dz2     :     0.000682  d :     0.002801
      dxz     :     0.000933
      dyz     :     0.001030
      dx2y2   :     0.000124
      dxy     :     0.000031
 16 H s       :     0.863699  s :     0.863699
      pz      :     0.010901  p :     0.029888
      px      :     0.009948
      py      :     0.009039
      dz2     :     0.000682  d :     0.002801
      dxz     :     0.000933
      dyz     :     0.001030
      dx2y2   :     0.000124
      dxy     :     0.000031
 17 H s       :     0.857633  s :     0.857633
      pz      :     0.013348  p :     0.028692
      px      :     0.004230
      py      :     0.011113
      dz2     :     0.000757  d :     0.002624
      dxz     :     0.000685
      dyz     :     0.001132
      dx2y2   :     0.000049
      dxy     :     0.000001
 18 H s       :     0.850602  s :     0.850602
      pz      :     0.003292  p :     0.021413
      px      :     0.009474
      py      :     0.008647
      dz2     :     0.000219  d :     0.001879
      dxz     :     0.000432
      dyz     :     0.000048
      dx2y2   :     0.000617
      dxy     :     0.000563
 19 H s       :     0.898484  s :     0.898484
      pz      :     0.007124  p :     0.023703
      px      :     0.006998
      py      :     0.009580
      dz2     :     0.000307  d :     0.001963
      dxz     :     0.000181
      dyz     :     0.000688
      dx2y2   :     0.000444
      dxy     :     0.000343
 20 H s       :     0.898481  s :     0.898481
      pz      :     0.007124  p :     0.023703
      px      :     0.006997
      py      :     0.009582
      dz2     :     0.000307  d :     0.001963
      dxz     :     0.000181
      dyz     :     0.000688
      dx2y2   :     0.000444
      dxy     :     0.000343
 21 H s       :     0.874820  s :     0.874820
      pz      :     0.007289  p :     0.027012
      px      :     0.007499
      py      :     0.012224
      dz2     :     0.000402  d :     0.002188
      dxz     :     0.000149
      dyz     :     0.000443
      dx2y2   :     0.000736
      dxy     :     0.000458
 22 H s       :     0.854323  s :     0.854323
      pz      :     0.007508  p :     0.026855
      px      :     0.011132
      py      :     0.008215
      dz2     :     0.000227  d :     0.002186
      dxz     :     0.000595
      dyz     :     0.000007
      dx2y2   :     0.000555
      dxy     :     0.000803
 23 H s       :     0.882661  s :     0.882661
      pz      :     0.010437  p :     0.026124
      px      :     0.007576
      py      :     0.008111
      dz2     :     0.000716  d :     0.002155
      dxz     :     0.000598
      dyz     :     0.000787
      dx2y2   :     0.000044
      dxy     :     0.000010
 24 H s       :     0.879462  s :     0.879462
      pz      :     0.010487  p :     0.027634
      px      :     0.009172
      py      :     0.007975
      dz2     :     0.000650  d :     0.002426
      dxz     :     0.000844
      dyz     :     0.000786
      dx2y2   :     0.000117
      dxy     :     0.000030
 25 H s       :     0.882661  s :     0.882661
      pz      :     0.010438  p :     0.026124
      px      :     0.007575
      py      :     0.008111
      dz2     :     0.000716  d :     0.002155
      dxz     :     0.000598
      dyz     :     0.000787
      dx2y2   :     0.000044
      dxy     :     0.000010
 26 H s       :     0.874822  s :     0.874822
      pz      :     0.007289  p :     0.027012
      px      :     0.007499
      py      :     0.012225
      dz2     :     0.000402  d :     0.002188
      dxz     :     0.000149
      dyz     :     0.000443
      dx2y2   :     0.000736
      dxy     :     0.000458
 27 H s       :     0.854324  s :     0.854324
      pz      :     0.007508  p :     0.026855
      px      :     0.011132
      py      :     0.008215
      dz2     :     0.000227  d :     0.002186
      dxz     :     0.000595
      dyz     :     0.000007
      dx2y2   :     0.000555
      dxy     :     0.000802


                     *******************************
                     * LOEWDIN POPULATION ANALYSIS *
                     *******************************

----------------------
LOEWDIN ATOMIC CHARGES
----------------------
   0 C :   -0.114096
   1 C :   -0.019745
   2 C :    0.064102
   3 C :    0.058599
   4 C :    0.064107
   5 C :   -0.019748
   6 C :    0.115314
   7 C :    0.115323
   8 O :    0.251275
   9 C :   -0.003506
  10 H :   -0.024128
  11 H :   -0.025724
  12 H :   -0.026714
  13 H :   -0.024103
  14 H :   -0.024133
  15 H :   -0.027601
  16 H :   -0.027601
  17 H :   -0.019544
  18 H :   -0.030815
  19 H :   -0.044444
  20 H :   -0.044445
  21 H :   -0.029374
  22 H :   -0.027806
  23 H :   -0.026952
  24 H :   -0.024105
  25 H :   -0.026951
  26 H :   -0.029375
  27 H :   -0.027811

-------------------------------
LOEWDIN REDUCED ORBITAL CHARGES
-------------------------------
  0 C s       :     2.678863  s :     2.678863
      pz      :     0.981010  p :     2.688740
      px      :     0.762274
      py      :     0.945455
      dz2     :     0.149412  d :     0.662097
      dxz     :     0.092135
      dyz     :     0.074966
      dx2y2   :     0.176294
      dxy     :     0.169289
      f0      :     0.009236  f :     0.084396
      f+1     :     0.010553
      f-1     :     0.007309
      f+2     :     0.012115
      f-2     :     0.005950
      f+3     :     0.015490
      f-3     :     0.023742
  1 C s       :     2.660742  s :     2.660742
      pz      :     0.956197  p :     2.796915
      px      :     0.922549
      py      :     0.918169
      dz2     :     0.131745  d :     0.512081
      dxz     :     0.067815
      dyz     :     0.076596
      dx2y2   :     0.125336
      dxy     :     0.110589
      f0      :     0.006226  f :     0.050007
      f+1     :     0.005196
      f-1     :     0.006859
      f+2     :     0.007355
      f-2     :     0.006103
      f+3     :     0.007258
      f-3     :     0.011011
  2 C s       :     2.657194  s :     2.657194
      pz      :     0.962546  p :     2.812809
      px      :     0.913004
      py      :     0.937259
      dz2     :     0.104146  d :     0.425865
      dxz     :     0.064389
      dyz     :     0.057150
      dx2y2   :     0.102653
      dxy     :     0.097527
      f0      :     0.005766  f :     0.040030
      f+1     :     0.004872
      f-1     :     0.003480
      f+2     :     0.006320
      f-2     :     0.004920
      f+3     :     0.006482
      f-3     :     0.008190
  3 C s       :     2.657857  s :     2.657857
      pz      :     0.955760  p :     2.818888
      px      :     0.950843
      py      :     0.912286
      dz2     :     0.126240  d :     0.424495
      dxz     :     0.025396
      dyz     :     0.073380
      dx2y2   :     0.123124
      dxy     :     0.076355
      f0      :     0.005079  f :     0.040161
      f+1     :     0.003466
      f-1     :     0.006464
      f+2     :     0.004921
      f-2     :     0.006671
      f+3     :     0.006560
      f-3     :     0.006999
  4 C s       :     2.657193  s :     2.657193
      pz      :     0.962546  p :     2.812809
      px      :     0.912990
      py      :     0.937273
      dz2     :     0.104144  d :     0.425861
      dxz     :     0.064392
      dyz     :     0.057145
      dx2y2   :     0.102685
      dxy     :     0.097495
      f0      :     0.005766  f :     0.040030
      f+1     :     0.004873
      f-1     :     0.003479
      f+2     :     0.006320
      f-2     :     0.004920
      f+3     :     0.006480
      f-3     :     0.008191
  5 C s       :     2.660737  s :     2.660737
      pz      :     0.956197  p :     2.796915
      px      :     0.922544
      py      :     0.918174
      dz2     :     0.131747  d :     0.512087
      dxz     :     0.067817
      dyz     :     0.076598
      dx2y2   :     0.125360
      dxy     :     0.110565
      f0      :     0.006226  f :     0.050008
      f+1     :     0.005196
      f-1     :     0.006860
      f+2     :     0.007356
      f-2     :     0.006102
      f+3     :     0.007256
      f-3     :     0.011013
  6 C s       :     2.659674  s :     2.659674
      pz      :     0.969754  p :     2.880249
      px      :     0.974745
      py      :     0.935750
      dz2     :     0.094479  d :     0.315490
      dxz     :     0.020852
      dyz     :     0.053696
      dx2y2   :     0.091643
      dxy     :     0.054819
      f0      :     0.004576  f :     0.029273
      f+1     :     0.003253
      f-1     :     0.003266
      f+2     :     0.003749
      f-2     :     0.005066
      f+3     :     0.005741
      f-3     :     0.003622
  7 C s       :     2.659672  s :     2.659672
      pz      :     0.969753  p :     2.880245
      px      :     0.974725
      py      :     0.935767
      dz2     :     0.094494  d :     0.315488
      dxz     :     0.020854
      dyz     :     0.053673
      dx2y2   :     0.091671
      dxy     :     0.054795
      f0      :     0.004577  f :     0.029273
      f+1     :     0.003252
      f-1     :     0.003265
      f+2     :     0.003750
      f-2     :     0.005066
      f+3     :     0.005741
      f-3     :     0.003622
  8 O s       :     3.245669  s :     3.245669
      pz      :     1.422384  p :     4.401206
      px      :     1.285058
      py      :     1.693764
      dz2     :     0.025471  d :     0.096618
      dxz     :     0.028552
      dyz     :     0.010298
      dx2y2   :     0.019759
      dxy     :     0.012538
      f0      :     0.001233  f :     0.005232
      f+1     :     0.000883
      f-1     :     0.000593
      f+2     :     0.000853
      f-2     :     0.000265
      f+3     :     0.000643
      f-3     :     0.000764
  9 C s       :     2.684515  s :     2.684515
      pz      :     0.826014  p :     2.780892
      px      :     0.951747
      py      :     1.003131
      dz2     :     0.120026  d :     0.471865
      dxz     :     0.078290
      dyz     :     0.165680
      dx2y2   :     0.087185
      dxy     :     0.020684
      f0      :     0.017258  f :     0.066234
      f+1     :     0.015146
      f-1     :     0.010458
      f+2     :     0.006696
      f-2     :     0.010272
      f+3     :     0.004106
      f-3     :     0.002297
 10 H s       :     0.843901  s :     0.843901
      pz      :     0.044674  p :     0.152108
      px      :     0.044081
      py      :     0.063353
      dz2     :     0.005295  d :     0.028119
      dxz     :     0.002244
      dyz     :     0.006400
      dx2y2   :     0.007421
      dxy     :     0.006759
 11 H s       :     0.845087  s :     0.845087
      pz      :     0.039911  p :     0.152681
      px      :     0.072851
      py      :     0.039919
      dz2     :     0.003198  d :     0.027955
      dxz     :     0.008617
      dyz     :     0.000097
      dx2y2   :     0.006961
      dxy     :     0.009081
 12 H s       :     0.847117  s :     0.847117
      pz      :     0.073787  p :     0.151581
      px      :     0.038814
      py      :     0.038979
      dz2     :     0.009544  d :     0.028016
      dxz     :     0.008732
      dyz     :     0.009218
      dx2y2   :     0.000464
      dxy     :     0.000059
 13 H s       :     0.844941  s :     0.844941
      pz      :     0.073340  p :     0.151051
      px      :     0.039460
      py      :     0.038252
      dz2     :     0.009170  d :     0.028110
      dxz     :     0.008719
      dyz     :     0.009166
      dx2y2   :     0.000810
      dxy     :     0.000246
 14 H s       :     0.843901  s :     0.843901
      pz      :     0.044676  p :     0.152112
      px      :     0.044070
      py      :     0.063366
      dz2     :     0.005295  d :     0.028120
      dxz     :     0.002241
      dyz     :     0.006403
      dx2y2   :     0.007420
      dxy     :     0.006761
 15 H s       :     0.841415  s :     0.841415
      pz      :     0.076252  p :     0.157269
      px      :     0.042248
      py      :     0.038769
      dz2     :     0.009774  d :     0.028918
      dxz     :     0.008930
      dyz     :     0.009312
      dx2y2   :     0.000761
      dxy     :     0.000142
 16 H s       :     0.841413  s :     0.841413
      pz      :     0.076252  p :     0.157270
      px      :     0.042247
      py      :     0.038771
      dz2     :     0.009774  d :     0.028918
      dxz     :     0.008930
      dyz     :     0.009312
      dx2y2   :     0.000761
      dxy     :     0.000142
 17 H s       :     0.846899  s :     0.846899
      pz      :     0.080417  p :     0.144145
      px      :     0.026704
      py      :     0.037024
      dz2     :     0.010477  d :     0.028499
      dxz     :     0.007250
      dyz     :     0.009893
      dx2y2   :     0.000662
      dxy     :     0.000218
 18 H s       :     0.860753  s :     0.860753
      pz      :     0.028524  p :     0.143049
      px      :     0.074273
      py      :     0.040253
      dz2     :     0.002588  d :     0.027012
      dxz     :     0.007346
      dyz     :     0.000644
      dx2y2   :     0.007339
      dxy     :     0.009095
 19 H s       :     0.871531  s :     0.871531
      pz      :     0.042223  p :     0.146406
      px      :     0.039341
      py      :     0.064842
      dz2     :     0.004679  d :     0.026506
      dxz     :     0.003027
      dyz     :     0.007173
      dx2y2   :     0.006501
      dxy     :     0.005127
 20 H s       :     0.871534  s :     0.871534
      pz      :     0.042212  p :     0.146405
      px      :     0.039330
      py      :     0.064863
      dz2     :     0.004676  d :     0.026506
      dxz     :     0.003022
      dyz     :     0.007175
      dx2y2   :     0.006499
      dxy     :     0.005133
 21 H s       :     0.850751  s :     0.850751
      pz      :     0.044528  p :     0.150981
      px      :     0.044777
      py      :     0.061676
      dz2     :     0.005014  d :     0.027642
      dxz     :     0.002150
      dyz     :     0.006416
      dx2y2   :     0.007702
      dxy     :     0.006360
 22 H s       :     0.845939  s :     0.845939
      pz      :     0.040649  p :     0.153920
      px      :     0.073438
      py      :     0.039833
      dz2     :     0.002842  d :     0.027946
      dxz     :     0.008918
      dyz     :     0.000060
      dx2y2   :     0.006940
      dxy     :     0.009186
 23 H s       :     0.849162  s :     0.849162
      pz      :     0.071796  p :     0.150094
      px      :     0.040485
      py      :     0.037813
[...]

Processing maps (0.0 sec)
Average map sizes:
   Aux shells -> MOs              30.0
   Aux shells -> PAOs            552.0
   MOs        -> AO shells       192.8
   PAOs       -> AO shells       207.8

Calculating integrals (2.0 sec, 170.578 MB)
Sorting integrals (0.3 sec, 170.563 MB)
Total time for the integral transformation: 2.3 sec
--------------------------------
INITIAL GUESS AND PNO GENERATION
--------------------------------

PNO truncation parameters                   .... 
    ScaleTCutPNO       =        1.000e-02
    PAOOverlapThresh   =        1.000e-08

    TCutPairs          =        1.000e-05
    TCutPNO            =        1.000e-07
    TCutPNOSingles     =        3.000e-09
    TCutMP2Pairs       =        1.000e-06
    TCutMKN            =        1.000e-03
    TCutDO             =        5.000e-03

Pair selection                          .... not used
Type of local MP2 treatment                 .... full local PMP2
Strategy for PNO selection                  .... occupation number selection
Pair density normalization                  .... MP2 norm
Spin component scaling                      .... not used

PASS-1: Formation of initial guess LMP2 amplitudes
Initial amplitudes guess done. Entering LMP2 iteration loop:
   Max. no of iterations          ...  50
   Energy convergence tolerance   ...    1.0e-07
   Residual convergence tolerance ...    5.0e-07
   Fock matrix cutoff             ...    1.0e-05 Eh
   DIIS convergence acceleration parameters:
        Max # vectors in DIIS     ... 7
        Start iteration of DIIS   ... 0
        Levelshift                ... 2.000e-01
        Damping factor 1          ... 5.000e-01
        Damping factor 2          ... 1.000e+00
   L-MP2 PNO cut-off              ...   1.0e-09
   L-MP2 PNO cut-off (core)       ...   1.0e-11
                           *** Turning on DIIS ***
LMP2-Iter=   0:  ELMP2= -1.787018758488  DE=   3.2e-02 RMAX=   4.1e-03
LMP2-Iter=   1:  ELMP2= -1.803316628336  DE=   1.6e-02 RMAX=   3.3e-03
LMP2-Iter=   2:  ELMP2= -1.805770439068  DE=   2.5e-03 RMAX=   5.4e-04
LMP2-Iter=   3:  ELMP2= -1.806012904224  DE=   2.4e-04 RMAX=   2.7e-04
LMP2-Iter=   4:  ELMP2= -1.806025299278  DE=   1.2e-05 RMAX=   3.0e-05
LMP2-Iter=   5:  ELMP2= -1.806022972349  DE=   2.3e-06 RMAX=   1.1e-05
LMP2-Iter=   6:  ELMP2= -1.806022615409  DE=   3.6e-07 RMAX=   9.5e-07
LMP2-Iter=   7:  ELMP2= -1.806022585552  DE=   3.0e-08 RMAX=   2.6e-07
LMP2-Iter=   8:  ELMP2= -1.806022592921  DE=   7.4e-09 RMAX=   3.5e-08 => CONVERGED
PASS-2: Formation of Pair natural orbitals
   .... Finished loop over pairs

 PNO Occupation Number Statistics: 
  | Av. % of trace(Dij) retained        ...  99.116553131720
  | sigma^2 in % of trace(Dij) retained ...   8.84e-01
  | Av. % of trace(Di) retained         ...  99.999697112623
  | sigma^2 in % of trace(Di) retained  ...   9.39e-09
 Distributions of % trace(Dij) recovered:
  |       >= 99.9  ...    90 ( 19.4 % of all pairs)
  |   [90.0, 99.0) ...   149 ( 32.0 % of all pairs)
  |   [99.0, 99.9) ...   226 ( 48.6 % of all pairs)
 Distributions of % trace(Di) recovered :
  |       >= 99.9  ...    30 (100.0 % of all I-pairs )

Making pair pair interaction lists          ... done

                       ===========================
                        450 OF  465 PAIRS ARE KEPT
                       ===========================

Total time spent in the initial guess                 ...    76.445 sec
L-MP2 correlation energy (all non-screened pairs)     ...      -1.806022592921 Eh
L-MP2 PNO error correction                            ...      -0.000061682729 Eh
                                                          --------------------
Initial total L-MP2 energy (non-screened pairs)       ...      -1.806084275650 Eh

Initial PNO correlation energy                        ...      -1.803807129400 Eh
sum of pair energies estimated for screened out pairs ...       0.000000000000 Eh
sum of MP2 pair energies for pairs that were not kept ...      -0.000137734844 Eh
sum of PNO error estimates for the kept pairs         ...      -0.002170132416 Eh
                                                          --------------------
sum of all corrections                                         -0.002307867260
Initial total correlation energy                               -1.806114996660
Thresholds for map construction and integral transformation for fine MP2 and CCSD(T) calculation:
   TCutMKN   ...     1.0e-03
   TCutDO    ...     5.0e-03
   TCutPairs ...     1.0e-05
   TCutCMO   ...     1.0e-03
   TCutCPAO  ...     1.0e-03

Time for aux screen maps:            0.014
Time for maps after fine MP2:            0.045
-----------------------------
LOCAL RI TRANSFORMATION (IJV)
-----------------------------

Orbital window:      10 to 39
Basis functions:    552 (208 shells)
Aux. functions:    1350 (410 shells)

Processing maps (0.0 sec)
Average map sizes:
   Aux shells -> MOs(i)           30.0
   Aux shells -> MOs(j)           30.0
   MOs        -> AO shells       192.8

Calculating integrals (1.7 sec, 9.285 MB)
Sorting integrals (0.0 sec, 9.270 MB)
Total time for the integral transformation: 1.8 sec
--------------------------------
LOCAL RI TRANSFORMATION (VABPAO)
--------------------------------

Number of PAOs:     552
Basis functions:    552 (208 shells)
Aux. functions:    1350 (410 shells)

Processing maps (0.0 sec)
Average map sizes:
   Aux shells -> PAOs            552.0
   PAOs       -> AO shells       207.8

Calculating integrals (9.4 sec, 5909.434 MB)
Finished


-------------------------------------
Pair Pair Term precalculation with     
RI-(ij|mn) and (im|jn) transformation  
ON THE FLY                             
-------------------------------------

   IBatch   1 (of   3)              ... done (  134.194 sec)
   IBatch   2 (of   3)              ... done (  154.215 sec)
   IBatch   3 (of   3)              ... done (  132.285 sec)
Total EXT                           ...         420.700 sec

---------------------
RI-PNO TRANSFORMATION
---------------------

Total Number of PNOs                   ... 15418
Average number of PNOs per pair        ...    34
Maximal number of PNOs per pair        ...    71
   #pairs with  1 -  5 PNOs   :    0
   #pairs with  6 - 10 PNOs   :   60
   #pairs with 11 - 15 PNOs   :   52
   #pairs with 16 - 20 PNOs   :   30
   #pairs with 21 - 25 PNOs   :   26
   #pairs with 26 - 30 PNOs   :   58
   #pairs with 31 - 35 PNOs   :   34
   #pairs with 36 - 40 PNOs   :   14
   #pairs with 41 - 45 PNOs   :    8
   #pairs with 46 - 50 PNOs   :   51
   #pairs with 51 - 55 PNOs   :   48
   #pairs with 56 - 60 PNOs   :    6
   #pairs with 61 - 65 PNOs   :   21
   #pairs with 66 - 70 PNOs   :   37
   #pairs with 71 - 75 PNOs   :    5

Generation of (ij|ab)[P] integrals            ... on
Generation of (ia|bc)[P],(ja|bc)[P] integrals ... on
Storage of 3 and 4 external integrals         ... on
Generation of ALL (ka|bc)[P] integrals        ... on
Keep RI integrals in memory                   ... off

Ibatch:  1 (of  1)
Starting 2-4 index PNO integral generation ... done

Timings:
Total PNO integral transformation time     ...        193.267 sec
Size of the 3-external file                ...       288 MB
Size of the 4-external file                ...      2081 MB
Size of the IKJL file                      ...         0 MB
Size of the all 3-external file            ...      4320 MB
Size of the 1-external file                ...        10 MB

Making pair/pair overlap matrices          ... done (   37.542 sec)
Size of the pair overlap file              ... 1261 MB
Redoing the guess amplitudes               ... done (    0.195 sec)

-------------------------
FINAL STARTUP INFORMATION
-------------------------

E(0)                                       ...   -426.296321771
E(L-MP2)                                   ...     -1.806084276
E(L-MP2) including corrections             ...     -1.806114997
Initial E(tot)                             ...   -428.102436768
<T|T>                                      ...      0.501208663
Number of pairs included                   ... 450
Total number of pairs                      ... 465

------------------------------------------------
                  RHF COUPLED CLUSTER ITERATIONS
------------------------------------------------

Number of PNO amplitudes to be optimized   ...       703336
Number of non-PNO amplitudes               ...    117964800
Untruncated number of regular amplitudes   ...    121896960

Iter       E(tot)           E(Corr)          Delta-E          Residual     Time
  0   -428.050574167     -1.751944529      0.054139747      0.015507357   28.43
                           *** Turning on DIIS ***
  1   -428.133099570     -1.834469932     -0.082525403      0.008303303   28.87
  2   -428.179682249     -1.881052611     -0.046582679      0.002051173   26.63
  3   -428.188105286     -1.889475648     -0.008423037      0.001249720   30.61
  4   -428.189819378     -1.891189739     -0.001714092      0.000471649   30.73
  5   -428.190130199     -1.891500561     -0.000310821      0.000207244   30.67
  6   -428.190204556     -1.891574918     -0.000074357      0.000097340   30.57
  7   -428.190215994     -1.891586355     -0.000011437      0.000048198   30.78
  8   -428.190217510     -1.891587872     -0.000001516      0.000017757   30.61
  9   -428.190216238     -1.891586599      0.000001272      0.000005731   30.58
               --- The Coupled-Cluster iterations have converged ---

----------------------
COUPLED CLUSTER ENERGY
----------------------

E(0)                                       ...   -426.296321771
E(CORR)(strong-pairs)                      ...     -1.891586599
E(CORR)(weak-pairs)                        ...     -0.002307867
E(CORR)(corrected)                         ...     -1.893894467
E(TOT)                                     ...   -428.190216238
Singles Norm <S|S>**1/2                    ...      0.070426922  
T1 diagnostic                              ...      0.009092077  

------------------
LARGEST AMPLITUDES
------------------
  20-> 40  20-> 40       0.036546
  19-> 50  19-> 50       0.029369
  18-> 50  18-> 50       0.029367
  27-> 40  27-> 40       0.028964
  28-> 40  28-> 40       0.028963
  25-> 40  25-> 40       0.028701
  36-> 40  36-> 40       0.028700
  24-> 40  24-> 40       0.028482
  32-> 40  32-> 40       0.028254
  31-> 40  31-> 40       0.028253
  21-> 40  21-> 40       0.028222
  29-> 40  29-> 40       0.027771
  35-> 40  35-> 40       0.027371
  37-> 40  37-> 40       0.027371
  22-> 40  22-> 40       0.027302
  26-> 40  26-> 40       0.027301


-------------------------------------------
DLPNO BASED TRIPLES CORRECTION
-------------------------------------------

Singles multiplier          ...  1.000000
TCutTNO                     ... 1.000e-09
TCutMP2Pairs                ... 1.000e-06
TCutDOStrong                ... 1.000e-02
TCutMKNStrong               ... 1.000e-02
TCutDOWeak                  ... 2.000e-02
TCutMKNWeak                 ... 1.000e-01

Fragment selection                          .... not used
Number of Triples that are to be computed   ...      4874

 . . . . . . . . .
10% done  
20% done  
30% done  
40% done  
50% done  
60% done               (   1070.320 sec)
 . . . . . . . . .
70% done  
80% done  
90% done               (    496.179 sec)
Triples timings:
Total time for T0               ...  1679.838 sec
Total time for Iterative (T)    ...     0.000 sec
Total time of overall (T)       ...  1826.152 sec

Triples List generation         ...     0.000 sec
TNO generation                  ...   113.237 sec
Pair density generation         ...     0.029 sec
Look up tables                  ...     0.015 sec
Generating 3-index integrals    ...  1320.032 sec
  Make 4-ind.int. from 3-ind.int...    54.181 sec
  Projecting amplitudes (D + S) ...   132.846 sec
  Downprojecting integrals      ...     0.010 sec
  Energy contr. (sum over a,b,c)...    15.888 sec
Fitting ET(->0)                 ...     0.000 sec

Everything after 3-index        ...   246.467 sec

Timing details:
 TNO integrals                  ...  1369.526 sec
   Reading 3-index integrals    ...    15.237 sec
   Sorting integrals            ...   104.594 sec
       Sorting integrals 1      ...     0.007 sec
       Sorting integrals 2      ...    84.060 sec
       Sorting integrals 3      ...     1.923 sec
       Sorting integrals 4      ...     0.378 sec
       Sorting integrals 5      ...     1.030 sec
       Sorting integrals 6      ...    17.196 sec
   Calculating local VM**-1/2   ...     2.598 sec
   Orthogonal. integrals        ...     3.366 sec
   Multipl. 3-index integrals   ...  1243.731 sec
   All concerning IRIab (w/TNO) ...    29.408 sec

 Calculate W0/W1                ...    43.458 sec
 W 3-ext contribution           ...    22.496 sec
 W 3-int contribution           ...     7.976 sec
 Sorting W                      ...    12.346 sec

 V exchange contribution        ...     5.300 sec

 Timings for Triples without generation
     of 3-index integrals       ...   246.395 sec
       0 weak pairs             ...   234.491 sec
       1 weak pair              ...    11.904 sec
       2 weak pairs             ...     0.000 sec
       3 weak pairs             ...     0.000 sec
  Extra time for extrapolation  ...     0.000 sec

Number of Triples   (0, 1, 2, 3 weak pairs; overall):   4506     368       0       0  (  4874)
Number of Atoms     (0, 1, 2, 3 weak pairs; overall):   24.5    20.5     0.0     0.0  (    28)
Number of PAOs      (0, 1, 2, 3 weak pairs; overall):  496.9   432.8     0.0     0.0  (   552)
Number of AuxFcns   (0, 1, 2, 3 weak pairs; overall):  472.2   349.7     0.0     0.0  (  1350)
Number of TNOs      (0, 1, 2, 3 weak pairs         ):   89.6    57.3     0.0     0.0
Aver. Number of NTNO, Atoms, PAOs, AuxFcns / Triples:   4874    87.2    24.2   492.0   463.0

Triples Correction (T)                     ...     -0.075774439
Final correlation energy                   ...     -1.969668906
E(CCSD)                                    ...   -428.190216238
E(CCSD(T))                                 ...   -428.265990677


Maximum memory used throughout the entire calculation: 8022.2 MB


------------------------------------------------------------------------------- 
                                     TIMINGS                                   
------------------------------------------------------------------------------- 


Total execution time                   ...     2909.333 sec

Localization of occupied MO's          ...        1.004 sec (  0.0%)
Fock Matrix Formation                  ...        7.666 sec (  0.3%)
Global overlap, Fock, MKN matrices     ...        0.329 sec (  0.0%)
Differential overlap integrals         ...        0.310 sec (  0.0%)
Organizing maps                        ...        0.135 sec (  0.0%)
RI 3-index integral generations        ...       15.704 sec (  0.5%)
RI-PNO integral transformation         ...      658.370 sec ( 22.6%)
Initial Guess                          ...       89.446 sec (  3.1%)
DIIS Solver                            ...        3.222 sec (  0.1%)
State Vector Update                    ...        2.068 sec (  0.1%)
Sigma-vector construction              ...      295.921 sec ( 10.2%)
  <0|H|D>                              ...        0.001 sec (  0.0% of sigma)
  <D|H|D>(0-ext)                       ...        9.635 sec (  3.3% of sigma)
  <D|H|D>(2-ext Fock)                  ...        0.023 sec (  0.0% of sigma)
  <D|H|D>(2-ext)                       ...       81.656 sec ( 27.6% of sigma)
  <D|H|D>(4-ext)                       ...       21.178 sec (  7.2% of sigma)
  <D|H|D>(4-ext-corr)                  ...      112.969 sec ( 38.2% of sigma)
  CCSD doubles correction              ...        0.515 sec (  0.2% of sigma)
  <S|H|S>                              ...        1.502 sec (  0.5% of sigma)
  <S|H|D>(1-ext)                       ...        0.994 sec (  0.3% of sigma)
  <D|H|S>(1-ext)                       ...        0.027 sec (  0.0% of sigma)
  <S|H|D>(3-ext)                       ...        0.767 sec (  0.3% of sigma)
  Fock-dressing                        ...       40.813 sec ( 13.8% of sigma)
  Singles amplitudes                   ...        1.413 sec (  0.5% of sigma)
  (ik|jl)-dressing                     ...        7.234 sec (  2.4% of sigma)
  (ij|ab),(ia|jb)-dressing             ...        5.391 sec (  1.8% of sigma)
  Pair energies                        ...        0.015 sec (  0.0% of sigma)
Total Time for computing (T)           ...     1828.766 sec ( 62.9% of ALL)


-------------------------   --------------------
FINAL SINGLE POINT ENERGY      -428.265990677088
-------------------------   --------------------


                            ***************************************
                            *     ORCA property calculations      *
                            ***************************************

                                    ---------------------
                                    Active property flags
                                    ---------------------
   (+) Dipole Moment


------------------------------------------------------------------------------
                       ORCA ELECTRIC PROPERTIES CALCULATION
------------------------------------------------------------------------------

Dipole Moment Calculation                       ... on
Quadrupole Moment Calculation                   ... off
Polarizability Calculation                      ... off
GBWName                                         ... cis_2_6_DiMe_cyclOMe_anti.gbw
Electron density file                           ... cis_2_6_DiMe_cyclOMe_anti.scfp.tmp
The origin for moment calculation is the CENTER OF MASS  = ( 0.022965,  0.000006 -0.018969)

-------------
DIPOLE MOMENT
-------------
                                X             Y             Z
Electronic contribution:      1.49918       0.00045      -1.03725
Nuclear contribution   :     -1.83725      -0.00057       1.51751
                        -----------------------------------------
Total Dipole Moment    :     -0.33807      -0.00012       0.48026
                        -----------------------------------------
Magnitude (a.u.)       :      0.58731
Magnitude (Debye)      :      1.49283



--------------------
Rotational spectrum 
--------------------
 
Rotational constants in cm-1:     0.048404     0.044235     0.026366 
Rotational constants in MHz :  1451.110927  1326.146856   790.418753 

 Dipole components along the rotational axes: 
x,y,z [a.u.] :    -0.345219     0.000088     0.475144 
x,y,z [Debye]:    -0.877477     0.000223     1.207720 

 

Timings for individual modules:

Sum of individual times         ...     2987.070 sec (=  49.785 min)
GTO integral calculation        ...        1.102 sec (=   0.018 min)   0.0 %
SCF iterations                  ...       63.389 sec (=   1.056 min)   2.1 %
MDCI module                     ...     2922.580 sec (=  48.710 min)  97.8 %
                             ****ORCA TERMINATED NORMALLY****
TOTAL RUN TIME: 0 days 0 hours 49 minutes 48 seconds 528 msec
cis_2_6_DiMe_cyclOMe_anti.gbw -> /home1/pantazis/klk/xyz_1/Oxygen_compounds/cis_2_6_DiMe_cyclOMe_anti.gbw
cis_2_6_DiMe_cyclOMe_anti.job -> /home1/pantazis/klk/xyz_1/Oxygen_compounds/cis_2_6_DiMe_cyclOMe_anti.job
cis_2_6_DiMe_cyclOMe_anti.loc -> /home1/pantazis/klk/xyz_1/Oxygen_compounds/cis_2_6_DiMe_cyclOMe_anti.loc
cis_2_6_DiMe_cyclOMe_anti.nodes -> /home1/pantazis/klk/xyz_1/Oxygen_compounds/cis_2_6_DiMe_cyclOMe_anti.nodes
cis_2_6_DiMe_cyclOMe_anti.prop -> /home1/pantazis/klk/xyz_1/Oxygen_compounds/cis_2_6_DiMe_cyclOMe_anti.prop
cis_2_6_DiMe_cyclOMe_anti_property.txt -> /home1/pantazis/klk/xyz_1/Oxygen_compounds/cis_2_6_DiMe_cyclOMe_anti_property.txt
cis_2_6_DiMe_cyclOMe_anti.xyz -> /home1/pantazis/klk/xyz_1/Oxygen_compounds/cis_2_6_DiMe_cyclOMe_anti.xyz
cp: cannot stat cis_2_6_DiMe_cyclOMe_anti.asa.inp: No such file or directory
