! Job execution by suborca V 6.07 on ZEUS !
Job started from zeus1, running /scratch/pantazis/cyclooctane_BC__CNZ3r6/orca/orca copied from /opt/orca on zeussn124 in /scratch/pantazis/cyclooctane_BC__CNZ3r6
Job execution start: Thu Jun 27 11:31:46 CEST 2019
Shared library path: /scratch/pantazis/cyclooctane_BC__CNZ3r6/orca:/opt/openmpi_1.10.2/lib:/opt/intel/mkl/lib/intel64:/opt/intel/lib/intel64:
PBS Job ID is: 158033.icqc
izeussn124
izeussn124
izeussn124
izeussn124
izeussn124
izeussn124
izeussn124
izeussn124

                                 *****************
                                 * O   R   C   A *
                                 *****************

           --- An Ab Initio, DFT and Semiempirical electronic structure package ---

                  #######################################################
                  #                        -***-                        #
                  #          Department of theory and spectroscopy      #
                  #               Directorship: Frank Neese             #
                  #        Max Planck Institute fuer Kohlenforschung    #
                  #                Kaiser Wilhelm Platz 1               #
                  #                 D-45470 Muelheim/Ruhr               #
                  #                      Germany                        #
                  #                                                     #
                  #                  All rights reserved                #
                  #                        -***-                        #
                  #######################################################


                         Program Version 4.1.x  -  STABLE  -
                                (SVN: $Rev: 14094$)
                ($Date: 2019-06-14 15:01:15 +0200 (Fri, 14 Jun 2019) $)

                         (BUILD: $Sun Jun 23 06:18:31 CEST 2019$)


 With contributions from (in alphabetic order):
   Daniel Aravena         : Magnetic Properties
   Michael Atanasov       : Ab Initio Ligand Field Theory
   Alexander A. Auer      : GIAO ZORA
   Ute Becker             : Parallelization
   Giovanni Bistoni       : ED, Open-shell LED
   Martin Brehm           : Molecular dynamics
   Dmytro Bykov           : SCF Hessian
   Vijay G. Chilkuri      : MRCI spin determinant printing
   Dipayan Datta          : RHF DLPNO-CCSD density
   Achintya Kumar Dutta   : EOM-CC, STEOM-CC
   Dmitry Ganyushin       : Spin-Orbit,Spin-Spin,Magnetic field MRCI
   Miquel Garcia          : C-PCM Hessian
   Yang Guo               : DLPNO-NEVPT2, CIM, IAO-localization
   Andreas Hansen         : Spin unrestricted coupled pair/coupled cluster methods
   Benjamin Helmich-Paris : CASSCF linear response (MC-RPA)
   Lee Huntington         : MR-EOM, pCC
   Robert Izsak           : Overlap fitted RIJCOSX, COSX-SCS-MP3, EOM
   Christian Kollmar      : KDIIS, OOCD, Brueckner-CCSD(T), CCSD density
   Simone Kossmann        : Meta GGA functionals, TD-DFT gradient, OOMP2, MP2 Hessian
   Martin Krupicka        : AUTO-CI
   Lucas Lang             : DCDCAS
   Dagmar Lenk            : GEPOL surface, SMD
   Dimitrios Liakos       : Extrapolation schemes; parallel MDCI
   Dimitrios Manganas     : ROCIS; embedding schemes
   Dimitrios Pantazis     : SARC Basis sets
   Taras Petrenko         : DFT Hessian,TD-DFT gradient, ASA, ECA, R-Raman, ABS, FL, XAS/XES, NRVS
   Peter Pinski           : DLPNO-MP2, DLPNO-MP2 Gradient
   Christoph Reimann      : Effective Core Potentials
   Marius Retegan         : Local ZFS, SOC
   Christoph Riplinger    : Optimizer, TS searches, QM/MM, DLPNO-CCSD(T), (RO)-DLPNO pert. Triples
   Tobias Risthaus        : Range-separated hybrids, TD-DFT gradient, RPA, STAB
   Michael Roemelt        : Restricted open shell CIS
   Masaaki Saitow         : Open-shell DLPNO
   Barbara Sandhoefer     : DKH picture change effects
   Avijit Sen             : IP-ROCIS
   Kantharuban Sivalingam : CASSCF convergence, NEVPT2, FIC-MRCI
   Bernardo de Souza      : ESD, SOC TD-DFT
   Georgi Stoychev        : AutoAux, RI-MP2 NMR
   Willem Van den Heuvel  : Paramagnetic NMR
   Boris Wezisla          : Elementary symmetry handling
   Frank Wennmohs         : Technical directorship


 We gratefully acknowledge several colleagues who have allowed us to
 interface, adapt or use parts of their codes:
   Stefan Grimme, W. Hujo, H. Kruse,             : VdW corrections, initial TS optimization,
                  C. Bannwarth                     DFT functionals, gCP, sTDA/sTD-DF
   Ed Valeev                                     : LibInt (2-el integral package), F12 methods
   Garnet Chan, S. Sharma, J. Yang, R. Olivares  : DMRG
   Ulf Ekstrom                                   : XCFun DFT Library
   Mihaly Kallay                                 : mrcc  (arbitrary order and MRCC methods)
   Andreas Klamt, Michael Diedenhofen            : otool_cosmo (COSMO solvation model)
   Jiri Pittner, Ondrej Demel                    : Mk-CCSD
   Frank Weinhold                                : gennbo (NPA and NBO analysis)
   Christopher J. Cramer and Donald G. Truhlar   : smd solvation model
   Lars Goerigk                                  : TD-DFT with DH, B97 family of functionals
   V. Asgeirsson, H. Jonsson                     : NEB implementation
   FAccTs GmbH                                   : IRC, NEB, NEB-TS, Multilevel


 Your calculation uses the libint2 library for the computation of 2-el integrals
 For citations please refer to: http://libint.valeyev.net

 This ORCA versions uses:
   CBLAS   interface :  Fast vector & matrix operations
   LAPACKE interface :  Fast linear algebra routines
   SCALAPACK package :  Parallel linear algebra routines




***************************************
The coordinates will be read from file: cyclooctane_BC.xyz
***************************************


----- Orbital basis set information -----
Your calculation utilizes the basis: cc-pVTZ 
       H, B-Ne : Obtained from the ccRepo (grant-hill.group.shef.ac.uk/ccrepo) Feb. 2017
                 T. H. Dunning, Jr., J. Chem. Phys. 90, 1007 (1989)
            He : Obtained from the ccRepo (grant-hill.group.shef.ac.uk/ccrepo) Feb. 2017
                 D. E. Woon, T. H. Dunning, Jr., J. Chem. Phys. 100, 2975 (1994)
  Li-Be, Na-Mg : Obtained from the ccRepo (grant-hill.group.shef.ac.uk/ccrepo) Feb. 2017
                 B. P. Prascher, D. E. Woon, K. A. Peterson, T. H. Dunning, Jr., A. K. Wilson, Theor. Chem. Acc. 128, 69 (2011)
         Al-Ar : Obtained from the ccRepo (grant-hill.group.shef.ac.uk/ccrepo) Feb. 2017
                 D. E. Woon, T. H. Dunning, Jr., J. Chem. Phys. 98, 1358 (1993)
            Ca : Obtained from the Peterson Research Group Website (tyr0.chem.wsu.edu/~kipeters) Feb. 2017
                 J. Koput, K. A. Peterson, J. Phys. Chem. 106, 9595 (2002)
         Sc-Zn : Obtained from the ccRepo (grant-hill.group.shef.ac.uk/ccrepo) Feb. 2017
                 N. B. Balabanov, K. A. Peterson, J. Chem. Phys. 123, 064107 (2005)
                 N. B. Balabanov, K. A. Peterson, J. Chem. Phys. 125, 074110 (2006)
         Ga-Kr : Obtained from the ccRepo (grant-hill.group.shef.ac.uk/ccrepo) Feb. 2017
                 A. K. Wilson, D. E. Woon, K. A. Peterson, T. H. Dunning, Jr., J. Chem. Phys. 110, 7667 (1999)
             Y : Obtained from the ccRepo (grant-hill.group.shef.ac.uk/ccrepo) Feb. 2017
                 K. A. Peterson, D. Figgen, M. Dolg, H. Stoll, J. Chem. Phys. 126, 124101 (2007)
        Ag, Au : Obtained from the Peterson Research Group Website (tyr0.chem.wsu.edu/~kipeters) Feb. 2017
                 K. A. Peterson, C. Puzzarini, Theor. Chem. Acc. 114, 283 (2005)

----- AuxC basis set information -----
Your calculation utilizes the auxiliary basis: cc-pVTZ/C 
  Obtained from the EMSL Basis Set Exchange (bse.pnl.gov) Feb. 2017
  H-He, B-F, Al-Ar, Ga-Kr : F. Weigend, A. Kohn, C. Hattig, J. Chem. Phys. 116, 3175 (2002)
             Li-Be, Na-Mg : C. Haettig, Phys. Chem. Chem. Phys. 7, 59 (2005)
                       Ne : C. Haettig, Phys. Chem. Chem. Phys. 7, 59 (2005)
                            F. Weigend, A. Kohn, C. Hattig, J. Chem. Phys. 116, 3175 (2002)
                    Sc-Zn : J. G. Hill, J. A. Platts, J. Chem. Phys. 128, 044104 (2008)

----- AuxJK basis set information -----
Your calculation utilizes the auxiliary basis: cc-pVTZ/JK 
  H, B-F, Al-Cl, Ga-Br : Obtained from the TURBOMOLE 7.0 basis set library

================================================================================
                                        WARNINGS
                       Please study these warnings very carefully!
================================================================================


WARNING: MDCI localization with Augmented Hessian Foster-Boys
  ===> : Switching off randomization!

WARNING: Post HF methods need fully converged wavefunctions
  ===> : Setting SCFConvForced true
         You can overwrite this default with %scf ConvForced false 


INFO   : the flag for use of LIBINT has been found!

================================================================================
                                       INPUT FILE
================================================================================
NAME = cyclooctane_BC.inp
|  1> ! RHF DLPNO-CCSD(T) cc-pVTZ RIJK cc-pVTZ/JK cc-pVTZ/C
|  2> ! KDIIS SOSCF TightSCF TightPNO
|  3> 
|  4> %pal nprocs 8 end
|  5> 
|  6> %maxcore 8000
|  7> 
|  8> %scf maxiter 300
|  9>      shift shift 0.2 erroff 0.1 end
| 10> end
| 11> 
| 12> * xyzfile 0 1 cyclooctane_BC.xyz 
| 13> 
| 14> 
| 15>                          ****END OF INPUT****
================================================================================

                       ****************************
                       * Single Point Calculation *
                       ****************************

---------------------------------
CARTESIAN COORDINATES (ANGSTROEM)
---------------------------------
  C     -1.197740   -1.329220   -0.318160
  C     -1.944400   -0.000090   -0.085850
  C     -1.197860    1.329130   -0.318120
  C     -0.013380    1.618220    0.635780
  C      1.394020    1.315850    0.075540
  C      1.586560    0.000060   -0.695020
  C      1.394160   -1.315720    0.075590
  C     -0.013240   -1.618240    0.635770
  H     -0.863380   -1.391530   -1.363150
  H     -1.940500   -2.128950   -0.202910
  H     -0.027140   -2.681070    0.908580
  H     -0.170910   -1.078010    1.576530
  H     -2.834100   -0.000100   -0.730710
  H     -2.325300   -0.000110    0.946670
  H      1.668320   -2.131710   -0.607940
  H      2.118490   -1.362000    0.901390
  H     -0.863540    1.391520   -1.363100
  H     -1.940690    2.128780   -0.202790
  H     -0.027380    2.681030    0.908670
  H     -0.170960    1.077910    1.576510
  H      0.933190    0.000010   -1.577040
  H      2.608740    0.000120   -1.097080
  H      1.668050    2.131870   -0.608040
  H      2.118400    1.362260    0.901290

----------------------------
CARTESIAN COORDINATES (A.U.)
----------------------------
  NO LB      ZA    FRAG     MASS         X           Y           Z
   0 C     6.0000    0    12.011   -2.263401   -2.511862   -0.601235
   1 C     6.0000    0    12.011   -3.674383   -0.000170   -0.162233
   2 C     6.0000    0    12.011   -2.263627    2.511692   -0.601160
   3 C     6.0000    0    12.011   -0.025285    3.057993    1.201450
   4 C     6.0000    0    12.011    2.634316    2.486596    0.142750
   5 C     6.0000    0    12.011    2.998164    0.000113   -1.313397
   6 C     6.0000    0    12.011    2.634581   -2.486350    0.142844
   7 C     6.0000    0    12.011   -0.025020   -3.058030    1.201431
   8 H     1.0000    0     1.008   -1.631552   -2.629611   -2.575980
   9 H     1.0000    0     1.008   -3.667014   -4.023132   -0.383444
  10 H     1.0000    0     1.008   -0.051287   -5.066488    1.716967
  11 H     1.0000    0     1.008   -0.322973   -2.037144    2.979210
  12 H     1.0000    0     1.008   -5.355673   -0.000189   -1.380842
  13 H     1.0000    0     1.008   -4.394180   -0.000208    1.788947
  14 H     1.0000    0     1.008    3.152668   -4.028348   -1.148840
  15 H     1.0000    0     1.008    4.003366   -2.573807    1.703380
  16 H     1.0000    0     1.008   -1.631854    2.629592   -2.575886
  17 H     1.0000    0     1.008   -3.667373    4.022811   -0.383218
  18 H     1.0000    0     1.008   -0.051741    5.066412    1.717137
  19 H     1.0000    0     1.008   -0.323068    2.036955    2.979172
  20 H     1.0000    0     1.008    1.763474    0.000019   -2.980174
  21 H     1.0000    0     1.008    4.929804    0.000227   -2.073181
  22 H     1.0000    0     1.008    3.152158    4.028650   -1.149029
  23 H     1.0000    0     1.008    4.003196    2.574298    1.703191

--------------------------------
INTERNAL COORDINATES (ANGSTROEM)
--------------------------------
 C      0   0   0     0.000000000000     0.00000000     0.00000000
 C      1   0   0     1.542094565388     0.00000000     0.00000000
 C      2   1   0     1.542108015964   119.06673171     0.00000000
 C      3   2   1     1.548060434382   116.01202926   294.82148631
 C      4   3   2     1.544691307187   115.91861075    99.63502060
 C      5   4   3     1.536924750695   117.61730904   316.23935155
 C      6   5   4     1.536923726312   117.76642847   296.04778170
 C      7   6   5     1.544698916553   117.61661163    63.95552239
 H      1   2   3     1.098946425355   109.84243639   299.63598142
 H      1   2   3     1.097516766615   106.53154806   186.03475722
 H      8   7   6     1.097372368433   106.94030196   165.42150453
 H      8   7   6     1.096237957471   110.22725822   279.26611873
 H      2   1   3     1.098822328541   107.67523910   122.79702302
 H      2   1   3     1.100537305501   107.99283380   236.49036710
 H      7   6   5     1.099189085917   107.00907790   185.47594747
 H      7   6   5     1.099427772662   109.27918758   299.54253237
 H      3   2   1     1.098929285669   109.84250082    60.36590537
 H      3   2   1     1.097514255169   106.53103396   173.96820543
 H      4   3   2     1.097374160530   108.92507722   220.24051675
 H      4   3   2     1.096238699098   109.07180070   334.55408250
 H      6   5   4     1.097657341706   109.16805786    61.20796773
 H      6   5   4     1.098409850466   107.46083927   174.64098473
 H      5   4   3     1.099210033479   107.90090644    77.29941995
 H      5   4   3     1.099428640249   108.64128690   191.50789481

---------------------------
INTERNAL COORDINATES (A.U.)
---------------------------
 C      0   0   0     0.000000000000     0.00000000     0.00000000
 C      1   0   0     2.914136401192     0.00000000     0.00000000
 C      2   1   0     2.914161819096   119.06673171     0.00000000
 C      3   2   1     2.925410259742   116.01202926   294.82148631
 C      4   3   2     2.919043532033   115.91861075    99.63502060
 C      5   4   3     2.904366867259   117.61730904   316.23935155
 C      6   5   4     2.904364931455   117.76642847   296.04778170
 C      7   6   5     2.919057911650   117.61661163    63.95552239
 H      1   2   3     2.076707779772   109.84243639   299.63598142
 H      1   2   3     2.074006116288   106.53154806   186.03475722
 H      8   7   6     2.073733243271   106.94030196   165.42150453
 H      8   7   6     2.071589517229   110.22725822   279.26611873
 H      2   1   3     2.076473270780   107.67523910   122.79702302
 H      2   1   3     2.079714107561   107.99283380   236.49036710
 H      7   6   5     2.077166341779   107.00907790   185.47594747
 H      7   6   5     2.077617394358   109.27918758   299.54253237
 H      3   2   1     2.076675390459   109.84250082    60.36590537
 H      3   2   1     2.074001370345   106.53103396   173.96820543
 H      4   3   2     2.073736629844   108.92507722   220.24051675
 H      4   3   2     2.071590918701   109.07180070   334.55408250
 H      6   5   4     2.074271764711   109.16805786    61.20796773
 H      6   5   4     2.075693800181   107.46083927   174.64098473
 H      5   4   3     2.077205926933   107.90090644    77.29941995
 H      5   4   3     2.077619033860   108.64128690   191.50789481

---------------------
BASIS SET INFORMATION
---------------------
There are 2 groups of distinct atoms

 Group   1 Type C   : 18s5p2d1f contracted to 4s3p2d1f pattern {8811/311/11/1}
 Group   2 Type H   : 5s2p1d contracted to 3s2p1d pattern {311/11/1}

Atom   0C    basis set group =>   1
Atom   1C    basis set group =>   1
Atom   2C    basis set group =>   1
Atom   3C    basis set group =>   1
Atom   4C    basis set group =>   1
Atom   5C    basis set group =>   1
Atom   6C    basis set group =>   1
Atom   7C    basis set group =>   1
Atom   8H    basis set group =>   2
Atom   9H    basis set group =>   2
Atom  10H    basis set group =>   2
Atom  11H    basis set group =>   2
Atom  12H    basis set group =>   2
Atom  13H    basis set group =>   2
Atom  14H    basis set group =>   2
Atom  15H    basis set group =>   2
Atom  16H    basis set group =>   2
Atom  17H    basis set group =>   2
Atom  18H    basis set group =>   2
Atom  19H    basis set group =>   2
Atom  20H    basis set group =>   2
Atom  21H    basis set group =>   2
Atom  22H    basis set group =>   2
Atom  23H    basis set group =>   2
-------------------------------
AUXILIARY BASIS SET INFORMATION
-------------------------------
There are 2 groups of distinct atoms

 Group   1 Type C   : 8s6p5d3f1g contracted to 8s6p5d3f1g pattern {11111111/111111/11111/111/1}
 Group   2 Type H   : 4s3p2d1f contracted to 4s3p2d1f pattern {1111/111/11/1}

Atom   0C    basis set group =>   1
Atom   1C    basis set group =>   1
Atom   2C    basis set group =>   1
Atom   3C    basis set group =>   1
Atom   4C    basis set group =>   1
Atom   5C    basis set group =>   1
Atom   6C    basis set group =>   1
Atom   7C    basis set group =>   1
Atom   8H    basis set group =>   2
Atom   9H    basis set group =>   2
Atom  10H    basis set group =>   2
Atom  11H    basis set group =>   2
Atom  12H    basis set group =>   2
Atom  13H    basis set group =>   2
Atom  14H    basis set group =>   2
Atom  15H    basis set group =>   2
Atom  16H    basis set group =>   2
Atom  17H    basis set group =>   2
Atom  18H    basis set group =>   2
Atom  19H    basis set group =>   2
Atom  20H    basis set group =>   2
Atom  21H    basis set group =>   2
Atom  22H    basis set group =>   2
Atom  23H    basis set group =>   2
-------------------------------
AUXILIARY BASIS SET INFORMATION
-------------------------------
There are 2 groups of distinct atoms

 Group   1 Type C   : 10s7p5d2f1g contracted to 10s7p5d2f1g pattern {1111111111/1111111/11111/11/1}
 Group   2 Type H   : 4s3p2d1f contracted to 4s3p2d1f pattern {1111/111/11/1}

Atom   0C    basis set group =>   1
Atom   1C    basis set group =>   1
Atom   2C    basis set group =>   1
Atom   3C    basis set group =>   1
Atom   4C    basis set group =>   1
Atom   5C    basis set group =>   1
Atom   6C    basis set group =>   1
Atom   7C    basis set group =>   1
Atom   8H    basis set group =>   2
Atom   9H    basis set group =>   2
Atom  10H    basis set group =>   2
Atom  11H    basis set group =>   2
Atom  12H    basis set group =>   2
Atom  13H    basis set group =>   2
Atom  14H    basis set group =>   2
Atom  15H    basis set group =>   2
Atom  16H    basis set group =>   2
Atom  17H    basis set group =>   2
Atom  18H    basis set group =>   2
Atom  19H    basis set group =>   2
Atom  20H    basis set group =>   2
Atom  21H    basis set group =>   2
Atom  22H    basis set group =>   2
Atom  23H    basis set group =>   2


           ************************************************************
           *        Program running with 8 parallel MPI-processes     *
           *              working on a common directory               *
           ************************************************************
------------------------------------------------------------------------------
                           ORCA GTO INTEGRAL CALCULATION
                           -- RI-GTO INTEGRALS CHOSEN --
------------------------------------------------------------------------------

                         BASIS SET STATISTICS AND STARTUP INFO

Gaussian basis set:
 # of primitive gaussian shells          ...  336
 # of primitive gaussian functions       ...  656
 # of contracted shells                  ...  176
 # of contracted basis functions         ...  464
 Highest angular momentum                ...    3
 Maximum contraction depth               ...    8
Auxiliary gaussian basis set:
 # of primitive gaussian shells          ...  360
 # of primitive gaussian functions       ... 1112
 # of contracted shells                  ...  360
 # of contracted aux-basis functions     ... 1112
 Highest angular momentum                ...    4
 Maximum contraction depth               ...    1
Ratio of auxiliary to basis functions    ...  2.40
Integral package used                  ... LIBINT
 One Electron integrals                  ... done
 Ordering auxiliary basis shells         ... done
 Integral threshhold             Thresh  ...  2.500e-11
 Primitive cut-off               TCut    ...  2.500e-12
 Pre-screening matrix                    ... done
 Shell pair data                         ... 
 Ordering of the shell pairs             ... done (   0.003 sec) 14768 of 15576 pairs
 Determination of significant pairs      ... done (   0.000 sec)
 Creation of shell pair data             ... done (   0.003 sec)
 Storage of shell pair data              ... done (   0.007 sec)
 Shell pair data done in (   0.013 sec)
 Computing two index integrals           ... done
 Cholesky decomposition of the V-matrix  ... done


Timings:
 Total evaluation time                   ...   0.774 sec (  0.013 min)
 One electron matrix time                ...   0.203 sec (  0.003 min) = 26.3%
 Schwartz matrix evaluation time         ...   0.304 sec (  0.005 min) = 39.2%
 Two index repulsion integral time       ...   0.099 sec (  0.002 min) = 12.9%
 Cholesky decomposition of V             ...   0.128 sec (  0.002 min) = 16.5%
 Three index repulsion integral time     ...   0.000 sec (  0.000 min) =  0.0%



           ************************************************************
           *        Program running with 8 parallel MPI-processes     *
           *              working on a common directory               *
           ************************************************************
-------------------------------------------------------------------------------
                                 ORCA SCF
-------------------------------------------------------------------------------

------------
SCF SETTINGS
------------
Hamiltonian:
 Ab initio Hamiltonian  Method          .... Hartree-Fock(GTOs)
 RI-approximation to the Coulomb term is turned on
   Number of auxiliary basis functions  .... 1112
   RI-JK (J+K treated both via RI)      .... on


General Settings:
 Integral files         IntName         .... cyclooctane_BC
 Hartree-Fock type      HFTyp           .... RHF
 Total Charge           Charge          ....    0
 Multiplicity           Mult            ....    1
 Number of Electrons    NEL             ....   64
 Basis Dimension        Dim             ....  464
 Nuclear Repulsion      ENuc            ....    408.6214048670 Eh

Convergence Acceleration:
 DIIS                   CNVDIIS         .... off
 Newton-Raphson         CNVNR           .... off
 SOSCF                  CNVSOSCF        .... on
   Start iteration      SOSCFMaxIt      ....   150
   Startup grad/error   SOSCFStart      ....  0.003300
 Level Shifting         CNVShift        .... on
   Level shift para.    LevelShift      ....    0.2000
   Turn off err/grad.   ShiftErr        ....    0.1000
 Zerner damping         CNVZerner       .... off
 Static damping         CNVDamp         .... off
 Fernandez-Rico         CNVRico         .... off

SCF Procedure:
 Maximum # iterations   MaxIter         ....   300
 SCF integral mode      SCFMode         .... Direct
   Integral package                     .... LIBINT
 Reset frequency        DirectResetFreq ....    20
 Integral Threshold     Thresh          ....  2.500e-11 Eh
 Primitive CutOff       TCut            ....  2.500e-12 Eh

Convergence Tolerance:
 Convergence Check Mode ConvCheckMode   .... Total+1el-Energy
 Convergence forced     ConvForced      .... 1
 Energy Change          TolE            ....  1.000e-08 Eh
 1-El. energy change                    ....  1.000e-05 Eh
 Orbital Gradient       TolG            ....  1.000e-05
 Orbital Rotation angle TolX            ....  1.000e-05


Diagonalization of the overlap matrix:
Smallest eigenvalue                        ... 2.648e-04
Time for diagonalization                   ...    0.046 sec
Threshold for overlap eigenvalues          ... 1.000e-08
Number of eigenvalues below threshold      ... 0
Time for construction of square roots      ...    0.075 sec
Total time needed                          ...    0.121 sec

-------------------
DFT GRID GENERATION
-------------------

General Integration Accuracy     IntAcc      ...  4.340
Radial Grid Type                 RadialGrid  ... Gauss-Chebyshev
Angular Grid (max. acc.)         AngularGrid ... Lebedev-110
Angular grid pruning method      GridPruning ... 3 (G Style)
Weight generation scheme         WeightScheme... Becke
Basis function cutoff            BFCut       ...    1.0000e-11
Integration weight cutoff        WCut        ...    1.0000e-14
Grids for H and He will be reduced by one unit

# of grid points (after initial pruning)     ...  25952 (   0.0 sec)
# of grid points (after weights+screening)   ...  23324 (   0.0 sec)
nearest neighbour list constructed           ...    0.0 sec
Grid point re-assignment to atoms done       ...    0.0 sec
Grid point division into batches done        ...    0.0 sec
Reduced shell lists constructed in    0.2 sec

Total number of grid points                  ...    23324
Total number of batches                      ...      374
Average number of points per batch           ...       62
Average number of grid points per atom       ...      972
Average number of shells per batch           ...   144.88 (82.32%)
Average number of basis functions per batch  ...   373.79 (80.56%)
Average number of large shells per batch     ...   112.83 (77.88%)
Average number of large basis fcns per batch ...   286.50 (76.65%)
Average number of aux-shells per batch       ...   144.88 (40.24%)
Average number of aux functions per batch    ...   373.79 (33.61%)
Maximum spatial batch extension              ...   3.14,  3.05,  3.55 au
Average spatial batch extension              ...   0.20,  0.20,  0.20 au

Time for grid setup =    0.282 sec

------------------------------
INITIAL GUESS: MODEL POTENTIAL
------------------------------
Loading Hartree-Fock densities                     ... done
Calculating cut-offs                               ... done
Setting up the integral package                    ... done
Initializing the effective Hamiltonian             ... done
Starting the Coulomb interaction                   ... done (   0.1 sec)
Reading the grid                                   ... done
Mapping shells                                     ... done
Starting the XC term evaluation                    ... done (   0.1 sec)
Transforming the Hamiltonian                       ... done (   0.0 sec)
Diagonalizing the Hamiltonian                      ... done (   0.0 sec)
Back transforming the eigenvectors                 ... done (   0.0 sec)
Now organizing SCF variables                       ... done
                      ------------------
                      INITIAL GUESS DONE (   0.7 sec)
                      ------------------
--------------
SCF ITERATIONS
--------------
ITER       Energy         Delta-E        Max-DP      RMS-DP      [F,P]   Gradient Norm
                             ****Turning on KDIIS(Cayley)****
  0   -311.8824905796   0.000000000000 0.01005307  0.00021813  0.0838862   0.148143864
  1   -312.0190296643  -0.136539084675 0.01790108  0.00025254  0.0767184   0.128111687
  2   -312.1303596084  -0.111329944135 0.02920986  0.00043412  0.0616134   0.104135343
  3   -312.2677793594  -0.137419750998 0.04439545  0.00070963  0.0370127   0.064475469
                      *** Initiating the SOSCF procedure ***
                           *** Shutting down KDIIS ***
                      *** Re-Reading the Fockian *** 
                      *** Removing any level shift *** 
ITER      Energy       Delta-E        Grad      Rot      Max-DP    RMS-DP
  4   -312.35827894  -0.0904995820  0.002405  0.002405  0.002913  0.000087
  5   -312.35871410  -0.0004351595  0.000387  0.000510  0.000641  0.000020
  6   -312.35872588  -0.0000117813  0.000193  0.000223  0.000385  0.000012
  7   -312.35872830  -0.0000024155  0.000029  0.000024  0.000063  0.000002
  8   -312.35872838  -0.0000000869  0.000007  0.000008  0.000032  0.000001
  9   -312.35872839  -0.0000000048  0.000004  0.000004  0.000011  0.000000
                  ***Gradient check signals convergence***
              ***Rediagonalizing the Fockian in SOSCF/NRSCF***

               *****************************************************
               *                     SUCCESS                       *
               *           SCF CONVERGED AFTER  10 CYCLES          *
               *****************************************************


----------------
TOTAL SCF ENERGY
----------------

Total Energy       :         -312.35872839 Eh           -8499.71312 eV

Components:
Nuclear Repulsion  :          408.62140487 Eh           11119.15371 eV
Electronic Energy  :         -720.98013326 Eh          -19618.86683 eV
One Electron Energy:        -1231.35728678 Eh          -33506.93523 eV
Two Electron Energy:          510.37715353 Eh           13888.06840 eV

Virial components:
Potential Energy   :         -624.16032511 Eh          -16984.26591 eV
Kinetic Energy     :          311.80159672 Eh            8484.55279 eV
Virial Ratio       :            2.00178681


---------------
SCF CONVERGENCE
---------------

  Last Energy change         ...   -8.8778e-10  Tolerance :   1.0000e-08
  Last MAX-Density change    ...    3.1890e-06  Tolerance :   1.0000e-07
  Last RMS-Density change    ...    5.5567e-08  Tolerance :   5.0000e-09
  Last Orbital Gradient      ...    4.8498e-07  Tolerance :   1.0000e-05
  Last Orbital Rotation      ...    9.6980e-07  Tolerance :   1.0000e-05

             **** THE GBW FILE WAS UPDATED (cyclooctane_BC.gbw) ****
             **** DENSITY FILE WAS UPDATED (cyclooctane_BC.scfp.tmp) ****
             **** ENERGY FILE WAS UPDATED (cyclooctane_BC.en.tmp) ****
----------------
ORBITAL ENERGIES
----------------

  NO   OCC          E(Eh)            E(eV) 
   0   2.0000     -11.215588      -305.1917 
   1   2.0000     -11.214634      -305.1657 
   2   2.0000     -11.214630      -305.1656 
   3   2.0000     -11.214503      -305.1621 
   4   2.0000     -11.214415      -305.1597 
   5   2.0000     -11.213252      -305.1281 
   6   2.0000     -11.213243      -305.1279 
   7   2.0000     -11.212629      -305.1111 
   8   2.0000      -1.096544       -29.8385 
   9   2.0000      -1.035143       -28.1677 
  10   2.0000      -1.033173       -28.1141 
  11   2.0000      -0.916539       -24.9403 
  12   2.0000      -0.912914       -24.8416 
  13   2.0000      -0.791528       -21.5386 
  14   2.0000      -0.789585       -21.4857 
  15   2.0000      -0.734492       -19.9865 
  16   2.0000      -0.640953       -17.4412 
  17   2.0000      -0.627477       -17.0745 
  18   2.0000      -0.594865       -16.1871 
  19   2.0000      -0.588463       -16.0129 
  20   2.0000      -0.571595       -15.5539 
  21   2.0000      -0.565426       -15.3860 
  22   2.0000      -0.549150       -14.9431 
  23   2.0000      -0.506682       -13.7875 
  24   2.0000      -0.484508       -13.1841 
  25   2.0000      -0.480736       -13.0815 
  26   2.0000      -0.468081       -12.7371 
  27   2.0000      -0.464617       -12.6429 
  28   2.0000      -0.459447       -12.5022 
  29   2.0000      -0.433389       -11.7931 
  30   2.0000      -0.425835       -11.5876 
  31   2.0000      -0.417474       -11.3600 
  32   0.0000       0.137765         3.7488 
  33   0.0000       0.152620         4.1530 
  34   0.0000       0.157573         4.2878 
  35   0.0000       0.160340         4.3631 
  36   0.0000       0.192197         5.2300 
  37   0.0000       0.196842         5.3563 
  38   0.0000       0.199310         5.4235 
  39   0.0000       0.204772         5.5721 
  40   0.0000       0.206644         5.6231 
  41   0.0000       0.232905         6.3377 
  42   0.0000       0.242035         6.5861 
  43   0.0000       0.248188         6.7535 
  44   0.0000       0.249184         6.7806 
  45   0.0000       0.254924         6.9368 
  46   0.0000       0.277674         7.5559 
  47   0.0000       0.293227         7.9791 
  48   0.0000       0.322304         8.7703 
  49   0.0000       0.330934         9.0052 
  50   0.0000       0.343759         9.3542 
  51   0.0000       0.368793        10.0354 
  52   0.0000       0.379486        10.3264 
  53   0.0000       0.391315        10.6482 
  54   0.0000       0.393108        10.6970 
  55   0.0000       0.411760        11.2046 
  56   0.0000       0.414569        11.2810 
  57   0.0000       0.424289        11.5455 
  58   0.0000       0.425458        11.5773 
  59   0.0000       0.436861        11.8876 
  60   0.0000       0.449558        12.2331 
  61   0.0000       0.461201        12.5499 
  62   0.0000       0.469845        12.7851 
  63   0.0000       0.495979        13.4963 
  64   0.0000       0.507011        13.7965 
  65   0.0000       0.526241        14.3197 
  66   0.0000       0.540789        14.7156 
  67   0.0000       0.572257        15.5719 
  68   0.0000       0.575227        15.6527 
  69   0.0000       0.579542        15.7701 
  70   0.0000       0.579599        15.7717 
  71   0.0000       0.600275        16.3343 
  72   0.0000       0.600564        16.3422 
  73   0.0000       0.608452        16.5568 
  74   0.0000       0.619442        16.8559 
  75   0.0000       0.627664        17.0796 
  76   0.0000       0.635232        17.2855 
  77   0.0000       0.641671        17.4608 
  78   0.0000       0.642301        17.4779 
  79   0.0000       0.648333        17.6420 
  80   0.0000       0.658424        17.9166 
  81   0.0000       0.662728        18.0338 
  82   0.0000       0.670095        18.2342 
  83   0.0000       0.674624        18.3574 
  84   0.0000       0.676299        18.4030 
  85   0.0000       0.687123        18.6976 
  86   0.0000       0.692856        18.8536 
  87   0.0000       0.699575        19.0364 
  88   0.0000       0.704244        19.1635 
  89   0.0000       0.705953        19.2100 
  90   0.0000       0.725393        19.7389 
  91   0.0000       0.739850        20.1324 
  92   0.0000       0.744448        20.2575 
  93   0.0000       0.758288        20.6341 
  94   0.0000       0.767708        20.8904 
  95   0.0000       0.795686        21.6517 
  96   0.0000       0.813693        22.1417 
  97   0.0000       0.832102        22.6426 
  98   0.0000       0.880953        23.9720 
  99   0.0000       0.884143        24.0588 
 100   0.0000       0.907877        24.7046 
 101   0.0000       0.928318        25.2608 
 102   0.0000       0.933491        25.4016 
 103   0.0000       0.961569        26.1656 
 104   0.0000       0.988578        26.9006 
 105   0.0000       0.996518        27.1166 
 106   0.0000       1.013290        27.5730 
 107   0.0000       1.025380        27.9020 
 108   0.0000       1.044077        28.4108 
 109   0.0000       1.071906        29.1681 
 110   0.0000       1.075354        29.2619 
 111   0.0000       1.100017        29.9330 
 112   0.0000       1.128009        30.6947 
 113   0.0000       1.146877        31.2081 
 114   0.0000       1.149904        31.2905 
 115   0.0000       1.161663        31.6105 
 116   0.0000       1.161728        31.6122 
 117   0.0000       1.180412        32.1206 
 118   0.0000       1.197860        32.5954 
 119   0.0000       1.210595        32.9420 
 120   0.0000       1.227778        33.4096 
 121   0.0000       1.239106        33.7178 
 122   0.0000       1.242972        33.8230 
 123   0.0000       1.245626        33.8952 
 124   0.0000       1.261566        34.3289 
 125   0.0000       1.276218        34.7276 
 126   0.0000       1.282990        34.9119 
 127   0.0000       1.296120        35.2692 
 128   0.0000       1.300727        35.3946 
 129   0.0000       1.303626        35.4735 
 130   0.0000       1.314632        35.7729 
 131   0.0000       1.318848        35.8877 
 132   0.0000       1.334740        36.3201 
 133   0.0000       1.342125        36.5211 
 134   0.0000       1.344566        36.5875 
 135   0.0000       1.366633        37.1880 
 136   0.0000       1.373426        37.3728 
 137   0.0000       1.382125        37.6095 
 138   0.0000       1.388025        37.7701 
 139   0.0000       1.416473        38.5442 
 140   0.0000       1.418961        38.6119 
 141   0.0000       1.426359        38.8132 
 142   0.0000       1.427191        38.8358 
 143   0.0000       1.449289        39.4372 
 144   0.0000       1.456328        39.6287 
 145   0.0000       1.461872        39.7796 
 146   0.0000       1.462428        39.7947 
 147   0.0000       1.478898        40.2429 
 148   0.0000       1.483646        40.3721 
 149   0.0000       1.488083        40.4928 
 150   0.0000       1.510439        41.1011 
 151   0.0000       1.512147        41.1476 
 152   0.0000       1.522437        41.4276 
 153   0.0000       1.532886        41.7119 
 154   0.0000       1.544915        42.0393 
 155   0.0000       1.550675        42.1960 
 156   0.0000       1.569173        42.6994 
 157   0.0000       1.574756        42.8513 
 158   0.0000       1.585035        43.1310 
 159   0.0000       1.591953        43.3192 
 160   0.0000       1.629672        44.3456 
 161   0.0000       1.647081        44.8194 
 162   0.0000       1.649416        44.8829 
 163   0.0000       1.657738        45.1093 
 164   0.0000       1.665181        45.3119 
 165   0.0000       1.684333        45.8330 
 166   0.0000       1.692780        46.0629 
 167   0.0000       1.699077        46.2342 
 168   0.0000       1.715802        46.6893 
 169   0.0000       1.721997        46.8579 
 170   0.0000       1.722371        46.8681 
 171   0.0000       1.741111        47.3780 
 172   0.0000       1.746564        47.5264 
 173   0.0000       1.750918        47.6449 
 174   0.0000       1.767177        48.0873 
 175   0.0000       1.775492        48.3136 
 176   0.0000       1.790147        48.7124 
 177   0.0000       1.822480        49.5922 
 178   0.0000       1.829353        49.7792 
 179   0.0000       1.842601        50.1397 
 180   0.0000       1.886714        51.3401 
 181   0.0000       1.897892        51.6443 
 182   0.0000       1.904688        51.8292 
 183   0.0000       1.928037        52.4646 
 184   0.0000       1.956525        53.2397 
 185   0.0000       1.981311        53.9142 
 186   0.0000       2.033077        55.3228 
 187   0.0000       2.046525        55.6888 
 188   0.0000       2.048384        55.7394 
 189   0.0000       2.078768        56.5662 
 190   0.0000       2.127180        57.8835 
 191   0.0000       2.144394        58.3519 
 192   0.0000       2.572253        69.9946 
 193   0.0000       2.607050        70.9414 
 194   0.0000       2.631281        71.6008 
 195   0.0000       2.638768        71.8045 
 196   0.0000       2.643527        71.9340 
 197   0.0000       2.654253        72.2259 
 198   0.0000       2.689467        73.1841 
 199   0.0000       2.697238        73.3956 
 200   0.0000       2.707469        73.6740 
 201   0.0000       2.719896        74.0121 
 202   0.0000       2.725095        74.1536 
 203   0.0000       2.766260        75.2738 
 204   0.0000       2.793736        76.0214 
 205   0.0000       2.799910        76.1894 
 206   0.0000       2.804600        76.3170 
 207   0.0000       2.814014        76.5732 
 208   0.0000       2.846205        77.4492 
 209   0.0000       2.855841        77.7114 
 210   0.0000       2.864492        77.9468 
 211   0.0000       2.866779        78.0090 
 212   0.0000       2.885412        78.5160 
 213   0.0000       2.891401        78.6790 
 214   0.0000       2.928480        79.6880 
 215   0.0000       2.934434        79.8500 
 216   0.0000       2.955709        80.4289 
 217   0.0000       2.979598        81.0790 
 218   0.0000       2.990419        81.3734 
 219   0.0000       2.992527        81.4308 
 220   0.0000       3.007007        81.8248 
 221   0.0000       3.009912        81.9039 
 222   0.0000       3.022898        82.2572 
 223   0.0000       3.037820        82.6633 
 224   0.0000       3.041305        82.7581 
 225   0.0000       3.053456        83.0888 
 226   0.0000       3.066451        83.4424 
 227   0.0000       3.079824        83.8063 
 228   0.0000       3.093044        84.1660 
 229   0.0000       3.097565        84.2890 
 230   0.0000       3.106505        84.5323 
 231   0.0000       3.113560        84.7243 
 232   0.0000       3.128764        85.1380 
 233   0.0000       3.149938        85.7142 
 234   0.0000       3.175725        86.4159 
 235   0.0000       3.176508        86.4372 
 236   0.0000       3.179347        86.5144 
 237   0.0000       3.184798        86.6628 
 238   0.0000       3.204094        87.1878 
 239   0.0000       3.244487        88.2870 
 240   0.0000       3.246168        88.3327 
 241   0.0000       3.254238        88.5523 
 242   0.0000       3.278750        89.2193 
 243   0.0000       3.280972        89.2798 
 244   0.0000       3.291667        89.5708 
 245   0.0000       3.304668        89.9246 
 246   0.0000       3.317188        90.2653 
 247   0.0000       3.344192        91.0001 
 248   0.0000       3.349974        91.1574 
 249   0.0000       3.358882        91.3998 
 250   0.0000       3.373566        91.7994 
 251   0.0000       3.380566        91.9899 
 252   0.0000       3.408901        92.7609 
 253   0.0000       3.412147        92.8492 
 254   0.0000       3.421196        93.0955 
 255   0.0000       3.424979        93.1984 
 256   0.0000       3.434377        93.4541 
 257   0.0000       3.435882        93.4951 
 258   0.0000       3.448737        93.8449 
 259   0.0000       3.457185        94.0748 
 260   0.0000       3.467860        94.3653 
 261   0.0000       3.470618        94.4403 
 262   0.0000       3.477725        94.6337 
 263   0.0000       3.500670        95.2581 
 264   0.0000       3.502382        95.3047 
 265   0.0000       3.511415        95.5505 
 266   0.0000       3.513924        95.6187 
 267   0.0000       3.530378        96.0665 
 268   0.0000       3.550600        96.6167 
 269   0.0000       3.553638        96.6994 
 270   0.0000       3.564015        96.9818 
 271   0.0000       3.566666        97.0539 
 272   0.0000       3.581602        97.4603 
 273   0.0000       3.581894        97.4683 
 274   0.0000       3.593863        97.7940 
 275   0.0000       3.597598        97.8956 
 276   0.0000       3.622002        98.5597 
 277   0.0000       3.640545        99.0643 
 278   0.0000       3.647090        99.2424 
 279   0.0000       3.660268        99.6010 
 280   0.0000       3.665692        99.7486 
 281   0.0000       3.692774       100.4855 
 282   0.0000       3.694088       100.5213 
 283   0.0000       3.717659       101.1626 
 284   0.0000       3.747286       101.9688 
 285   0.0000       3.749133       102.0191 
 286   0.0000       3.774705       102.7149 
 287   0.0000       3.782398       102.9243 
 288   0.0000       3.803327       103.4938 
 289   0.0000       3.810328       103.6843 
 290   0.0000       3.813574       103.7726 
 291   0.0000       3.834225       104.3346 
 292   0.0000       3.841151       104.5230 
 293   0.0000       3.850626       104.7809 
 294   0.0000       3.851846       104.8141 
 295   0.0000       3.865872       105.1957 
 296   0.0000       3.892297       105.9148 
 297   0.0000       3.900058       106.1260 
 298   0.0000       3.918308       106.6226 
 299   0.0000       3.926055       106.8334 
 300   0.0000       3.930268       106.9480 
 301   0.0000       3.938031       107.1593 
 302   0.0000       3.951216       107.5181 
 303   0.0000       3.956649       107.6659 
 304   0.0000       3.984825       108.4326 
 305   0.0000       3.996739       108.7568 
 306   0.0000       4.010453       109.1300 
 307   0.0000       4.017633       109.3254 
 308   0.0000       4.031659       109.7070 
 309   0.0000       4.039361       109.9166 
 310   0.0000       4.061773       110.5265 
 311   0.0000       4.067456       110.6811 
 312   0.0000       4.075768       110.9073 
 313   0.0000       4.076827       110.9361 
 314   0.0000       4.084275       111.1388 
 315   0.0000       4.090851       111.3177 
 316   0.0000       4.111693       111.8848 
 317   0.0000       4.120432       112.1227 
 318   0.0000       4.131733       112.4302 
 319   0.0000       4.140350       112.6647 
 320   0.0000       4.163189       113.2861 
 321   0.0000       4.169576       113.4599 
 322   0.0000       4.178764       113.7099 
 323   0.0000       4.185711       113.8990 
 324   0.0000       4.208189       114.5107 
 325   0.0000       4.209444       114.5448 
 326   0.0000       4.234767       115.2339 
 327   0.0000       4.244492       115.4985 
 328   0.0000       4.246039       115.5406 
 329   0.0000       4.252303       115.7110 
 330   0.0000       4.291773       116.7851 
 331   0.0000       4.301414       117.0474 
 332   0.0000       4.321754       117.6009 
 333   0.0000       4.322217       117.6135 
 334   0.0000       4.325084       117.6915 
 335   0.0000       4.328581       117.7867 
 336   0.0000       4.340982       118.1241 
 337   0.0000       4.354536       118.4929 
 338   0.0000       4.356000       118.5328 
 339   0.0000       4.386114       119.3522 
 340   0.0000       4.399402       119.7138 
 341   0.0000       4.404579       119.8547 
 342   0.0000       4.410939       120.0278 
 343   0.0000       4.426829       120.4601 
 344   0.0000       4.437036       120.7379 
 345   0.0000       4.449748       121.0838 
 346   0.0000       4.465047       121.5001 
 347   0.0000       4.465988       121.5257 
 348   0.0000       4.470111       121.6379 
 349   0.0000       4.475899       121.7954 
 350   0.0000       4.498261       122.4039 
 351   0.0000       4.503485       122.5461 
 352   0.0000       4.507872       122.6654 
 353   0.0000       4.527464       123.1986 
 354   0.0000       4.539336       123.5216 
 355   0.0000       4.554690       123.9394 
 356   0.0000       4.578669       124.5919 
 357   0.0000       4.601061       125.2012 
 358   0.0000       4.602509       125.2406 
 359   0.0000       4.617123       125.6383 
 360   0.0000       4.625406       125.8637 
 361   0.0000       4.626182       125.8848 
 362   0.0000       4.639461       126.2461 
 363   0.0000       4.645014       126.3973 
 364   0.0000       4.671771       127.1254 
 365   0.0000       4.677899       127.2921 
 366   0.0000       4.688466       127.5796 
 367   0.0000       4.694984       127.7570 
 368   0.0000       4.704816       128.0245 
 369   0.0000       4.714482       128.2876 
 370   0.0000       4.730286       128.7176 
 371   0.0000       4.741394       129.0199 
 372   0.0000       4.746474       129.1581 
 373   0.0000       4.764202       129.6405 
 374   0.0000       4.778602       130.0324 
 375   0.0000       4.802826       130.6915 
 376   0.0000       4.810810       130.9088 
 377   0.0000       4.811841       130.9368 
 378   0.0000       4.844629       131.8290 
 379   0.0000       4.845204       131.8447 
 380   0.0000       4.865933       132.4088 
 381   0.0000       4.892279       133.1257 
 382   0.0000       4.905602       133.4882 
 383   0.0000       4.932323       134.2153 
 384   0.0000       4.940941       134.4498 
 385   0.0000       4.983545       135.6092 
 386   0.0000       5.011392       136.3669 
 387   0.0000       5.042541       137.2145 
 388   0.0000       5.061697       137.7358 
 389   0.0000       5.067814       137.9022 
 390   0.0000       5.104495       138.9004 
 391   0.0000       5.109620       139.0398 
 392   0.0000       5.162997       140.4923 
 393   0.0000       5.167838       140.6240 
 394   0.0000       5.172156       140.7415 
 395   0.0000       5.206359       141.6722 
 396   0.0000       5.216348       141.9441 
 397   0.0000       5.218616       142.0058 
 398   0.0000       5.221195       142.0759 
 399   0.0000       5.230350       142.3250 
 400   0.0000       5.254010       142.9689 
 401   0.0000       5.284640       143.8024 
 402   0.0000       5.307834       144.4335 
 403   0.0000       5.325252       144.9075 
 404   0.0000       5.333556       145.1334 
 405   0.0000       5.337492       145.2405 
 406   0.0000       5.345018       145.4453 
 407   0.0000       5.358774       145.8197 
 408   0.0000       5.374714       146.2534 
 409   0.0000       5.391013       146.6969 
 410   0.0000       5.395891       146.8297 
 411   0.0000       5.424767       147.6154 
 412   0.0000       5.451043       148.3304 
 413   0.0000       5.453372       148.3938 
 414   0.0000       5.476201       149.0150 
 415   0.0000       5.478012       149.0643 
 416   0.0000       5.519434       150.1914 
 417   0.0000       5.524198       150.3211 
 418   0.0000       5.556075       151.1885 
 419   0.0000       5.565612       151.4480 
 420   0.0000       5.605692       152.5386 
 421   0.0000       5.617207       152.8520 
 422   0.0000       5.645587       153.6242 
 423   0.0000       5.661260       154.0507 
 424   0.0000       5.674092       154.3999 
 425   0.0000       5.684355       154.6792 
 426   0.0000       5.727154       155.8438 
 427   0.0000       5.732051       155.9770 
 428   0.0000       5.782927       157.3614 
 429   0.0000       5.790707       157.5731 
 430   0.0000       5.799022       157.7994 
 431   0.0000       5.812121       158.1558 
 432   0.0000       5.817214       158.2944 
 433   0.0000       5.834380       158.7616 
 434   0.0000       5.850758       159.2072 
 435   0.0000       5.873606       159.8289 
 436   0.0000       5.879731       159.9956 
 437   0.0000       5.899672       160.5382 
 438   0.0000       5.904642       160.6735 
 439   0.0000       5.911828       160.8690 
 440   0.0000       5.933704       161.4643 
 441   0.0000       5.976013       162.6156 
 442   0.0000       5.990215       163.0020 
 443   0.0000       6.076364       165.3463 
 444   0.0000       6.086444       165.6206 
 445   0.0000       6.096275       165.8881 
 446   0.0000       6.186753       168.3501 
 447   0.0000       6.204591       168.8355 
 448   0.0000       6.365460       173.2130 
 449   0.0000       6.394628       174.0067 
 450   0.0000       6.420165       174.7016 
 451   0.0000       6.430518       174.9833 
 452   0.0000       6.496116       176.7683 
 453   0.0000       6.499612       176.8634 
 454   0.0000       6.584394       179.1705 
 455   0.0000       6.585568       179.2024 
 456   0.0000      12.546816       341.4162 
 457   0.0000      12.789629       348.0235 
 458   0.0000      12.834245       349.2375 
 459   0.0000      13.177523       358.5786 
 460   0.0000      13.337843       362.9412 
 461   0.0000      13.532588       368.2404 
 462   0.0000      13.560476       368.9993 
 463   0.0000      13.730813       373.6344 

                    ********************************
                    * MULLIKEN POPULATION ANALYSIS *
                    ********************************

-----------------------
MULLIKEN ATOMIC CHARGES
-----------------------
   0 C :   -0.210261
   1 C :   -0.184945
   2 C :   -0.210266
   3 C :   -0.214956
   4 C :   -0.183189
   5 C :   -0.219869
   6 C :   -0.183191
   7 C :   -0.214964
   8 H :    0.094378
   9 H :    0.113223
  10 H :    0.114550
  11 H :    0.093456
  12 H :    0.105694
  13 H :    0.087135
  14 H :    0.098892
  15 H :    0.096121
  16 H :    0.094388
  17 H :    0.113220
  18 H :    0.114550
  19 H :    0.093452
  20 H :    0.090893
  21 H :    0.116688
  22 H :    0.098880
  23 H :    0.096121
Sum of atomic charges:   -0.0000000

--------------------------------
MULLIKEN REDUCED ORBITAL CHARGES
--------------------------------
  0 C s       :     3.220291  s :     3.220291
      pz      :     0.973662  p :     2.869476
      px      :     0.947101
      py      :     0.948713
      dz2     :     0.032759  d :     0.114046
      dxz     :     0.020445
      dyz     :     0.010961
      dx2y2   :     0.018610
      dxy     :     0.031272
      f0      :     0.000918  f :     0.006448
      f+1     :     0.001308
      f-1     :     0.000463
      f+2     :     0.000706
      f-2     :     0.000748
      f+3     :     0.001333
      f-3     :     0.000971
  1 C s       :     3.219467  s :     3.219467
      pz      :     1.004795  p :     2.843788
      px      :     0.970694
      py      :     0.868298
      dz2     :     0.023280  d :     0.115181
      dxz     :     0.027257
      dyz     :     0.015392
      dx2y2   :     0.025037
      dxy     :     0.024215
      f0      :     0.000975  f :     0.006509
      f+1     :     0.000892
      f-1     :     0.000770
      f+2     :     0.000340
      f-2     :     0.000727
      f+3     :     0.001623
      f-3     :     0.001182
  2 C s       :     3.220291  s :     3.220291
      pz      :     0.973670  p :     2.869481
      px      :     0.947111
      py      :     0.948699
      dz2     :     0.032759  d :     0.114046
      dxz     :     0.020443
      dyz     :     0.010963
      dx2y2   :     0.018610
      dxy     :     0.031272
      f0      :     0.000918  f :     0.006448
      f+1     :     0.001308
      f-1     :     0.000463
      f+2     :     0.000706
      f-2     :     0.000748
      f+3     :     0.001333
      f-3     :     0.000972
  3 C s       :     3.223207  s :     3.223207
      pz      :     0.965644  p :     2.873016
      px      :     0.871738
      py      :     1.035634
      dz2     :     0.022658  d :     0.112314
      dxz     :     0.023517
      dyz     :     0.019418
      dx2y2   :     0.030274
      dxy     :     0.016447
      f0      :     0.000638  f :     0.006420
      f+1     :     0.000998
      f-1     :     0.000639
      f+2     :     0.001532
      f-2     :     0.000778
      f+3     :     0.000793
      f-3     :     0.001041
  4 C s       :     3.214403  s :     3.214403
      pz      :     0.987724  p :     2.847504
      px      :     0.927170
      py      :     0.932610
      dz2     :     0.014061  d :     0.114802
      dxz     :     0.030977
      dyz     :     0.025834
      dx2y2   :     0.027291
      dxy     :     0.016639
      f0      :     0.000539  f :     0.006480
      f+1     :     0.000833
      f-1     :     0.000653
      f+2     :     0.002039
      f-2     :     0.000673
      f+3     :     0.000911
      f-3     :     0.000832
  5 C s       :     3.217023  s :     3.217023
      pz      :     0.975310  p :     2.881513
      px      :     1.034434
      py      :     0.871769
      dz2     :     0.016431  d :     0.114802
      dxz     :     0.027668
      dyz     :     0.023980
      dx2y2   :     0.031060
      dxy     :     0.015663
      f0      :     0.000490  f :     0.006532
      f+1     :     0.000439
      f-1     :     0.001048
      f+2     :     0.002103
      f-2     :     0.000768
      f+3     :     0.000793
      f-3     :     0.000892
  6 C s       :     3.214400  s :     3.214400
      pz      :     0.987725  p :     2.847509
      px      :     0.927171
      py      :     0.932612
      dz2     :     0.014063  d :     0.114801
      dxz     :     0.030978
      dyz     :     0.025831
      dx2y2   :     0.027288
      dxy     :     0.016641
      f0      :     0.000539  f :     0.006480
      f+1     :     0.000833
      f-1     :     0.000653
      f+2     :     0.002038
      f-2     :     0.000673
      f+3     :     0.000911
      f-3     :     0.000832
  7 C s       :     3.223211  s :     3.223211
      pz      :     0.965647  p :     2.873021
      px      :     0.871739
      py      :     1.035635
      dz2     :     0.022660  d :     0.112312
      dxz     :     0.023518
      dyz     :     0.019413
      dx2y2   :     0.030274
      dxy     :     0.016447
      f0      :     0.000638  f :     0.006420
      f+1     :     0.000998
      f-1     :     0.000639
      f+2     :     0.001532
      f-2     :     0.000778
      f+3     :     0.000793
      f-3     :     0.001042
  8 H s       :     0.875307  s :     0.875307
      pz      :     0.011319  p :     0.027871
      px      :     0.008175
      py      :     0.008377
      dz2     :     0.000786  d :     0.002443
      dxz     :     0.000763
      dyz     :     0.000702
      dx2y2   :     0.000046
      dxy     :     0.000145
  9 H s       :     0.856203  s :     0.856203
      pz      :     0.007531  p :     0.028107
      px      :     0.009859
      py      :     0.010718
      dz2     :     0.000230  d :     0.002467
      dxz     :     0.000373
      dyz     :     0.000312
      dx2y2   :     0.001003
      dxy     :     0.000549
 10 H s       :     0.854815  s :     0.854815
      pz      :     0.008940  p :     0.028179
      px      :     0.009542
      py      :     0.009697
      dz2     :     0.000178  d :     0.002456
      dxz     :     0.000149
      dyz     :     0.000741
      dx2y2   :     0.000486
      dxy     :     0.000902
 11 H s       :     0.876002  s :     0.876002
      pz      :     0.010908  p :     0.028068
      px      :     0.009359
      py      :     0.007801
      dz2     :     0.000739  d :     0.002474
      dxz     :     0.000834
      dyz     :     0.000481
      dx2y2   :     0.000250
      dxy     :     0.000170
 12 H s       :     0.863660  s :     0.863660
      pz      :     0.006762  p :     0.028176
      px      :     0.012109
      py      :     0.009305
      dz2     :     0.000531  d :     0.002471
      dxz     :     0.000467
      dyz     :     0.000267
      dx2y2   :     0.000407
      dxy     :     0.000798
 13 H s       :     0.883520  s :     0.883520
      pz      :     0.009351  p :     0.026903
      px      :     0.008703
      py      :     0.008850
      dz2     :     0.000603  d :     0.002442
      dxz     :     0.000730
      dyz     :     0.000830
      dx2y2   :     0.000068
      dxy     :     0.000210
 14 H s       :     0.871074  s :     0.871074
      pz      :     0.007950  p :     0.027584
      px      :     0.008951
      py      :     0.010682
      dz2     :     0.000536  d :     0.002449
      dxz     :     0.000439
      dyz     :     0.000473
      dx2y2   :     0.000595
      dxy     :     0.000406
 15 H s       :     0.873163  s :     0.873163
      pz      :     0.008895  p :     0.028272
      px      :     0.011045
      py      :     0.008332
      dz2     :     0.000633  d :     0.002444
      dxz     :     0.000531
      dyz     :     0.000549
      dx2y2   :     0.000440
      dxy     :     0.000291
 16 H s       :     0.875298  s :     0.875298
      pz      :     0.011319  p :     0.027871
      px      :     0.008175
      py      :     0.008377
      dz2     :     0.000786  d :     0.002443
      dxz     :     0.000763
      dyz     :     0.000702
      dx2y2   :     0.000046
      dxy     :     0.000145
 17 H s       :     0.856206  s :     0.856206
      pz      :     0.007531  p :     0.028108
      px      :     0.009859
      py      :     0.010718
      dz2     :     0.000230  d :     0.002467
      dxz     :     0.000373
      dyz     :     0.000312
      dx2y2   :     0.001003
      dxy     :     0.000549
 18 H s       :     0.854815  s :     0.854815
      pz      :     0.008940  p :     0.028179
      px      :     0.009542
      py      :     0.009697
      dz2     :     0.000178  d :     0.002456
      dxz     :     0.000149
      dyz     :     0.000741
      dx2y2   :     0.000486
      dxy     :     0.000902
 19 H s       :     0.876006  s :     0.876006
      pz      :     0.010908  p :     0.028068
      px      :     0.009359
      py      :     0.007801
      dz2     :     0.000739  d :     0.002474
      dxz     :     0.000834
      dyz     :     0.000481
      dx2y2   :     0.000250
      dxy     :     0.000170
 20 H s       :     0.878632  s :     0.878632
      pz      :     0.010621  p :     0.028010
      px      :     0.008025
      py      :     0.009365
      dz2     :     0.000654  d :     0.002465
      dxz     :     0.000478
      dyz     :     0.000779
      dx2y2   :     0.000275
      dxy     :     0.000278
 21 H s       :     0.853103  s :     0.853103
      pz      :     0.009768  p :     0.027740
      px      :     0.008682
      py      :     0.009290
      dz2     :     0.000216  d :     0.002470
      dxz     :     0.000742
      dyz     :     0.000245
      dx2y2   :     0.000445
      dxy     :     0.000821
 22 H s       :     0.871087  s :     0.871087
      pz      :     0.007950  p :     0.027583
      px      :     0.008950
      py      :     0.010683
      dz2     :     0.000536  d :     0.002449
      dxz     :     0.000439
      dyz     :     0.000473
      dx2y2   :     0.000594
      dxy     :     0.000406
 23 H s       :     0.873162  s :     0.873162
      pz      :     0.008895  p :     0.028272
      px      :     0.011045
      py      :     0.008333
      dz2     :     0.000633  d :     0.002444
      dxz     :     0.000531
      dyz     :     0.000548
      dx2y2   :     0.000440
      dxy     :     0.000291


                     *******************************
                     * LOEWDIN POPULATION ANALYSIS *
                     *******************************

----------------------
LOEWDIN ATOMIC CHARGES
----------------------
   0 C :    0.057676
   1 C :    0.050482
   2 C :    0.057679
   3 C :    0.057447
   4 C :    0.053676
   5 C :    0.047513
   6 C :    0.053684
   7 C :    0.057456
   8 H :   -0.029780
   9 H :   -0.024844
  10 H :   -0.026206
  11 H :   -0.033215
  12 H :   -0.024406
  13 H :   -0.026817
  14 H :   -0.024212
  15 H :   -0.026639
  16 H :   -0.029786
  17 H :   -0.024843
  18 H :   -0.026203
  19 H :   -0.033212
  20 H :   -0.032320
  21 H :   -0.022288
  22 H :   -0.024204
  23 H :   -0.026640

-------------------------------
LOEWDIN REDUCED ORBITAL CHARGES
-------------------------------
  0 C s       :     2.662550  s :     2.662550
      pz      :     0.953699  p :     2.825986
      px      :     0.936451
      py      :     0.935836
      dz2     :     0.108256  d :     0.414581
      dxz     :     0.076723
      dyz     :     0.044056
      dx2y2   :     0.068342
      dxy     :     0.117204
      f0      :     0.005051  f :     0.039208
      f+1     :     0.006043
      f-1     :     0.004369
      f+2     :     0.005304
      f-2     :     0.005809
      f+3     :     0.006271
      f-3     :     0.006360
  1 C s       :     2.662866  s :     2.662866
      pz      :     0.968380  p :     2.822965
      px      :     0.941379
      py      :     0.913206
      dz2     :     0.082186  d :     0.424897
      dxz     :     0.086291
      dyz     :     0.053869
      dx2y2   :     0.105878
      dxy     :     0.096674
      f0      :     0.004840  f :     0.038789
      f+1     :     0.003553
      f-1     :     0.005163
      f+2     :     0.005728
      f-2     :     0.004985
      f+3     :     0.006080
      f-3     :     0.008441
  2 C s       :     2.662544  s :     2.662544
      pz      :     0.953706  p :     2.825983
      px      :     0.936454
      py      :     0.935823
      dz2     :     0.108258  d :     0.414585
      dxz     :     0.076716
      dyz     :     0.044063
      dx2y2   :     0.068343
      dxy     :     0.117204
      f0      :     0.005051  f :     0.039209
      f+1     :     0.006043
      f-1     :     0.004369
      f+2     :     0.005305
      f-2     :     0.005810
      f+3     :     0.006271
      f-3     :     0.006361
  3 C s       :     2.662237  s :     2.662237
      pz      :     0.946568  p :     2.828123
      px      :     0.911185
      py      :     0.970370
      dz2     :     0.080265  d :     0.412998
      dxz     :     0.094743
      dyz     :     0.066967
      dx2y2   :     0.112074
      dxy     :     0.058949
      f0      :     0.004762  f :     0.039196
      f+1     :     0.006779
      f-1     :     0.004761
      f+2     :     0.005106
      f-2     :     0.005542
      f+3     :     0.005005
      f-3     :     0.007241
  4 C s       :     2.662032  s :     2.662032
      pz      :     0.957992  p :     2.823191
      px      :     0.929699
      py      :     0.935501
      dz2     :     0.047069  d :     0.422045
      dxz     :     0.108942
      dyz     :     0.096499
      dx2y2   :     0.099946
      dxy     :     0.069589
      f0      :     0.004165  f :     0.039055
      f+1     :     0.005962
      f-1     :     0.005068
      f+2     :     0.006044
      f-2     :     0.005408
      f+3     :     0.006532
      f-3     :     0.005876
  5 C s       :     2.659451  s :     2.659451
      pz      :     0.947822  p :     2.828136
      px      :     0.966597
      py      :     0.913717
      dz2     :     0.063573  d :     0.425488
      dxz     :     0.091261
      dyz     :     0.098896
      dx2y2   :     0.119204
      dxy     :     0.052554
      f0      :     0.004108  f :     0.039413
      f+1     :     0.003828
      f-1     :     0.008367
      f+2     :     0.005724
      f-2     :     0.005161
      f+3     :     0.006702
      f-3     :     0.005522
  6 C s       :     2.662028  s :     2.662028
      pz      :     0.957993  p :     2.823191
      px      :     0.929694
      py      :     0.935503
      dz2     :     0.047074  d :     0.422041
      dxz     :     0.108942
      dyz     :     0.096492
      dx2y2   :     0.099939
      dxy     :     0.069595
      f0      :     0.004165  f :     0.039056
      f+1     :     0.005963
      f-1     :     0.005068
      f+2     :     0.006043
      f-2     :     0.005409
      f+3     :     0.006533
      f-3     :     0.005876
  7 C s       :     2.662241  s :     2.662241
      pz      :     0.946568  p :     2.828123
      px      :     0.911182
      py      :     0.970373
      dz2     :     0.080270  d :     0.412986
      dxz     :     0.094744
      dyz     :     0.066950
      dx2y2   :     0.112071
      dxy     :     0.058950
      f0      :     0.004762  f :     0.039194
      f+1     :     0.006778
      f-1     :     0.004761
      f+2     :     0.005105
      f-2     :     0.005542
      f+3     :     0.005005
      f-3     :     0.007241
  8 H s       :     0.847657  s :     0.847657
      pz      :     0.071912  p :     0.153869
      px      :     0.041349
      py      :     0.040607
      dz2     :     0.009635  d :     0.028253
      dxz     :     0.008491
      dyz     :     0.008049
      dx2y2   :     0.000682
      dxy     :     0.001395
  9 H s       :     0.842371  s :     0.842371
      pz      :     0.040566  p :     0.154073
      px      :     0.055000
      py      :     0.058506
      dz2     :     0.002767  d :     0.028400
      dxz     :     0.004813
      dyz     :     0.004327
      dx2y2   :     0.009245
      dxy     :     0.007248
 10 H s       :     0.843719  s :     0.843719
      pz      :     0.042992  p :     0.154137
      px      :     0.039575
      py      :     0.071571
      dz2     :     0.002625  d :     0.028349
      dxz     :     0.000916
      dyz     :     0.009432
      dx2y2   :     0.006994
      dxy     :     0.008383
 11 H s       :     0.847643  s :     0.847643
      pz      :     0.066918  p :     0.156914
      px      :     0.039562
      py      :     0.050434
      dz2     :     0.009364  d :     0.028658
      dxz     :     0.007291
      dyz     :     0.006940
      dx2y2   :     0.003099
      dxy     :     0.001964
 12 H s       :     0.843482  s :     0.843482
      pz      :     0.050281  p :     0.152733
      px      :     0.063345
      py      :     0.039108
      dz2     :     0.007136  d :     0.028191
      dxz     :     0.006847
      dyz     :     0.002587
      dx2y2   :     0.004911
      dxy     :     0.006711
 13 H s       :     0.846896  s :     0.846896
      pz      :     0.070416  p :     0.151625
      px      :     0.042874
      py      :     0.038335
      dz2     :     0.009035  d :     0.028296
      dxz     :     0.009224
      dyz     :     0.007807
      dx2y2   :     0.000691
      dxy     :     0.001539
 14 H s       :     0.843279  s :     0.843279
      pz      :     0.052523  p :     0.152664
      px      :     0.041148
      py      :     0.058993
      dz2     :     0.006422  d :     0.028269
      dxz     :     0.004485
      dyz     :     0.006830
      dx2y2   :     0.005657
      dxy     :     0.004876
 15 H s       :     0.846269  s :     0.846269
      pz      :     0.058403  p :     0.152330
      px      :     0.055047
      py      :     0.038881
      dz2     :     0.007399  d :     0.028040
      dxz     :     0.007094
      dyz     :     0.006044
      dx2y2   :     0.004164
      dxy     :     0.003339
 16 H s       :     0.847657  s :     0.847657
      pz      :     0.071915  p :     0.153875
      px      :     0.041350
      py      :     0.040610
      dz2     :     0.009636  d :     0.028255
      dxz     :     0.008492
      dyz     :     0.008050
      dx2y2   :     0.000683
      dxy     :     0.001395
 17 H s       :     0.842370  s :     0.842370
      pz      :     0.040566  p :     0.154073
      px      :     0.055004
      py      :     0.058503
      dz2     :     0.002767  d :     0.028400
      dxz     :     0.004814
      dyz     :     0.004326
      dx2y2   :     0.009245
      dxy     :     0.007248
 18 H s       :     0.843719  s :     0.843719
      pz      :     0.042993  p :     0.154135
      px      :     0.039574
      py      :     0.071569
      dz2     :     0.002625  d :     0.028349
      dxz     :     0.000917
      dyz     :     0.009432
      dx2y2   :     0.006994
      dxy     :     0.008382
 19 H s       :     0.847640  s :     0.847640
      pz      :     0.066916  p :     0.156914
      px      :     0.039561
      py      :     0.050436
      dz2     :     0.009363  d :     0.028658
      dxz     :     0.007291
      dyz     :     0.006940
      dx2y2   :     0.003100
      dxy     :     0.001965
 20 H s       :     0.846718  s :     0.846718
      pz      :     0.063377  p :     0.157149
      px      :     0.053764
      py      :     0.040007
      dz2     :     0.008509  d :     0.028453
      dxz     :     0.006834
      dyz     :     0.006586
      dx2y2   :     0.003748
      dxy     :     0.002775
 21 H s       :     0.840354  s :     0.840354
      pz      :     0.045864  p :     0.153563
      px      :     0.068408
      py      :     0.039291
      dz2     :     0.003283  d :     0.028371
      dxz     :     0.009033
      dyz     :     0.001795
      dx2y2   :     0.006711
      dxy     :     0.007549
 22 H s       :     0.843281  s :     0.843281
      pz      :     0.052522  p :     0.152656
      px      :     0.041143
      py      :     0.058991
      dz2     :     0.006422  d :     0.028267
      dxz     :     0.004484
      dyz     :     0.006830
      dx2y2   :     0.005656
      dxy     :     0.004875
 23 H s       :     0.846270  s :     0.846270
      pz      :     0.058401  p :     0.152330
      px      :     0.055048
      py      :     0.038881
      dz2     :     0.007399  d :     0.028040
      dxz     :     0.007094
      dyz     :     0.006043
      dx2y2   :     0.004165
      dxy     :     0.003339


                      *****************************
                      * MAYER POPULATION ANALYSIS *
                      *****************************

  NA   - Mulliken gross atomic population
  ZA   - Total nuclear charge
  QA   - Mulliken gross atomic charge
  VA   - Mayer's total valence
  BVA  - Mayer's bonded valence
  FA   - Mayer's free valence

  ATOM       NA         ZA         QA         VA         BVA        FA
  0 C      6.2103     6.0000    -0.2103     3.8374     3.8374    -0.0000
  1 C      6.1849     6.0000    -0.1849     3.8694     3.8694     0.0000
  2 C      6.2103     6.0000    -0.2103     3.8374     3.8374    -0.0000
  3 C      6.2150     6.0000    -0.2150     3.8370     3.8370    -0.0000
  4 C      6.1832     6.0000    -0.1832     3.8654     3.8654     0.0000
  5 C      6.2199     6.0000    -0.2199     3.8578     3.8578     0.0000
  6 C      6.1832     6.0000    -0.1832     3.8654     3.8654     0.0000
  7 C      6.2150     6.0000    -0.2150     3.8370     3.8370    -0.0000
  8 H      0.9056     1.0000     0.0944     0.9798     0.9798    -0.0000
  9 H      0.8868     1.0000     0.1132     0.9757     0.9757    -0.0000
 10 H      0.8855     1.0000     0.1145     0.9754     0.9754    -0.0000
 11 H      0.9065     1.0000     0.0935     0.9768     0.9768    -0.0000
 12 H      0.8943     1.0000     0.1057     0.9782     0.9782    -0.0000
 13 H      0.9129     1.0000     0.0871     0.9803     0.9803     0.0000
 14 H      0.9011     1.0000     0.0989     0.9782     0.9782    -0.0000
 15 H      0.9039     1.0000     0.0961     0.9827     0.9827     0.0000
 16 H      0.9056     1.0000     0.0944     0.9798     0.9798     0.0000
 17 H      0.8868     1.0000     0.1132     0.9757     0.9757    -0.0000
 18 H      0.8854     1.0000     0.1146     0.9754     0.9754    -0.0000
 19 H      0.9065     1.0000     0.0935     0.9768     0.9768    -0.0000
 20 H      0.9091     1.0000     0.0909     0.9772     0.9772     0.0000
 21 H      0.8833     1.0000     0.1167     0.9740     0.9740    -0.0000
 22 H      0.9011     1.0000     0.0989     0.9782     0.9782    -0.0000
 23 H      0.9039     1.0000     0.0961     0.9827     0.9827     0.0000

  Mayer bond orders larger than 0.1
B(  0-C ,  1-C ) :   0.9502 B(  0-C ,  7-C ) :   0.9246 B(  0-C ,  8-H ) :   0.9824 
B(  0-C ,  9-H ) :   0.9963 B(  1-C ,  2-C ) :   0.9502 B(  1-C , 12-H ) :   0.9954 
B(  1-C , 13-H ) :   0.9826 B(  2-C ,  3-C ) :   0.9246 B(  2-C , 16-H ) :   0.9824 
B(  2-C , 17-H ) :   0.9963 B(  3-C ,  4-C ) :   0.9479 B(  3-C , 18-H ) :   0.9961 
B(  3-C , 19-H ) :   0.9823 B(  4-C ,  5-C ) :   0.9503 B(  4-C , 22-H ) :   0.9915 
B(  4-C , 23-H ) :   0.9903 B(  5-C ,  6-C ) :   0.9503 B(  5-C , 20-H ) :   0.9783 
B(  5-C , 21-H ) :   0.9928 B(  6-C ,  7-C ) :   0.9479 B(  6-C , 14-H ) :   0.9915 
B(  6-C , 15-H ) :   0.9903 B(  7-C , 10-H ) :   0.9961 B(  7-C , 11-H ) :   0.9823 


-------
TIMINGS
-------

Total SCF time: 0 days 0 hours 0 min 47 sec 

Total time                  ....      47.582 sec
Sum of individual times     ....      47.150 sec  ( 99.1%)

Fock matrix formation       ....      45.838 sec  ( 96.3%)
Diagonalization             ....       0.224 sec  (  0.5%)
Density matrix formation    ....       0.029 sec  (  0.1%)
Population analysis         ....       0.111 sec  (  0.2%)
Initial guess               ....       0.423 sec  (  0.9%)
Orbital Transformation      ....       0.000 sec  (  0.0%)
Orbital Orthonormalization  ....       0.000 sec  (  0.0%)
DIIS solution               ....       0.000 sec  (  0.0%)
SOSCF solution              ....       0.244 sec  (  0.5%)


           ************************************************************
           *        Program running with 8 parallel MPI-processes     *
           *              working on a common directory               *
           ************************************************************


------------------------------------------------------------------------------- 
                              ORCA-MATRIX DRIVEN CI                            
------------------------------------------------------------------------------- 


Wavefunction type
-----------------
Correlation treatment                      ...      CCSD     
Single excitations                         ... ON
Orbital optimization                       ... OFF
Calculation of Z vector                    ... OFF
Calculation of Brueckner orbitals          ... OFF
Perturbative triple excitations            ... ON
Calculation of F12 correction              ... OFF
Frozen core treatment                      ... chemical core (16 el)
Reference Wavefunction                     ... RHF
  Internal Orbitals:     8 ...   31 ( 24 MO's/ 48 electrons)
  Virtual  Orbitals:    32 ...  463 (432 MO's              )
Number of AO's                             ...    464
Number of electrons                        ...     64
Number of correlated electrons             ...     48

Algorithmic settings
--------------------
Integral transformation                    ... All integrals via the RI transformation
K(C) Formation                             ... RI-DLPNO
   PNO-Integral Storage                    ... ON DISK
   PNO occupation number cut-off           ... 1.000e-07
   Singles PNO occupation number cut-off   ... 3.000e-09
   PNO Mulliken prescreening cut-off       ... 1.000e-03
   Domain cut-off (Mulliken population)    ... 1.000e-03
   PNO Normalization                       ...    1
Maximum number of iterations               ...        50
Convergence tolerance (max. residuum)      ... 1.000e-05
Level shift for amplitude update           ... 2.000e-01
Maximum number of DIIS vectors             ...         7
DIIS turned on at iteration                ...         0
Damping before turning on DIIS             ...     0.500
Damping after turning on DIIS              ...     0.000
Pair specific amplitude update             ... OFF
Natural orbital iterations                 ... OFF
Perturbative natural orbital generation    ... OFF
Printlevel                                 ... 2

Singles Fock matrix elements calculated using PNOs.

Memory handling:
----------------
Maximum memory for working arrays          ...   8000 MB
Data storage in matrix containers          ... UNCOMPRESSED
Data type for integral storage             ... DOUBLE
In-Core Storage of quantities:
   Amplitudes+Sigma Vector      ... NO
   J+K operators                ... NO
   DIIS vectors                 ... NO
   3-external integrals         ... NO
   4-external integrals         ... NO

Localization treatment:
-----------------------
Localization option                        ...    6
Localization threshhold                    ... -1.0e+00
Using relative localization threshhold     ... 1.0e-08
Neglect threshold for strong pairs         ... 1.000e-05 Eh
Prescreening threshold for very weak pairs ... 1.000e-07 Eh

Initializing the integral package          ... done
Localizing the valence orbitals
------------------------------------------------------------------------------
                           ORCA ORBITAL LOCALIZATION
------------------------------------------------------------------------------

Input orbitals are from                  ... cyclooctane_BC.proc0.gbw
Output orbitals are to                   ... cyclooctane_BC.proc0.loc
Max. number of iterations                ... 128
Localizations seeded randomly            ... off
Convergence tolerance                    ... 1.000e-06
Using relative localization threshhold   ... 1.000e-08
Treshold for strong local MOs            ... 9.500e-01
Treshold for bond MOs                    ... 8.500e-01
Operator                                 ... 0
Orbital range for localization           ... 8 to 31
Localization criterion                   ... FOSTER-BOYS (AUGMENTED HESSIAN)
Doing the dipole integrals     ... o.k.
Initial value of the localization sum :   289.506806
[...]
   TCutDO    ...     5.0e-03
   TCutPairs ...     1.0e-05
   TCutCMO   ...     1.0e-03
   TCutCPAO  ...     1.0e-03

Thresholds for map construction and integral transformation for strong Triples:
   TCutMKN   ...     1.0e-02
   TCutDO    ...     1.0e-02
   TCutCMO   ...     1.0e-03
   TCutCPAO  ...     1.0e-03

Thresholds for map construction and integral transformation for weak Triples:
   TCutMKN   ...     1.0e-01
   TCutDO    ...     2.0e-02
   TCutCMO   ...     1.0e-03
   TCutCPAO  ...     1.0e-03

--------------------------------
LOCAL RI TRANSFORMATION (IAVPAO)
--------------------------------

Orbital window:       8 to 31
Number of PAOs:     464
Basis functions:    464 (176 shells)
Aux. functions:    1128 (344 shells)

Processing maps (0.0 sec)
Average map sizes:
   Aux shells -> MOs              24.0
   Aux shells -> PAOs            464.0
   MOs        -> AO shells       169.2
   PAOs       -> AO shells       176.0

Calculating integrals (5.4 sec, 95.849 MB)
Sorting integrals (0.2 sec, 95.836 MB)
Total time for the integral transformation: 5.6 sec
--------------------------------
INITIAL GUESS AND PNO GENERATION
--------------------------------

PNO truncation parameters                   .... 
    ScaleTCutPNO       =        1.000e-02
    PAOOverlapThresh   =        1.000e-08

    TCutPairs          =        1.000e-05
    TCutPNO            =        1.000e-07
    TCutPNOSingles     =        3.000e-09
    TCutMP2Pairs       =        1.000e-06
    TCutMKN            =        1.000e-03
    TCutDO             =        5.000e-03

Pair selection                          .... not used
Type of local MP2 treatment                 .... full local PMP2
Strategy for PNO selection                  .... occupation number selection
Pair density normalization                  .... MP2 norm
Spin component scaling                      .... not used

PASS-1: Formation of initial guess LMP2 amplitudes
Initial amplitudes guess done. Entering LMP2 iteration loop:
   Max. no of iterations          ...  50
   Energy convergence tolerance   ...    1.0e-07
   Residual convergence tolerance ...    5.0e-07
   Fock matrix cutoff             ...    1.0e-05 Eh
   DIIS convergence acceleration parameters:
        Max # vectors in DIIS     ... 7
        Start iteration of DIIS   ... 0
        Levelshift                ... 2.000e-01
        Damping factor 1          ... 5.000e-01
        Damping factor 2          ... 1.000e+00
   L-MP2 PNO cut-off              ...   1.0e-09
   L-MP2 PNO cut-off (core)       ...   1.0e-11
                           *** Turning on DIIS ***
LMP2-Iter=   0:  ELMP2= -1.383724910812  DE=   2.2e-02 RMAX=   3.2e-03
LMP2-Iter=   1:  ELMP2= -1.395454720579  DE=   1.2e-02 RMAX=   1.3e-03
LMP2-Iter=   2:  ELMP2= -1.397152522654  DE=   1.7e-03 RMAX=   1.4e-04
LMP2-Iter=   3:  ELMP2= -1.397290147900  DE=   1.4e-04 RMAX=   4.4e-05
LMP2-Iter=   4:  ELMP2= -1.397292817289  DE=   2.7e-06 RMAX=   4.1e-06
LMP2-Iter=   5:  ELMP2= -1.397291925304  DE=   8.9e-07 RMAX=   1.2e-06
LMP2-Iter=   6:  ELMP2= -1.397291852938  DE=   7.2e-08 RMAX=   1.2e-07
LMP2-Iter=   7:  ELMP2= -1.397291849773  DE=   3.2e-09 RMAX=   3.2e-08 => CONVERGED
PASS-2: Formation of Pair natural orbitals
   .... Finished loop over pairs

 PNO Occupation Number Statistics: 
  | Av. % of trace(Dij) retained        ...  99.390237189483
  | sigma^2 in % of trace(Dij) retained ...   4.17e-01
  | Av. % of trace(Di) retained         ...  99.999694960357
  | sigma^2 in % of trace(Di) retained  ...   3.05e-09
 Distributions of % trace(Dij) recovered:
  |       >= 99.9  ...    72 ( 24.0 % of all pairs)
  |   [90.0, 99.0) ...    65 ( 21.7 % of all pairs)
  |   [99.0, 99.9) ...   163 ( 54.3 % of all pairs)
 Distributions of % trace(Di) recovered :
  |       >= 99.9  ...    24 (100.0 % of all I-pairs )

Making pair pair interaction lists          ... done

                       ===========================
                        300 OF  300 PAIRS ARE KEPT
                       ===========================

Total time spent in the initial guess                 ...    35.196 sec
L-MP2 correlation energy (all non-screened pairs)     ...      -1.397291849773 Eh
L-MP2 PNO error correction                            ...      -0.000040148233 Eh
                                                          --------------------
Initial total L-MP2 energy (non-screened pairs)       ...      -1.397331998005 Eh

Initial PNO correlation energy                        ...      -1.395779840255 Eh
sum of pair energies estimated for screened out pairs ...       0.000000000000 Eh
sum of MP2 pair energies for pairs that were not kept ...       0.000000000000 Eh
sum of PNO error estimates for the kept pairs         ...      -0.001552157751 Eh
                                                          --------------------
sum of all corrections                                         -0.001552157751
Initial total correlation energy                               -1.397331998005
Thresholds for map construction and integral transformation for fine MP2 and CCSD(T) calculation:
   TCutMKN   ...     1.0e-03
   TCutDO    ...     5.0e-03
   TCutPairs ...     1.0e-05
   TCutCMO   ...     1.0e-03
   TCutCPAO  ...     1.0e-03

Time for aux screen maps:            0.008
Time for maps after fine MP2:            0.026
-----------------------------
LOCAL RI TRANSFORMATION (IJV)
-----------------------------

Orbital window:       8 to 31
Basis functions:    464 (176 shells)
Aux. functions:    1128 (344 shells)

Processing maps (0.0 sec)
Average map sizes:
   Aux shells -> MOs(i)           24.0
   Aux shells -> MOs(j)           24.0
   MOs        -> AO shells       169.2

Calculating integrals (1.1 sec, 4.970 MB)
Sorting integrals (0.0 sec, 4.957 MB)
Total time for the integral transformation: 1.1 sec
--------------------------------
LOCAL RI TRANSFORMATION (VABPAO)
--------------------------------

Number of PAOs:     464
Basis functions:    464 (176 shells)
Aux. functions:    1128 (344 shells)

Processing maps (0.0 sec)
Average map sizes:
   Aux shells -> PAOs            464.0
   PAOs       -> AO shells       176.0

Calculating integrals (5.1 sec, 3487.218 MB)
Finished


-------------------------------------
Pair Pair Term precalculation with     
RI-(ij|mn) and (im|jn) transformation  
ON THE FLY                             
-------------------------------------

   IBatch   1 (of   2)              ... done (   69.862 sec)
   IBatch   2 (of   2)              ... done (   74.184 sec)
Total EXT                           ...         144.046 sec

---------------------
RI-PNO TRANSFORMATION
---------------------

Total Number of PNOs                   ... 11477
Average number of PNOs per pair        ...    38
Maximal number of PNOs per pair        ...    72
   #pairs with  1 -  5 PNOs   :    0
   #pairs with  6 - 10 PNOs   :   14
   #pairs with 11 - 15 PNOs   :   48
   #pairs with 16 - 20 PNOs   :    7
   #pairs with 21 - 25 PNOs   :   26
   #pairs with 26 - 30 PNOs   :   42
   #pairs with 31 - 35 PNOs   :   12
   #pairs with 36 - 40 PNOs   :    7
   #pairs with 41 - 45 PNOs   :    6
   #pairs with 46 - 50 PNOs   :   32
   #pairs with 51 - 55 PNOs   :   50
   #pairs with 61 - 65 PNOs   :    8
   #pairs with 66 - 70 PNOs   :   40
   #pairs with 71 - 75 PNOs   :    8

Generation of (ij|ab)[P] integrals            ... on
Generation of (ia|bc)[P],(ja|bc)[P] integrals ... on
Storage of 3 and 4 external integrals         ... on
Generation of ALL (ka|bc)[P] integrals        ... on
Keep RI integrals in memory                   ... off

Ibatch:  1 (of  1)
Starting 2-4 index PNO integral generation ... done

Timings:
Total PNO integral transformation time     ...         90.865 sec
Size of the 3-external file                ...       237 MB
Size of the 4-external file                ...      1769 MB
Size of the IKJL file                      ...         0 MB
Size of the all 3-external file            ...      2850 MB
Size of the 1-external file                ...         6 MB

Making pair/pair overlap matrices          ... done (    8.183 sec)
Size of the pair overlap file              ... 723 MB
Redoing the guess amplitudes               ... done (    0.005 sec)

-------------------------
FINAL STARTUP INFORMATION
-------------------------

E(0)                                       ...   -312.358728390
E(L-MP2)                                   ...     -1.397331998
E(L-MP2) including corrections             ...     -1.397331998
Initial E(tot)                             ...   -313.756060388
<T|T>                                      ...      0.406849546
Number of pairs included                   ... 300
Total number of pairs                      ... 300

------------------------------------------------
                  RHF COUPLED CLUSTER ITERATIONS
------------------------------------------------

Number of PNO amplitudes to be optimized   ...       557087
Number of non-PNO amplitudes               ...     55987200
Untruncated number of regular amplitudes   ...     55987200

Iter       E(tot)           E(Corr)          Delta-E          Residual     Time
  0   -313.719813895     -1.359533347      0.037798651      0.012142077   17.41
                           *** Turning on DIIS ***
  1   -313.792266951     -1.431986403     -0.072453056      0.005917679   18.17
  2   -313.829557387     -1.469276839     -0.037290435      0.001611573   17.34
  3   -313.836136591     -1.475856043     -0.006579204      0.000389877   17.36
  4   -313.837311408     -1.477030861     -0.001174818      0.000100563   17.40
  5   -313.837508697     -1.477228149     -0.000197288      0.000025215   17.29
  6   -313.837540958     -1.477260410     -0.000032261      0.000007440   17.36
               --- The Coupled-Cluster iterations have converged ---

----------------------
COUPLED CLUSTER ENERGY
----------------------

E(0)                                       ...   -312.358728390
E(CORR)(strong-pairs)                      ...     -1.477260410
E(CORR)(weak-pairs)                        ...     -0.001552158
E(CORR)(corrected)                         ...     -1.478812568
E(TOT)                                     ...   -313.837540958
Singles Norm <S|S>**1/2                    ...      0.057422801  
T1 diagnostic                              ...      0.008288267  

------------------
LARGEST AMPLITUDES
------------------
  21-> 39  21-> 39       0.035217
  28-> 39  28-> 39       0.033925
  23-> 38  23-> 38       0.033419
  31-> 38  31-> 38       0.033419
  24-> 39  24-> 39       0.031531
  16-> 39  16-> 39       0.031528
  30-> 38  30-> 38       0.031018
  22-> 38  22-> 38       0.031016
  11-> 42  11-> 42       0.030414
  15-> 42  15-> 42       0.030413
  14-> 42  14-> 42       0.029778
  10-> 42  10-> 42       0.029778
  28-> 32  28-> 32       0.029134
  27-> 32  27-> 32       0.028578
  19-> 32  19-> 32       0.028578
  16-> 32  16-> 32       0.028486


-------------------------------------------
DLPNO BASED TRIPLES CORRECTION
-------------------------------------------

Singles multiplier          ...  1.000000
TCutTNO                     ... 1.000e-09
TCutMP2Pairs                ... 1.000e-06
TCutDOStrong                ... 1.000e-02
TCutMKNStrong               ... 1.000e-02
TCutDOWeak                  ... 2.000e-02
TCutMKNWeak                 ... 1.000e-01

Fragment selection                          .... not used
Number of Triples that are to be computed   ...      2576

 . . . . . . . . .
10% done  
20% done  
30% done  
40% done  
50% done  
60% done  
70% done  
80% done  
90% done               (    585.999 sec)
Triples timings:
Total time for T0               ...   624.881 sec
Total time for Iterative (T)    ...     0.000 sec
Total time of overall (T)       ...   634.296 sec

Triples List generation         ...     0.000 sec
TNO generation                  ...    38.869 sec
Pair density generation         ...     0.006 sec
Look up tables                  ...     0.000 sec
Generating 3-index integrals    ...   480.293 sec
  Make 4-ind.int. from 3-ind.int...    28.676 sec
  Projecting amplitudes (D + S) ...    42.430 sec
  Downprojecting integrals      ...     0.005 sec
  Energy contr. (sum over a,b,c)...     8.644 sec
Fitting ET(->0)                 ...     0.000 sec

Everything after 3-index        ...   105.706 sec

Timing details:
 TNO integrals                  ...   506.185 sec
   Reading 3-index integrals    ...     0.833 sec
   Sorting integrals            ...    37.616 sec
       Sorting integrals 1      ...     0.003 sec
       Sorting integrals 2      ...    26.769 sec
       Sorting integrals 3      ...     0.899 sec
       Sorting integrals 4      ...     0.079 sec
       Sorting integrals 5      ...     0.420 sec
       Sorting integrals 6      ...     9.447 sec
   Calculating local VM**-1/2   ...     1.182 sec
   Orthogonal. integrals        ...     1.633 sec
   Multipl. 3-index integrals   ...   464.922 sec
   All concerning IRIab (w/TNO) ...    15.554 sec

 Calculate W0/W1                ...    25.937 sec
 W 3-ext contribution           ...    14.493 sec
 W 3-int contribution           ...     4.070 sec
 Sorting W                      ...     6.988 sec

 V exchange contribution        ...     3.177 sec

 Timings for Triples without generation
     of 3-index integrals       ...   105.702 sec
       0 weak pairs             ...   105.702 sec
       1 weak pair              ...     0.000 sec
       2 weak pairs             ...     0.000 sec
       3 weak pairs             ...     0.000 sec
  Extra time for extrapolation  ...     0.000 sec

Number of Triples   (0, 1, 2, 3 weak pairs; overall):   2576       0       0       0  (  2576)
Number of Atoms     (0, 1, 2, 3 weak pairs; overall):   22.0     0.0     0.0     0.0  (    24)
Number of PAOs      (0, 1, 2, 3 weak pairs; overall):  434.6     0.0     0.0     0.0  (   464)
Number of AuxFcns   (0, 1, 2, 3 weak pairs; overall):  463.1     0.0     0.0     0.0  (  1128)
Number of TNOs      (0, 1, 2, 3 weak pairs         ):   96.9     0.0     0.0     0.0
Aver. Number of NTNO, Atoms, PAOs, AuxFcns / Triples:   2576    96.9    22.0   434.6   463.1

Triples Correction (T)                     ...     -0.059125236
Final correlation energy                   ...     -1.537937804
E(CCSD)                                    ...   -313.837540958
E(CCSD(T))                                 ...   -313.896666194


Maximum memory used throughout the entire calculation: 7664.4 MB


------------------------------------------------------------------------------- 
                                     TIMINGS                                   
------------------------------------------------------------------------------- 


Total execution time                   ...     1068.536 sec

Localization of occupied MO's          ...        0.768 sec (  0.1%)
Fock Matrix Formation                  ...        5.087 sec (  0.5%)
Global overlap, Fock, MKN matrices     ...        0.265 sec (  0.0%)
Differential overlap integrals         ...        0.238 sec (  0.0%)
Organizing maps                        ...        0.077 sec (  0.0%)
RI 3-index integral generations        ...       13.255 sec (  1.2%)
RI-PNO integral transformation         ...      249.750 sec ( 23.4%)
Initial Guess                          ...       41.264 sec (  3.9%)
DIIS Solver                            ...        1.936 sec (  0.2%)
State Vector Update                    ...        0.027 sec (  0.0%)
Sigma-vector construction              ...      122.081 sec ( 11.4%)
  <D|H|D>(0-ext)                       ...        3.456 sec (  2.8% of sigma)
  <D|H|D>(2-ext Fock)                  ...        0.011 sec (  0.0% of sigma)
  <D|H|D>(2-ext)                       ...       24.554 sec ( 20.1% of sigma)
  <D|H|D>(4-ext)                       ...       11.298 sec (  9.3% of sigma)
  <D|H|D>(4-ext-corr)                  ...       54.384 sec ( 44.5% of sigma)
  CCSD doubles correction              ...        0.204 sec (  0.2% of sigma)
  <S|H|S>                              ...        0.856 sec (  0.7% of sigma)
  <S|H|D>(1-ext)                       ...        0.406 sec (  0.3% of sigma)
  <D|H|S>(1-ext)                       ...        0.011 sec (  0.0% of sigma)
  <S|H|D>(3-ext)                       ...        0.410 sec (  0.3% of sigma)
  Fock-dressing                        ...       14.488 sec ( 11.9% of sigma)
  Singles amplitudes                   ...        0.569 sec (  0.5% of sigma)
  (ik|jl)-dressing                     ...        2.631 sec (  2.2% of sigma)
  (ij|ab),(ia|jb)-dressing             ...        1.932 sec (  1.6% of sigma)
  Pair energies                        ...        0.007 sec (  0.0% of sigma)
Total Time for computing (T)           ...      634.409 sec ( 59.4% of ALL)


-------------------------   --------------------
FINAL SINGLE POINT ENERGY      -313.896666194228
-------------------------   --------------------


                            ***************************************
                            *     ORCA property calculations      *
                            ***************************************

                                    ---------------------
                                    Active property flags
                                    ---------------------
   (+) Dipole Moment


------------------------------------------------------------------------------
                       ORCA ELECTRIC PROPERTIES CALCULATION
------------------------------------------------------------------------------

Dipole Moment Calculation                       ... on
Quadrupole Moment Calculation                   ... off
Polarizability Calculation                      ... off
GBWName                                         ... cyclooctane_BC.gbw
Electron density file                           ... cyclooctane_BC.scfp.tmp
The origin for moment calculation is the CENTER OF MASS  = ( 0.000816, -0.000002  0.000556)

-------------
DIPOLE MOMENT
-------------
                                X             Y             Z
Electronic contribution:      0.04071      -0.00005       0.02810
Nuclear contribution   :     -0.05218       0.00003      -0.03549
                        -----------------------------------------
Total Dipole Moment    :     -0.01147      -0.00001      -0.00739
                        -----------------------------------------
Magnitude (a.u.)       :      0.01364
Magnitude (Debye)      :      0.03467



--------------------
Rotational spectrum 
--------------------
 
Rotational constants in cm-1:     0.074615     0.070796     0.043047 
Rotational constants in MHz :  2236.902774  2122.422482  1290.524869 

 Dipole components along the rotational axes: 
x,y,z [a.u.] :     0.011472    -0.000014    -0.007380 
x,y,z [Debye]:     0.029159    -0.000036    -0.018759 

 

Timings for individual modules:

Sum of individual times         ...     1117.655 sec (=  18.628 min)
GTO integral calculation        ...        0.911 sec (=   0.015 min)   0.1 %
SCF iterations                  ...       47.708 sec (=   0.795 min)   4.3 %
MDCI module                     ...     1069.035 sec (=  17.817 min)  95.6 %
                             ****ORCA TERMINATED NORMALLY****
TOTAL RUN TIME: 0 days 0 hours 18 minutes 37 seconds 970 msec
cyclooctane_BC.gbw -> /home1/pantazis/klk/xyz_1/hydrocarbons_xyz/cyclooctane_BC.gbw
cyclooctane_BC.job -> /home1/pantazis/klk/xyz_1/hydrocarbons_xyz/cyclooctane_BC.job
cyclooctane_BC.loc -> /home1/pantazis/klk/xyz_1/hydrocarbons_xyz/cyclooctane_BC.loc
cyclooctane_BC.nodes -> /home1/pantazis/klk/xyz_1/hydrocarbons_xyz/cyclooctane_BC.nodes
cyclooctane_BC.prop -> /home1/pantazis/klk/xyz_1/hydrocarbons_xyz/cyclooctane_BC.prop
cyclooctane_BC_property.txt -> /home1/pantazis/klk/xyz_1/hydrocarbons_xyz/cyclooctane_BC_property.txt
cyclooctane_BC.xyz -> /home1/pantazis/klk/xyz_1/hydrocarbons_xyz/cyclooctane_BC.xyz
cp: cannot stat cyclooctane_BC.asa.inp: No such file or directory
