! Job execution by suborca V 6.07 on ZEUS !
Job started from zeus1, running /scratch/pantazis/cyclohexene_hc__V2ZXlj/orca/orca copied from /opt/orca on zeussn125 in /scratch/pantazis/cyclohexene_hc__V2ZXlj
Job execution start: Fri Jun 28 01:41:29 CEST 2019
Shared library path: /scratch/pantazis/cyclohexene_hc__V2ZXlj/orca:/opt/openmpi_1.10.2/lib:/opt/intel/mkl/lib/intel64:/opt/intel/lib/intel64:
PBS Job ID is: 158300.icqc
izeussn125
izeussn125
izeussn125
izeussn125
izeussn125
izeussn125
izeussn125
izeussn125

                                 *****************
                                 * O   R   C   A *
                                 *****************

           --- An Ab Initio, DFT and Semiempirical electronic structure package ---

                  #######################################################
                  #                        -***-                        #
                  #          Department of theory and spectroscopy      #
                  #               Directorship: Frank Neese             #
                  #        Max Planck Institute fuer Kohlenforschung    #
                  #                Kaiser Wilhelm Platz 1               #
                  #                 D-45470 Muelheim/Ruhr               #
                  #                      Germany                        #
                  #                                                     #
                  #                  All rights reserved                #
                  #                        -***-                        #
                  #######################################################


                         Program Version 4.1.x  -  STABLE  -
                                (SVN: $Rev: 14094$)
                ($Date: 2019-06-14 15:01:15 +0200 (Fri, 14 Jun 2019) $)

                         (BUILD: $Sun Jun 23 06:18:31 CEST 2019$)


 With contributions from (in alphabetic order):
   Daniel Aravena         : Magnetic Properties
   Michael Atanasov       : Ab Initio Ligand Field Theory
   Alexander A. Auer      : GIAO ZORA
   Ute Becker             : Parallelization
   Giovanni Bistoni       : ED, Open-shell LED
   Martin Brehm           : Molecular dynamics
   Dmytro Bykov           : SCF Hessian
   Vijay G. Chilkuri      : MRCI spin determinant printing
   Dipayan Datta          : RHF DLPNO-CCSD density
   Achintya Kumar Dutta   : EOM-CC, STEOM-CC
   Dmitry Ganyushin       : Spin-Orbit,Spin-Spin,Magnetic field MRCI
   Miquel Garcia          : C-PCM Hessian
   Yang Guo               : DLPNO-NEVPT2, CIM, IAO-localization
   Andreas Hansen         : Spin unrestricted coupled pair/coupled cluster methods
   Benjamin Helmich-Paris : CASSCF linear response (MC-RPA)
   Lee Huntington         : MR-EOM, pCC
   Robert Izsak           : Overlap fitted RIJCOSX, COSX-SCS-MP3, EOM
   Christian Kollmar      : KDIIS, OOCD, Brueckner-CCSD(T), CCSD density
   Simone Kossmann        : Meta GGA functionals, TD-DFT gradient, OOMP2, MP2 Hessian
   Martin Krupicka        : AUTO-CI
   Lucas Lang             : DCDCAS
   Dagmar Lenk            : GEPOL surface, SMD
   Dimitrios Liakos       : Extrapolation schemes; parallel MDCI
   Dimitrios Manganas     : ROCIS; embedding schemes
   Dimitrios Pantazis     : SARC Basis sets
   Taras Petrenko         : DFT Hessian,TD-DFT gradient, ASA, ECA, R-Raman, ABS, FL, XAS/XES, NRVS
   Peter Pinski           : DLPNO-MP2, DLPNO-MP2 Gradient
   Christoph Reimann      : Effective Core Potentials
   Marius Retegan         : Local ZFS, SOC
   Christoph Riplinger    : Optimizer, TS searches, QM/MM, DLPNO-CCSD(T), (RO)-DLPNO pert. Triples
   Tobias Risthaus        : Range-separated hybrids, TD-DFT gradient, RPA, STAB
   Michael Roemelt        : Restricted open shell CIS
   Masaaki Saitow         : Open-shell DLPNO
   Barbara Sandhoefer     : DKH picture change effects
   Avijit Sen             : IP-ROCIS
   Kantharuban Sivalingam : CASSCF convergence, NEVPT2, FIC-MRCI
   Bernardo de Souza      : ESD, SOC TD-DFT
   Georgi Stoychev        : AutoAux, RI-MP2 NMR
   Willem Van den Heuvel  : Paramagnetic NMR
   Boris Wezisla          : Elementary symmetry handling
   Frank Wennmohs         : Technical directorship


 We gratefully acknowledge several colleagues who have allowed us to
 interface, adapt or use parts of their codes:
   Stefan Grimme, W. Hujo, H. Kruse,             : VdW corrections, initial TS optimization,
                  C. Bannwarth                     DFT functionals, gCP, sTDA/sTD-DF
   Ed Valeev                                     : LibInt (2-el integral package), F12 methods
   Garnet Chan, S. Sharma, J. Yang, R. Olivares  : DMRG
   Ulf Ekstrom                                   : XCFun DFT Library
   Mihaly Kallay                                 : mrcc  (arbitrary order and MRCC methods)
   Andreas Klamt, Michael Diedenhofen            : otool_cosmo (COSMO solvation model)
   Jiri Pittner, Ondrej Demel                    : Mk-CCSD
   Frank Weinhold                                : gennbo (NPA and NBO analysis)
   Christopher J. Cramer and Donald G. Truhlar   : smd solvation model
   Lars Goerigk                                  : TD-DFT with DH, B97 family of functionals
   V. Asgeirsson, H. Jonsson                     : NEB implementation
   FAccTs GmbH                                   : IRC, NEB, NEB-TS, Multilevel


 Your calculation uses the libint2 library for the computation of 2-el integrals
 For citations please refer to: http://libint.valeyev.net

 This ORCA versions uses:
   CBLAS   interface :  Fast vector & matrix operations
   LAPACKE interface :  Fast linear algebra routines
   SCALAPACK package :  Parallel linear algebra routines




***************************************
The coordinates will be read from file: cyclohexene_hc.xyz
***************************************


----- Orbital basis set information -----
Your calculation utilizes the basis: cc-pVTZ 
       H, B-Ne : Obtained from the ccRepo (grant-hill.group.shef.ac.uk/ccrepo) Feb. 2017
                 T. H. Dunning, Jr., J. Chem. Phys. 90, 1007 (1989)
            He : Obtained from the ccRepo (grant-hill.group.shef.ac.uk/ccrepo) Feb. 2017
                 D. E. Woon, T. H. Dunning, Jr., J. Chem. Phys. 100, 2975 (1994)
  Li-Be, Na-Mg : Obtained from the ccRepo (grant-hill.group.shef.ac.uk/ccrepo) Feb. 2017
                 B. P. Prascher, D. E. Woon, K. A. Peterson, T. H. Dunning, Jr., A. K. Wilson, Theor. Chem. Acc. 128, 69 (2011)
         Al-Ar : Obtained from the ccRepo (grant-hill.group.shef.ac.uk/ccrepo) Feb. 2017
                 D. E. Woon, T. H. Dunning, Jr., J. Chem. Phys. 98, 1358 (1993)
            Ca : Obtained from the Peterson Research Group Website (tyr0.chem.wsu.edu/~kipeters) Feb. 2017
                 J. Koput, K. A. Peterson, J. Phys. Chem. 106, 9595 (2002)
         Sc-Zn : Obtained from the ccRepo (grant-hill.group.shef.ac.uk/ccrepo) Feb. 2017
                 N. B. Balabanov, K. A. Peterson, J. Chem. Phys. 123, 064107 (2005)
                 N. B. Balabanov, K. A. Peterson, J. Chem. Phys. 125, 074110 (2006)
         Ga-Kr : Obtained from the ccRepo (grant-hill.group.shef.ac.uk/ccrepo) Feb. 2017
                 A. K. Wilson, D. E. Woon, K. A. Peterson, T. H. Dunning, Jr., J. Chem. Phys. 110, 7667 (1999)
             Y : Obtained from the ccRepo (grant-hill.group.shef.ac.uk/ccrepo) Feb. 2017
                 K. A. Peterson, D. Figgen, M. Dolg, H. Stoll, J. Chem. Phys. 126, 124101 (2007)
        Ag, Au : Obtained from the Peterson Research Group Website (tyr0.chem.wsu.edu/~kipeters) Feb. 2017
                 K. A. Peterson, C. Puzzarini, Theor. Chem. Acc. 114, 283 (2005)

----- AuxC basis set information -----
Your calculation utilizes the auxiliary basis: cc-pVTZ/C 
  Obtained from the EMSL Basis Set Exchange (bse.pnl.gov) Feb. 2017
  H-He, B-F, Al-Ar, Ga-Kr : F. Weigend, A. Kohn, C. Hattig, J. Chem. Phys. 116, 3175 (2002)
             Li-Be, Na-Mg : C. Haettig, Phys. Chem. Chem. Phys. 7, 59 (2005)
                       Ne : C. Haettig, Phys. Chem. Chem. Phys. 7, 59 (2005)
                            F. Weigend, A. Kohn, C. Hattig, J. Chem. Phys. 116, 3175 (2002)
                    Sc-Zn : J. G. Hill, J. A. Platts, J. Chem. Phys. 128, 044104 (2008)

----- AuxJK basis set information -----
Your calculation utilizes the auxiliary basis: cc-pVTZ/JK 
  H, B-F, Al-Cl, Ga-Br : Obtained from the TURBOMOLE 7.0 basis set library

================================================================================
                                        WARNINGS
                       Please study these warnings very carefully!
================================================================================


WARNING: MDCI localization with Augmented Hessian Foster-Boys
  ===> : Switching off randomization!

WARNING: Post HF methods need fully converged wavefunctions
  ===> : Setting SCFConvForced true
         You can overwrite this default with %scf ConvForced false 


INFO   : the flag for use of LIBINT has been found!

================================================================================
                                       INPUT FILE
================================================================================
NAME = cyclohexene_hc.inp
|  1> ! RHF DLPNO-CCSD(T) cc-pVTZ RIJK cc-pVTZ/JK cc-pVTZ/C
|  2> ! KDIIS SOSCF TightSCF TightPNO
|  3> 
|  4> %pal nprocs 8 end
|  5> 
|  6> %maxcore 8000
|  7> 
|  8> %scf maxiter 300
|  9>      shift shift 0.2 erroff 0.1 end
| 10> end
| 11> 
| 12> * xyzfile 0 1 cyclohexene_hc.xyz 
| 13> 
| 14> 
| 15>                          ****END OF INPUT****
================================================================================

                       ****************************
                       * Single Point Calculation *
                       ****************************

---------------------------------
CARTESIAN COORDINATES (ANGSTROEM)
---------------------------------
  C     -0.690390   -1.186450   -0.333550
  C      0.690470   -1.186430    0.333510
  C      1.490890    0.042970   -0.118970
  C      0.668570    1.302850   -0.051510
  C     -1.490890    0.042860    0.119030
  C     -0.668680    1.302780    0.051490
  H     -1.249580   -2.119720   -0.082190
  H     -0.559340   -1.169400   -1.442210
  H      1.249740   -2.119650    0.082090
  H      0.559420   -1.169460    1.442160
  H      1.841170   -0.084590   -1.170260
  H      2.393050    0.153780    0.528240
  H      1.207970    2.264400   -0.107030
  H     -1.841050   -0.084750    1.170350
  H     -2.393120    0.153590   -0.528110
  H     -1.208150    2.264310    0.106950

----------------------------
CARTESIAN COORDINATES (A.U.)
----------------------------
  NO LB      ZA    FRAG     MASS         X           Y           Z
   0 C     6.0000    0    12.011   -1.304648   -2.242066   -0.630318
   1 C     6.0000    0    12.011    1.304799   -2.242028    0.630243
   2 C     6.0000    0    12.011    2.817374    0.081202   -0.224821
   3 C     6.0000    0    12.011    1.263414    2.462030   -0.097340
   4 C     6.0000    0    12.011   -2.817374    0.080994    0.224934
   5 C     6.0000    0    12.011   -1.263622    2.461897    0.097302
   6 H     1.0000    0     1.008   -2.361364   -4.005690   -0.155317
   7 H     1.0000    0     1.008   -1.056999   -2.209846   -2.725382
   8 H     1.0000    0     1.008    2.361666   -4.005558    0.155128
   9 H     1.0000    0     1.008    1.057151   -2.209959    2.725287
  10 H     1.0000    0     1.008    3.479307   -0.159852   -2.211471
  11 H     1.0000    0     1.008    4.522209    0.290602    0.998229
  12 H     1.0000    0     1.008    2.282732    4.279096   -0.202257
  13 H     1.0000    0     1.008   -3.479080   -0.160154    2.211641
  14 H     1.0000    0     1.008   -4.522341    0.290243   -0.997983
  15 H     1.0000    0     1.008   -2.283073    4.278926    0.202106

--------------------------------
INTERNAL COORDINATES (ANGSTROEM)
--------------------------------
 C      0   0   0     0.000000000000     0.00000000     0.00000000
 C      1   0   0     1.533539495285     0.00000000     0.00000000
 C      2   1   0     1.535198582204   109.95461753     0.00000000
 C      3   2   1     1.506007519370   111.84166203    46.63055548
 C      1   2   3     1.535197701438   109.95448935   296.84353121
 C      4   3   2     1.341210858665   123.21692055   343.96233352
 H      1   2   3     1.116632526214   110.67207518   175.13388413
 H      1   2   3     1.116508755272   109.04033520    57.49877913
 H      2   1   3     1.116644311184   110.67303128   238.28987343
 H      2   1   3     1.116497606760   109.04032059   120.65428810
 H      3   2   1     1.115427405123   110.48358804   286.26565905
 H      3   2   1     1.115819118764   109.27571486   167.93333343
 H      4   3   2     1.103908163255   117.36326229   164.95988795
 H      5   1   2     1.115423722224   110.48369541   286.27283347
 H      5   1   2     1.115827175417   109.27511572   167.93942561
 H      6   4   3     1.103921932656   119.40991107   179.36066600

---------------------------
INTERNAL COORDINATES (A.U.)
---------------------------
 C      0   0   0     0.000000000000     0.00000000     0.00000000
 C      1   0   0     2.897969661641     0.00000000     0.00000000
 C      2   1   0     2.901104881549   109.95461753     0.00000000
 C      3   2   1     2.845941767236   111.84166203    46.63055548
 C      1   2   3     2.901103217143   109.95448935   296.84353121
 C      4   3   2     2.534521210718   123.21692055   343.96233352
 H      1   2   3     2.110129666774   110.67207518   175.13388413
 H      1   2   3     2.109895773590   109.04033520    57.49877913
 H      2   1   3     2.110151937139   110.67303128   238.28987343
 H      2   1   3     2.109874705954   109.04032059   120.65428810
 H      3   2   1     2.107852317953   110.48358804   286.26565905
 H      3   2   1     2.108592549458   109.27571486   167.93333343
 H      4   3   2     2.086084105551   117.36326229   164.95988795
 H      5   1   2     2.107845358282   110.48369541   286.27283347
 H      5   1   2     2.108607774326   109.27511572   167.93942561
 H      6   4   3     2.086110125950   119.40991107   179.36066600

---------------------
BASIS SET INFORMATION
---------------------
There are 2 groups of distinct atoms

 Group   1 Type C   : 18s5p2d1f contracted to 4s3p2d1f pattern {8811/311/11/1}
 Group   2 Type H   : 5s2p1d contracted to 3s2p1d pattern {311/11/1}

Atom   0C    basis set group =>   1
Atom   1C    basis set group =>   1
Atom   2C    basis set group =>   1
Atom   3C    basis set group =>   1
Atom   4C    basis set group =>   1
Atom   5C    basis set group =>   1
Atom   6H    basis set group =>   2
Atom   7H    basis set group =>   2
Atom   8H    basis set group =>   2
Atom   9H    basis set group =>   2
Atom  10H    basis set group =>   2
Atom  11H    basis set group =>   2
Atom  12H    basis set group =>   2
Atom  13H    basis set group =>   2
Atom  14H    basis set group =>   2
Atom  15H    basis set group =>   2
-------------------------------
AUXILIARY BASIS SET INFORMATION
-------------------------------
There are 2 groups of distinct atoms

 Group   1 Type C   : 8s6p5d3f1g contracted to 8s6p5d3f1g pattern {11111111/111111/11111/111/1}
 Group   2 Type H   : 4s3p2d1f contracted to 4s3p2d1f pattern {1111/111/11/1}

Atom   0C    basis set group =>   1
Atom   1C    basis set group =>   1
Atom   2C    basis set group =>   1
Atom   3C    basis set group =>   1
Atom   4C    basis set group =>   1
Atom   5C    basis set group =>   1
Atom   6H    basis set group =>   2
Atom   7H    basis set group =>   2
Atom   8H    basis set group =>   2
Atom   9H    basis set group =>   2
Atom  10H    basis set group =>   2
Atom  11H    basis set group =>   2
Atom  12H    basis set group =>   2
Atom  13H    basis set group =>   2
Atom  14H    basis set group =>   2
Atom  15H    basis set group =>   2
-------------------------------
AUXILIARY BASIS SET INFORMATION
-------------------------------
There are 2 groups of distinct atoms

 Group   1 Type C   : 10s7p5d2f1g contracted to 10s7p5d2f1g pattern {1111111111/1111111/11111/11/1}
 Group   2 Type H   : 4s3p2d1f contracted to 4s3p2d1f pattern {1111/111/11/1}

Atom   0C    basis set group =>   1
Atom   1C    basis set group =>   1
Atom   2C    basis set group =>   1
Atom   3C    basis set group =>   1
Atom   4C    basis set group =>   1
Atom   5C    basis set group =>   1
Atom   6H    basis set group =>   2
Atom   7H    basis set group =>   2
Atom   8H    basis set group =>   2
Atom   9H    basis set group =>   2
Atom  10H    basis set group =>   2
Atom  11H    basis set group =>   2
Atom  12H    basis set group =>   2
Atom  13H    basis set group =>   2
Atom  14H    basis set group =>   2
Atom  15H    basis set group =>   2


           ************************************************************
           *        Program running with 8 parallel MPI-processes     *
           *              working on a common directory               *
           ************************************************************
------------------------------------------------------------------------------
                           ORCA GTO INTEGRAL CALCULATION
                           -- RI-GTO INTEGRALS CHOSEN --
------------------------------------------------------------------------------

                         BASIS SET STATISTICS AND STARTUP INFO

Gaussian basis set:
 # of primitive gaussian shells          ...  236
 # of primitive gaussian functions       ...  460
 # of contracted shells                  ...  120
 # of contracted basis functions         ...  320
 Highest angular momentum                ...    3
 Maximum contraction depth               ...    8
Auxiliary gaussian basis set:
 # of primitive gaussian shells          ...  250
 # of primitive gaussian functions       ...  774
 # of contracted shells                  ...  250
 # of contracted aux-basis functions     ...  774
 Highest angular momentum                ...    4
 Maximum contraction depth               ...    1
Ratio of auxiliary to basis functions    ...  2.42
Integral package used                  ... LIBINT
 One Electron integrals                  ... done
 Ordering auxiliary basis shells         ... done
 Integral threshhold             Thresh  ...  2.500e-11
 Primitive cut-off               TCut    ...  2.500e-12
 Pre-screening matrix                    ... done
 Shell pair data                         ... 
 Ordering of the shell pairs             ... done (   0.001 sec) 7064 of 7260 pairs
 Determination of significant pairs      ... done (   0.000 sec)
 Creation of shell pair data             ... done (   0.002 sec)
 Storage of shell pair data              ... done (   0.002 sec)
 Shell pair data done in (   0.005 sec)
 Computing two index integrals           ... done
 Cholesky decomposition of the V-matrix  ... done


Timings:
 Total evaluation time                   ...   0.450 sec (  0.007 min)
 One electron matrix time                ...   0.087 sec (  0.001 min) = 19.3%
 Schwartz matrix evaluation time         ...   0.227 sec (  0.004 min) = 50.4%
 Two index repulsion integral time       ...   0.055 sec (  0.001 min) = 12.3%
 Cholesky decomposition of V             ...   0.049 sec (  0.001 min) = 11.0%
 Three index repulsion integral time     ...   0.000 sec (  0.000 min) =  0.0%



           ************************************************************
           *        Program running with 8 parallel MPI-processes     *
           *              working on a common directory               *
           ************************************************************
-------------------------------------------------------------------------------
                                 ORCA SCF
-------------------------------------------------------------------------------

------------
SCF SETTINGS
------------
Hamiltonian:
 Ab initio Hamiltonian  Method          .... Hartree-Fock(GTOs)
 RI-approximation to the Coulomb term is turned on
   Number of auxiliary basis functions  .... 774
   RI-JK (J+K treated both via RI)      .... on


General Settings:
 Integral files         IntName         .... cyclohexene_hc
 Hartree-Fock type      HFTyp           .... RHF
 Total Charge           Charge          ....    0
 Multiplicity           Mult            ....    1
 Number of Electrons    NEL             ....   46
 Basis Dimension        Dim             ....  320
 Nuclear Repulsion      ENuc            ....    235.9662334366 Eh

Convergence Acceleration:
 DIIS                   CNVDIIS         .... off
 Newton-Raphson         CNVNR           .... off
 SOSCF                  CNVSOSCF        .... on
   Start iteration      SOSCFMaxIt      ....   150
   Startup grad/error   SOSCFStart      ....  0.003300
 Level Shifting         CNVShift        .... on
   Level shift para.    LevelShift      ....    0.2000
   Turn off err/grad.   ShiftErr        ....    0.1000
 Zerner damping         CNVZerner       .... off
 Static damping         CNVDamp         .... off
 Fernandez-Rico         CNVRico         .... off

SCF Procedure:
 Maximum # iterations   MaxIter         ....   300
 SCF integral mode      SCFMode         .... Direct
   Integral package                     .... LIBINT
 Reset frequency        DirectResetFreq ....    20
 Integral Threshold     Thresh          ....  2.500e-11 Eh
 Primitive CutOff       TCut            ....  2.500e-12 Eh

Convergence Tolerance:
 Convergence Check Mode ConvCheckMode   .... Total+1el-Energy
 Convergence forced     ConvForced      .... 1
 Energy Change          TolE            ....  1.000e-08 Eh
 1-El. energy change                    ....  1.000e-05 Eh
 Orbital Gradient       TolG            ....  1.000e-05
 Orbital Rotation angle TolX            ....  1.000e-05


Diagonalization of the overlap matrix:
Smallest eigenvalue                        ... 1.665e-04
Time for diagonalization                   ...    0.021 sec
Threshold for overlap eigenvalues          ... 1.000e-08
Number of eigenvalues below threshold      ... 0
Time for construction of square roots      ...    0.029 sec
Total time needed                          ...    0.051 sec

-------------------
DFT GRID GENERATION
-------------------

General Integration Accuracy     IntAcc      ...  4.340
Radial Grid Type                 RadialGrid  ... Gauss-Chebyshev
Angular Grid (max. acc.)         AngularGrid ... Lebedev-110
Angular grid pruning method      GridPruning ... 3 (G Style)
Weight generation scheme         WeightScheme... Becke
Basis function cutoff            BFCut       ...    1.0000e-11
Integration weight cutoff        WCut        ...    1.0000e-14
Grids for H and He will be reduced by one unit

# of grid points (after initial pruning)     ...  17876 (   0.0 sec)
# of grid points (after weights+screening)   ...  16482 (   0.0 sec)
nearest neighbour list constructed           ...    0.0 sec
Grid point re-assignment to atoms done       ...    0.0 sec
Grid point division into batches done        ...    0.0 sec
Reduced shell lists constructed in    0.1 sec

Total number of grid points                  ...    16482
Total number of batches                      ...      266
Average number of points per batch           ...       61
Average number of grid points per atom       ...     1030
Average number of shells per batch           ...   107.17 (89.31%)
Average number of basis functions per batch  ...   284.60 (88.94%)
Average number of large shells per batch     ...    90.86 (84.78%)
Average number of large basis fcns per batch ...   238.74 (83.89%)
Average number of aux-shells per batch       ...   107.17 (42.87%)
Average number of aux functions per batch    ...   284.60 (36.77%)
Maximum spatial batch extension              ...   2.57,  2.40,  2.09 au
Average spatial batch extension              ...   0.20,  0.19,  0.18 au

Time for grid setup =    0.131 sec

------------------------------
INITIAL GUESS: MODEL POTENTIAL
------------------------------
Loading Hartree-Fock densities                     ... done
Calculating cut-offs                               ... done
Setting up the integral package                    ... done
Initializing the effective Hamiltonian             ... done
Starting the Coulomb interaction                   ... done (   0.0 sec)
Reading the grid                                   ... done
Mapping shells                                     ... done
Starting the XC term evaluation                    ... done (   0.1 sec)
Transforming the Hamiltonian                       ... done (   0.0 sec)
Diagonalizing the Hamiltonian                      ... done (   0.0 sec)
Back transforming the eigenvectors                 ... done (   0.0 sec)
Now organizing SCF variables                       ... done
                      ------------------
                      INITIAL GUESS DONE (   0.4 sec)
                      ------------------
--------------
SCF ITERATIONS
--------------
ITER       Energy         Delta-E        Max-DP      RMS-DP      [F,P]   Gradient Norm
                             ****Turning on KDIIS(Cayley)****
  0   -232.7553479572   0.000000000000 0.00970911  0.00026689  0.0915056   0.147371759
  1   -232.8507357812  -0.095387823936 0.01795445  0.00031277  0.0836456   0.127771798
  2   -232.9298636617  -0.079127880537 0.02928114  0.00053293  0.0673656   0.103849727
  3   -233.0278328503  -0.097969188635 0.04452395  0.00086158  0.0403750   0.064101687
                      *** Initiating the SOSCF procedure ***
                           *** Shutting down KDIIS ***
                      *** Re-Reading the Fockian *** 
                      *** Removing any level shift *** 
ITER      Energy       Delta-E        Grad      Rot      Max-DP    RMS-DP
  4   -233.09166344  -0.0638305872  0.003103  0.003103  0.002329  0.000086
  5   -233.09195260  -0.0002891615  0.001325  0.001749  0.001529  0.000052
  6   -233.09198794  -0.0000353383  0.000599  0.000430  0.000653  0.000023
  7   -233.09199906  -0.0000111204  0.000063  0.000105  0.000277  0.000008
  8   -233.09199935  -0.0000002943  0.000027  0.000050  0.000127  0.000003
  9   -233.09199938  -0.0000000294  0.000006  0.000007  0.000016  0.000001
 10   -233.09199938  -0.0000000035  0.000003  0.000004  0.000008  0.000000
                  ***Gradient check signals convergence***
              ***Rediagonalizing the Fockian in SOSCF/NRSCF***

               *****************************************************
               *                     SUCCESS                       *
               *           SCF CONVERGED AFTER  11 CYCLES          *
               *****************************************************


----------------
TOTAL SCF ENERGY
----------------

Total Energy       :         -233.09199939 Eh           -6342.75576 eV

Components:
Nuclear Repulsion  :          235.96623344 Eh            6420.96765 eV
Electronic Energy  :         -469.05823282 Eh          -12763.72341 eV
One Electron Energy:         -781.20004271 Eh          -21257.53387 eV
Two Electron Energy:          312.14180989 Eh            8493.81046 eV

Virial components:
Potential Energy   :         -465.56889946 Eh          -12668.77382 eV
Kinetic Energy     :          232.47690008 Eh            6326.01806 eV
Virial Ratio       :            2.00264585


---------------
SCF CONVERGENCE
---------------

  Last Energy change         ...   -3.2196e-10  Tolerance :   1.0000e-08
  Last MAX-Density change    ...    3.0398e-06  Tolerance :   1.0000e-07
  Last RMS-Density change    ...    8.2915e-08  Tolerance :   5.0000e-09
  Last Orbital Gradient      ...    1.1275e-06  Tolerance :   1.0000e-05
  Last Orbital Rotation      ...    2.3138e-06  Tolerance :   1.0000e-05

             **** THE GBW FILE WAS UPDATED (cyclohexene_hc.gbw) ****
             **** DENSITY FILE WAS UPDATED (cyclohexene_hc.scfp.tmp) ****
             **** ENERGY FILE WAS UPDATED (cyclohexene_hc.en.tmp) ****
----------------
ORBITAL ENERGIES
----------------

  NO   OCC          E(Eh)            E(eV) 
   0   2.0000     -11.226208      -305.4806 
   1   2.0000     -11.226203      -305.4805 
   2   2.0000     -11.223241      -305.3999 
   3   2.0000     -11.222639      -305.3835 
   4   2.0000     -11.222490      -305.3795 
   5   2.0000     -11.220846      -305.3347 
   6   2.0000      -1.115096       -30.3433 
   7   2.0000      -0.998840       -27.1798 
   8   2.0000      -0.996582       -27.1184 
   9   2.0000      -0.837218       -22.7819 
  10   2.0000      -0.809107       -22.0169 
  11   2.0000      -0.692031       -18.8311 
  12   2.0000      -0.659936       -17.9578 
  13   2.0000      -0.605359       -16.4727 
  14   2.0000      -0.580199       -15.7880 
  15   2.0000      -0.561042       -15.2667 
  16   2.0000      -0.534498       -14.5444 
  17   2.0000      -0.526339       -14.3224 
  18   2.0000      -0.519705       -14.1419 
  19   2.0000      -0.464024       -12.6267 
  20   2.0000      -0.444645       -12.0994 
  21   2.0000      -0.432987       -11.7822 
  22   2.0000      -0.338986        -9.2243 
  23   0.0000       0.135550         3.6885 
  24   0.0000       0.165339         4.4991 
  25   0.0000       0.167681         4.5628 
  26   0.0000       0.170622         4.6429 
  27   0.0000       0.180936         4.9235 
  28   0.0000       0.201764         5.4903 
  29   0.0000       0.204467         5.5638 
  30   0.0000       0.219378         5.9696 
  31   0.0000       0.227412         6.1882 
  32   0.0000       0.238075         6.4784 
  33   0.0000       0.253823         6.9069 
  34   0.0000       0.306927         8.3519 
  35   0.0000       0.335032         9.1167 
  36   0.0000       0.360118         9.7993 
  37   0.0000       0.373842        10.1728 
  38   0.0000       0.374742        10.1973 
  39   0.0000       0.400756        10.9051 
  40   0.0000       0.402195        10.9443 
  41   0.0000       0.435317        11.8456 
  42   0.0000       0.463613        12.6156 
  43   0.0000       0.466946        12.7062 
  44   0.0000       0.478548        13.0219 
  45   0.0000       0.485499        13.2111 
  46   0.0000       0.507320        13.8049 
  47   0.0000       0.525335        14.2951 
  48   0.0000       0.573939        15.6177 
  49   0.0000       0.584278        15.8990 
  50   0.0000       0.584493        15.9049 
  51   0.0000       0.587767        15.9940 
  52   0.0000       0.596625        16.2350 
  53   0.0000       0.609514        16.5857 
  54   0.0000       0.613838        16.7034 
  55   0.0000       0.630838        17.1660 
  56   0.0000       0.634074        17.2540 
  57   0.0000       0.644866        17.5477 
  58   0.0000       0.646111        17.5816 
  59   0.0000       0.653118        17.7722 
  60   0.0000       0.659975        17.9588 
  61   0.0000       0.674002        18.3405 
  62   0.0000       0.679995        18.5036 
  63   0.0000       0.682132        18.5618 
  64   0.0000       0.700202        19.0535 
  65   0.0000       0.714444        19.4410 
  66   0.0000       0.765960        20.8428 
  67   0.0000       0.803434        21.8625 
  68   0.0000       0.812674        22.1140 
  69   0.0000       0.842867        22.9356 
  70   0.0000       0.848780        23.0965 
  71   0.0000       0.867758        23.6129 
  72   0.0000       0.913653        24.8618 
  73   0.0000       0.949734        25.8436 
  74   0.0000       0.960818        26.1452 
  75   0.0000       0.971552        26.4373 
  76   0.0000       0.991199        26.9719 
  77   0.0000       1.015328        27.6285 
  78   0.0000       1.016767        27.6676 
  79   0.0000       1.069146        29.0929 
  80   0.0000       1.111684        30.2505 
  81   0.0000       1.120471        30.4896 
  82   0.0000       1.153579        31.3905 
  83   0.0000       1.154245        31.4086 
  84   0.0000       1.167156        31.7599 
  85   0.0000       1.187929        32.3252 
  86   0.0000       1.210072        32.9277 
  87   0.0000       1.220498        33.2114 
  88   0.0000       1.250085        34.0165 
  89   0.0000       1.252674        34.0870 
  90   0.0000       1.272740        34.6330 
  91   0.0000       1.274789        34.6888 
  92   0.0000       1.285792        34.9882 
  93   0.0000       1.300953        35.4007 
  94   0.0000       1.325963        36.0813 
  95   0.0000       1.339338        36.4452 
  96   0.0000       1.349297        36.7162 
  97   0.0000       1.353350        36.8265 
  98   0.0000       1.383829        37.6559 
  99   0.0000       1.386537        37.7296 
 100   0.0000       1.396250        37.9939 
 101   0.0000       1.415393        38.5148 
 102   0.0000       1.444612        39.3099 
 103   0.0000       1.456283        39.6275 
 104   0.0000       1.466764        39.9127 
 105   0.0000       1.470595        40.0169 
 106   0.0000       1.508769        41.0557 
 107   0.0000       1.511417        41.1277 
 108   0.0000       1.525666        41.5155 
 109   0.0000       1.534314        41.7508 
 110   0.0000       1.548462        42.1358 
 111   0.0000       1.558533        42.4098 
 112   0.0000       1.573575        42.8191 
 113   0.0000       1.605156        43.6785 
 114   0.0000       1.607133        43.7323 
 115   0.0000       1.634335        44.4725 
 116   0.0000       1.655513        45.0488 
 117   0.0000       1.665368        45.3170 
 118   0.0000       1.682013        45.7699 
 119   0.0000       1.687573        45.9212 
 120   0.0000       1.697485        46.1909 
 121   0.0000       1.709384        46.5147 
 122   0.0000       1.731645        47.1205 
 123   0.0000       1.734009        47.1848 
 124   0.0000       1.763671        47.9919 
 125   0.0000       1.787844        48.6497 
 126   0.0000       1.846555        50.2473 
 127   0.0000       1.846866        50.2558 
 128   0.0000       1.881740        51.2048 
 129   0.0000       1.965583        53.4862 
 130   0.0000       1.985470        54.0274 
 131   0.0000       2.065007        56.1917 
 132   0.0000       2.066687        56.2374 
 133   0.0000       2.281785        62.0905 
 134   0.0000       2.436371        66.2970 
 135   0.0000       2.471359        67.2491 
 136   0.0000       2.543205        69.2041 
 137   0.0000       2.572507        70.0015 
 138   0.0000       2.639768        71.8317 
 139   0.0000       2.652450        72.1768 
 140   0.0000       2.684628        73.0525 
 141   0.0000       2.693905        73.3049 
 142   0.0000       2.750211        74.8370 
 143   0.0000       2.763850        75.2082 
 144   0.0000       2.778893        75.6175 
 145   0.0000       2.785406        75.7948 
 146   0.0000       2.797223        76.1163 
 147   0.0000       2.802325        76.2551 
 148   0.0000       2.820789        76.7576 
 149   0.0000       2.872325        78.1599 
 150   0.0000       2.883063        78.4521 
 151   0.0000       2.901625        78.9572 
 152   0.0000       2.902312        78.9759 
 153   0.0000       2.921459        79.4969 
 154   0.0000       2.952193        80.3333 
 155   0.0000       2.962782        80.6214 
 156   0.0000       2.969015        80.7910 
 157   0.0000       2.979087        81.0651 
 158   0.0000       2.987893        81.3047 
 159   0.0000       3.007895        81.8490 
 160   0.0000       3.053571        83.0919 
 161   0.0000       3.053827        83.0989 
 162   0.0000       3.058627        83.2295 
 163   0.0000       3.091325        84.1192 
 164   0.0000       3.094469        84.2048 
 165   0.0000       3.134623        85.2974 
 166   0.0000       3.141453        85.4833 
 167   0.0000       3.194055        86.9147 
 168   0.0000       3.225446        87.7689 
 169   0.0000       3.250151        88.4411 
 170   0.0000       3.254332        88.5549 
 171   0.0000       3.261644        88.7538 
 172   0.0000       3.271178        89.0133 
 173   0.0000       3.294459        89.6468 
 174   0.0000       3.312499        90.1377 
 175   0.0000       3.324361        90.4605 
 176   0.0000       3.360153        91.4344 
 177   0.0000       3.361586        91.4734 
 178   0.0000       3.388431        92.2039 
 179   0.0000       3.390571        92.2621 
 180   0.0000       3.398729        92.4841 
 181   0.0000       3.412090        92.8477 
 182   0.0000       3.416436        92.9660 
 183   0.0000       3.418607        93.0250 
 184   0.0000       3.459717        94.1437 
 185   0.0000       3.461972        94.2050 
 186   0.0000       3.470741        94.4437 
 187   0.0000       3.486035        94.8598 
 188   0.0000       3.499506        95.2264 
 189   0.0000       3.504349        95.3582 
 190   0.0000       3.524134        95.8966 
 191   0.0000       3.537974        96.2732 
 192   0.0000       3.557971        96.8173 
 193   0.0000       3.574702        97.2726 
 194   0.0000       3.588237        97.6409 
 195   0.0000       3.619337        98.4872 
 196   0.0000       3.630429        98.7890 
 197   0.0000       3.635517        98.9274 
 198   0.0000       3.651913        99.3736 
 199   0.0000       3.675075       100.0039 
 200   0.0000       3.700043       100.6833 
 201   0.0000       3.703925       100.7889 
 202   0.0000       3.719485       101.2123 
 203   0.0000       3.722708       101.3000 
 204   0.0000       3.762457       102.3817 
 205   0.0000       3.797644       103.3392 
 206   0.0000       3.808227       103.6271 
 207   0.0000       3.828107       104.1681 
 208   0.0000       3.847672       104.7005 
 209   0.0000       3.849529       104.7510 
 210   0.0000       3.879227       105.5591 
 211   0.0000       3.916604       106.5762 
 212   0.0000       3.924638       106.7948 
 213   0.0000       3.944906       107.3464 
 214   0.0000       3.965964       107.9194 
 215   0.0000       3.972814       108.1058 
 216   0.0000       3.996350       108.7462 
 217   0.0000       4.015875       109.2775 
 218   0.0000       4.029323       109.6434 
 219   0.0000       4.050406       110.2171 
 220   0.0000       4.066078       110.6436 
 221   0.0000       4.075968       110.9127 
 222   0.0000       4.079899       111.0197 
 223   0.0000       4.097208       111.4907 
 224   0.0000       4.137396       112.5843 
 225   0.0000       4.138592       112.6168 
 226   0.0000       4.140134       112.6588 
 227   0.0000       4.165683       113.3540 
 228   0.0000       4.178388       113.6997 
 229   0.0000       4.201537       114.3296 
 230   0.0000       4.223499       114.9272 
 231   0.0000       4.229628       115.0940 
 232   0.0000       4.255489       115.7977 
 233   0.0000       4.272453       116.2593 
 234   0.0000       4.275114       116.3318 
 235   0.0000       4.285203       116.6063 
 236   0.0000       4.308896       117.2510 
 237   0.0000       4.313330       117.3717 
 238   0.0000       4.330580       117.8411 
 239   0.0000       4.330844       117.8483 
 240   0.0000       4.332139       117.8835 
 241   0.0000       4.370556       118.9289 
 242   0.0000       4.414824       120.1335 
 243   0.0000       4.431188       120.5788 
 244   0.0000       4.440837       120.8413 
 245   0.0000       4.443015       120.9006 
 246   0.0000       4.457099       121.2838 
 247   0.0000       4.479698       121.8988 
 248   0.0000       4.484779       122.0371 
 249   0.0000       4.505778       122.6085 
 250   0.0000       4.513009       122.8052 
 251   0.0000       4.529022       123.2409 
 252   0.0000       4.560346       124.0933 
 253   0.0000       4.561268       124.1184 
 254   0.0000       4.596565       125.0789 
 255   0.0000       4.608055       125.3915 
 256   0.0000       4.611773       125.4927 
 257   0.0000       4.643029       126.3432 
 258   0.0000       4.682374       127.4139 
 259   0.0000       4.682840       127.4265 
 260   0.0000       4.712089       128.2225 
 261   0.0000       4.769204       129.7766 
 262   0.0000       4.809847       130.8826 
 263   0.0000       4.830547       131.4459 
 264   0.0000       4.835958       131.5931 
 265   0.0000       4.841001       131.7303 
 266   0.0000       4.900512       133.3497 
 267   0.0000       4.913307       133.6979 
 268   0.0000       4.965162       135.1089 
 269   0.0000       4.966607       135.1482 
 270   0.0000       4.998865       136.0260 
 271   0.0000       5.030563       136.8886 
 272   0.0000       5.036339       137.0457 
 273   0.0000       5.076297       138.1331 
 274   0.0000       5.088301       138.4597 
 275   0.0000       5.146275       140.0373 
 276   0.0000       5.147037       140.0580 
 277   0.0000       5.172122       140.7406 
 278   0.0000       5.182220       141.0154 
 279   0.0000       5.206376       141.6727 
 280   0.0000       5.255297       143.0039 
 281   0.0000       5.277175       143.5992 
 282   0.0000       5.292063       144.0044 
 283   0.0000       5.332651       145.1088 
 284   0.0000       5.336202       145.2054 
 285   0.0000       5.338449       145.2666 
 286   0.0000       5.390183       146.6743 
 287   0.0000       5.397497       146.8734 
 288   0.0000       5.431545       147.7999 
 289   0.0000       5.468418       148.8032 
 290   0.0000       5.488214       149.3419 
 291   0.0000       5.542776       150.8266 
 292   0.0000       5.572345       151.6312 
 293   0.0000       5.586752       152.0233 
 294   0.0000       5.615430       152.8036 
 295   0.0000       5.635967       153.3625 
 296   0.0000       5.673182       154.3751 
 297   0.0000       5.692790       154.9087 
 298   0.0000       5.701935       155.1575 
 299   0.0000       5.741680       156.2391 
 300   0.0000       5.749132       156.4418 
 301   0.0000       5.804231       157.9412 
 302   0.0000       5.836399       158.8165 
 303   0.0000       5.876991       159.9210 
 304   0.0000       5.898227       160.4989 
 305   0.0000       6.018640       163.7755 
 306   0.0000       6.071895       165.2247 
 307   0.0000       6.134702       166.9337 
 308   0.0000       6.191987       168.4925 
 309   0.0000       6.310790       171.7253 
 310   0.0000       6.348502       172.7515 
 311   0.0000       6.416184       174.5933 
 312   0.0000       6.436026       175.1332 
 313   0.0000       6.503408       176.9667 
 314   0.0000      10.512549       286.0610 
 315   0.0000      12.473896       339.4320 
 316   0.0000      13.048496       355.0676 
 317   0.0000      13.218030       359.6809 
 318   0.0000      13.561934       369.0390 
 319   0.0000      14.475249       393.8916 

                    ********************************
                    * MULLIKEN POPULATION ANALYSIS *
                    ********************************

-----------------------
MULLIKEN ATOMIC CHARGES
-----------------------
   0 C :   -0.176090
   1 C :   -0.176092
   2 C :   -0.132622
   3 C :   -0.199541
   4 C :   -0.132618
   5 C :   -0.199528
   6 H :    0.096212
   7 H :    0.083925
   8 H :    0.096209
   9 H :    0.083929
  10 H :    0.090948
  11 H :    0.093910
  12 H :    0.143253
  13 H :    0.090953
  14 H :    0.093909
  15 H :    0.143242
Sum of atomic charges:   -0.0000000

--------------------------------
MULLIKEN REDUCED ORBITAL CHARGES
--------------------------------
  0 C s       :     3.214495  s :     3.214495
      pz      :     0.977190  p :     2.841194
      px      :     0.909711
      py      :     0.954292
      dz2     :     0.035730  d :     0.113647
      dxz     :     0.016829
      dyz     :     0.009702
      dx2y2   :     0.021164
      dxy     :     0.030223
      f0      :     0.001378  f :     0.006754
      f+1     :     0.000861
      f-1     :     0.000398
      f+2     :     0.000765
      f-2     :     0.000712
      f+3     :     0.001505
      f-3     :     0.001136
  1 C s       :     3.214497  s :     3.214497
      pz      :     0.977199  p :     2.841193
      px      :     0.909717
      py      :     0.954277
      dz2     :     0.035729  d :     0.113647
      dxz     :     0.016829
      dyz     :     0.009703
      dx2y2   :     0.021162
      dxy     :     0.030224
      f0      :     0.001378  f :     0.006754
      f+1     :     0.000861
      f-1     :     0.000398
      f+2     :     0.000765
      f-2     :     0.000712
      f+3     :     0.001505
      f-3     :     0.001136
  2 C s       :     3.202847  s :     3.202847
      pz      :     0.983720  p :     2.811776
      px      :     0.959832
      py      :     0.868224
      dz2     :     0.022457  d :     0.111253
      dxz     :     0.026760
      dyz     :     0.015684
      dx2y2   :     0.023918
      dxy     :     0.022434
      f0      :     0.001021  f :     0.006746
      f+1     :     0.000880
      f-1     :     0.000735
      f+2     :     0.000324
      f-2     :     0.000913
      f+3     :     0.001616
      f-3     :     0.001257
  3 C s       :     3.265285  s :     3.265285
      pz      :     0.968021  p :     2.822256
      px      :     0.894154
      py      :     0.960080
      dz2     :     0.007041  d :     0.103147
      dxz     :     0.027129
      dyz     :     0.005720
      dx2y2   :     0.023129
      dxy     :     0.040127
      f0      :     0.001216  f :     0.008853
      f+1     :     0.000752
      f-1     :     0.000896
      f+2     :     0.000930
      f-2     :     0.000387
      f+3     :     0.002397
      f-3     :     0.002277
  4 C s       :     3.202846  s :     3.202846
      pz      :     0.983719  p :     2.811773
      px      :     0.959832
      py      :     0.868221
      dz2     :     0.022460  d :     0.111253
      dxz     :     0.026755
      dyz     :     0.015685
      dx2y2   :     0.023920
      dxy     :     0.022432
      f0      :     0.001021  f :     0.006746
      f+1     :     0.000880
      f-1     :     0.000735
      f+2     :     0.000324
      f-2     :     0.000913
      f+3     :     0.001616
      f-3     :     0.001257
  5 C s       :     3.265274  s :     3.265274
      pz      :     0.968021  p :     2.822253
      px      :     0.894161
      py      :     0.960071
      dz2     :     0.007041  d :     0.103147
      dxz     :     0.027128
      dyz     :     0.005721
      dx2y2   :     0.023129
      dxy     :     0.040128
      f0      :     0.001216  f :     0.008854
      f+1     :     0.000752
      f-1     :     0.000896
      f+2     :     0.000930
      f-2     :     0.000387
      f+3     :     0.002397
      f-3     :     0.002277
  6 H s       :     0.872714  s :     0.872714
      pz      :     0.007026  p :     0.028704
      px      :     0.009792
      py      :     0.011886
      dz2     :     0.000315  d :     0.002370
      dxz     :     0.000169
      dyz     :     0.000400
      dx2y2   :     0.000839
      dxy     :     0.000647
  7 H s       :     0.886015  s :     0.886015
      pz      :     0.012651  p :     0.027709
      px      :     0.007859
      py      :     0.007198
      dz2     :     0.000751  d :     0.002352
      dxz     :     0.000859
      dyz     :     0.000682
      dx2y2   :     0.000010
      dxy     :     0.000051
  8 H s       :     0.872718  s :     0.872718
      pz      :     0.007026  p :     0.028704
      px      :     0.009792
      py      :     0.011886
      dz2     :     0.000315  d :     0.002370
      dxz     :     0.000169
      dyz     :     0.000400
      dx2y2   :     0.000839
      dxy     :     0.000647
  9 H s       :     0.886010  s :     0.886010
      pz      :     0.012651  p :     0.027709
      px      :     0.007859
      py      :     0.007199
      dz2     :     0.000750  d :     0.002352
      dxz     :     0.000859
      dyz     :     0.000682
      dx2y2   :     0.000010
      dxy     :     0.000051
 10 H s       :     0.878017  s :     0.878017
      pz      :     0.011498  p :     0.028622
      px      :     0.008875
      py      :     0.008249
      dz2     :     0.000693  d :     0.002413
      dxz     :     0.000726
      dyz     :     0.000744
      dx2y2   :     0.000059
      dxy     :     0.000191
 11 H s       :     0.873802  s :     0.873802
      pz      :     0.008018  p :     0.029848
      px      :     0.012964
      py      :     0.008865
      dz2     :     0.000506  d :     0.002441
      dxz     :     0.000539
      dyz     :     0.000233
      dx2y2   :     0.000402
      dxy     :     0.000761
 12 H s       :     0.830680  s :     0.830680
      pz      :     0.009768  p :     0.023892
      px      :     0.004247
      py      :     0.009877
      dz2     :     0.000164  d :     0.002174
      dxz     :     0.000241
      dyz     :     0.000374
      dx2y2   :     0.000933
      dxy     :     0.000463
 13 H s       :     0.878011  s :     0.878011
      pz      :     0.011499  p :     0.028623
      px      :     0.008875
      py      :     0.008249
      dz2     :     0.000693  d :     0.002413
      dxz     :     0.000726
      dyz     :     0.000745
      dx2y2   :     0.000059
      dxy     :     0.000191
 14 H s       :     0.873803  s :     0.873803
      pz      :     0.008018  p :     0.029847
      px      :     0.012965
      py      :     0.008865
      dz2     :     0.000506  d :     0.002441
      dxz     :     0.000539
      dyz     :     0.000232
      dx2y2   :     0.000402
      dxy     :     0.000761
 15 H s       :     0.830691  s :     0.830691
      pz      :     0.009768  p :     0.023892
      px      :     0.004247
      py      :     0.009877
      dz2     :     0.000164  d :     0.002174
      dxz     :     0.000241
      dyz     :     0.000374
      dx2y2   :     0.000933
      dxy     :     0.000463


                     *******************************
                     * LOEWDIN POPULATION ANALYSIS *
                     *******************************

----------------------
LOEWDIN ATOMIC CHARGES
----------------------
   0 C :    0.048640
   1 C :    0.048640
   2 C :    0.035044
   3 C :    0.014484
   4 C :    0.035039
   5 C :    0.014472
   6 H :   -0.020972
   7 H :   -0.017844
   8 H :   -0.020966
   9 H :   -0.017850
  10 H :   -0.016381
  11 H :   -0.015792
  12 H :   -0.027177
  13 H :   -0.016380
  14 H :   -0.015785
  15 H :   -0.027171

-------------------------------
LOEWDIN REDUCED ORBITAL CHARGES
-------------------------------
  0 C s       :     2.667128  s :     2.667128
      pz      :     0.957948  p :     2.821478
      px      :     0.927296
      py      :     0.936234
      dz2     :     0.122490  d :     0.422968
      dxz     :     0.064378
      dyz     :     0.036211
      dx2y2   :     0.084557
      dxy     :     0.115332
      f0      :     0.005171  f :     0.039786
      f+1     :     0.005692
      f-1     :     0.003228
      f+2     :     0.006004
      f-2     :     0.005966
      f+3     :     0.006506
      f-3     :     0.007219
  1 C s       :     2.667129  s :     2.667129
      pz      :     0.957954  p :     2.821480
      px      :     0.927297
      py      :     0.936229
      dz2     :     0.122486  d :     0.422966
      dxz     :     0.064375
      dyz     :     0.036215
      dx2y2   :     0.084551
      dxy     :     0.115339
      f0      :     0.005171  f :     0.039786
      f+1     :     0.005691
      f-1     :     0.003227
      f+2     :     0.006004
      f-2     :     0.005966
      f+3     :     0.006506
      f-3     :     0.007219
  2 C s       :     2.663515  s :     2.663515
      pz      :     0.964823  p :     2.833961
      px      :     0.938843
      py      :     0.930295
      dz2     :     0.080923  d :     0.426964
      dxz     :     0.088050
      dyz     :     0.058656
      dx2y2   :     0.102009
      dxy     :     0.097325
      f0      :     0.004975  f :     0.040516
      f+1     :     0.003597
      f-1     :     0.005338
      f+2     :     0.004878
      f-2     :     0.005830
      f+3     :     0.006840
      f-3     :     0.009058
  3 C s       :     2.716247  s :     2.716247
      pz      :     0.845784  p :     2.817729
      px      :     1.026904
      py      :     0.945041
      dz2     :     0.028001  d :     0.412433
      dxz     :     0.075861
      dyz     :     0.027922
      dx2y2   :     0.118077
      dxy     :     0.162571
      f0      :     0.002313  f :     0.039107
      f+1     :     0.003474
      f-1     :     0.002737
      f+2     :     0.005291
      f-2     :     0.003090
      f+3     :     0.008322
      f-3     :     0.013881
  4 C s       :     2.663512  s :     2.663512
      pz      :     0.964819  p :     2.833961
      px      :     0.938843
      py      :     0.930299
      dz2     :     0.080935  d :     0.426971
      dxz     :     0.088036
      dyz     :     0.058661
      dx2y2   :     0.102018
      dxy     :     0.097321
      f0      :     0.004976  f :     0.040517
      f+1     :     0.003596
      f-1     :     0.005338
      f+2     :     0.004878
      f-2     :     0.005831
      f+3     :     0.006840
      f-3     :     0.009058
  5 C s       :     2.716245  s :     2.716245
      pz      :     0.845782  p :     2.817731
      px      :     1.026907
      py      :     0.945042
      dz2     :     0.028004  d :     0.412443
      dxz     :     0.075856
      dyz     :     0.027928
      dx2y2   :     0.118077
      dxy     :     0.162578
      f0      :     0.002313  f :     0.039109
      f+1     :     0.003474
      f-1     :     0.002738
      f+2     :     0.005292
      f-2     :     0.003089
      f+3     :     0.008322
      f-3     :     0.013882
  6 H s       :     0.849846  s :     0.849846
      pz      :     0.037858  p :     0.145186
      px      :     0.045944
      py      :     0.061383
      dz2     :     0.003346  d :     0.025940
      dxz     :     0.002318
      dyz     :     0.005543
      dx2y2   :     0.007760
      dxy     :     0.006973
  7 H s       :     0.847281  s :     0.847281
      pz      :     0.072484  p :     0.144295
      px      :     0.036474
      py      :     0.035337
      dz2     :     0.009207  d :     0.026268
      dxz     :     0.008561
      dyz     :     0.008062
      dx2y2   :     0.000060
      dxy     :     0.000378
  8 H s       :     0.849846  s :     0.849846
      pz      :     0.037858  p :     0.145181
      px      :     0.045945
      py      :     0.061378
      dz2     :     0.003346  d :     0.025939
      dxz     :     0.002319
      dyz     :     0.005542
      dx2y2   :     0.007759
      dxy     :     0.006973
  9 H s       :     0.847280  s :     0.847280
      pz      :     0.072486  p :     0.144300
      px      :     0.036476
      py      :     0.035339
      dz2     :     0.009207  d :     0.026269
      dxz     :     0.008562
      dyz     :     0.008063
      dx2y2   :     0.000060
      dxy     :     0.000378
 10 H s       :     0.843214  s :     0.843214
      pz      :     0.068792  p :     0.146840
      px      :     0.040486
      py      :     0.037562
      dz2     :     0.008688  d :     0.026327
      dxz     :     0.008311
      dyz     :     0.007255
      dx2y2   :     0.000620
      dxy     :     0.001453
 11 H s       :     0.844055  s :     0.844055
      pz      :     0.047880  p :     0.145564
      px      :     0.060386
      py      :     0.037298
      dz2     :     0.006251  d :     0.026172
      dxz     :     0.006603
      dyz     :     0.002412
      dx2y2   :     0.004647
      dxy     :     0.006259
 12 H s       :     0.850698  s :     0.850698
      pz      :     0.041283  p :     0.150859
      px      :     0.041088
      py      :     0.068488
      dz2     :     0.002306  d :     0.025621
      dxz     :     0.002249
      dyz     :     0.005152
      dx2y2   :     0.008341
      dxy     :     0.007573
 13 H s       :     0.843213  s :     0.843213
      pz      :     0.068795  p :     0.146840
      px      :     0.040483
      py      :     0.037563
      dz2     :     0.008689  d :     0.026327
      dxz     :     0.008311
      dyz     :     0.007256
      dx2y2   :     0.000620
      dxy     :     0.001452
 14 H s       :     0.844054  s :     0.844054
      pz      :     0.047876  p :     0.145560
      px      :     0.060388
      py      :     0.037296
      dz2     :     0.006250  d :     0.026171
      dxz     :     0.006603
      dyz     :     0.002412
      dx2y2   :     0.004648
      dxy     :     0.006259
 15 H s       :     0.850697  s :     0.850697
      pz      :     0.041282  p :     0.150854
      px      :     0.041089
      py      :     0.068483
      dz2     :     0.002306  d :     0.025620
      dxz     :     0.002249
      dyz     :     0.005151
      dx2y2   :     0.008340
      dxy     :     0.007573


                      *****************************
                      * MAYER POPULATION ANALYSIS *
                      *****************************

  NA   - Mulliken gross atomic population
  ZA   - Total nuclear charge
  QA   - Mulliken gross atomic charge
  VA   - Mayer's total valence
  BVA  - Mayer's bonded valence
  FA   - Mayer's free valence

  ATOM       NA         ZA         QA         VA         BVA        FA
  0 C      6.1761     6.0000    -0.1761     3.8715     3.8715     0.0000
  1 C      6.1761     6.0000    -0.1761     3.8715     3.8715    -0.0000
  2 C      6.1326     6.0000    -0.1326     3.8496     3.8496    -0.0000
  3 C      6.1995     6.0000    -0.1995     3.7950     3.7950    -0.0000
  4 C      6.1326     6.0000    -0.1326     3.8496     3.8496    -0.0000
  5 C      6.1995     6.0000    -0.1995     3.7950     3.7950    -0.0000
  6 H      0.9038     1.0000     0.0962     0.9804     0.9804     0.0000
  7 H      0.9161     1.0000     0.0839     0.9845     0.9845     0.0000
  8 H      0.9038     1.0000     0.0962     0.9804     0.9804     0.0000
  9 H      0.9161     1.0000     0.0839     0.9845     0.9845    -0.0000
 10 H      0.9091     1.0000     0.0909     0.9828     0.9828    -0.0000
 11 H      0.9061     1.0000     0.0939     0.9841     0.9841    -0.0000
 12 H      0.8567     1.0000     0.1433     0.9751     0.9751     0.0000
 13 H      0.9090     1.0000     0.0910     0.9828     0.9828     0.0000
 14 H      0.9061     1.0000     0.0939     0.9841     0.9841     0.0000
 15 H      0.8568     1.0000     0.1432     0.9751     0.9751     0.0000

  Mayer bond orders larger than 0.1
B(  0-C ,  1-C ) :   0.9431 B(  0-C ,  4-C ) :   0.9503 B(  0-C ,  6-H ) :   0.9959 
B(  0-C ,  7-H ) :   0.9844 B(  1-C ,  2-C ) :   0.9503 B(  1-C ,  8-H ) :   0.9959 
B(  1-C ,  9-H ) :   0.9844 B(  2-C ,  3-C ) :   0.9415 B(  2-C , 10-H ) :   0.9785 
B(  2-C , 11-H ) :   0.9962 B(  3-C ,  5-C ) :   1.8803 B(  3-C , 12-H ) :   0.9752 
B(  4-C ,  5-C ) :   0.9415 B(  4-C , 13-H ) :   0.9785 B(  4-C , 14-H ) :   0.9962 
B(  5-C , 15-H ) :   0.9752 

-------
TIMINGS
-------

Total SCF time: 0 days 0 hours 0 min 12 sec 

Total time                  ....      12.644 sec
Sum of individual times     ....      12.354 sec  ( 97.7%)

Fock matrix formation       ....      11.719 sec  ( 92.7%)
Diagonalization             ....       0.086 sec  (  0.7%)
Density matrix formation    ....       0.013 sec  (  0.1%)
Population analysis         ....       0.064 sec  (  0.5%)
Initial guess               ....       0.244 sec  (  1.9%)
Orbital Transformation      ....       0.000 sec  (  0.0%)
Orbital Orthonormalization  ....       0.000 sec  (  0.0%)
DIIS solution               ....       0.000 sec  (  0.0%)
SOSCF solution              ....       0.098 sec  (  0.8%)


           ************************************************************
           *        Program running with 8 parallel MPI-processes     *
           *              working on a common directory               *
           ************************************************************


------------------------------------------------------------------------------- 
                              ORCA-MATRIX DRIVEN CI                            
------------------------------------------------------------------------------- 


Wavefunction type
-----------------
Correlation treatment                      ...      CCSD     
Single excitations                         ... ON
Orbital optimization                       ... OFF
Calculation of Z vector                    ... OFF
Calculation of Brueckner orbitals          ... OFF
Perturbative triple excitations            ... ON
Calculation of F12 correction              ... OFF
Frozen core treatment                      ... chemical core (12 el)
Reference Wavefunction                     ... RHF
  Internal Orbitals:     6 ...   22 ( 17 MO's/ 34 electrons)
  Virtual  Orbitals:    23 ...  319 (297 MO's              )
Number of AO's                             ...    320
Number of electrons                        ...     46
Number of correlated electrons             ...     34

Algorithmic settings
--------------------
Integral transformation                    ... All integrals via the RI transformation
K(C) Formation                             ... RI-DLPNO
   PNO-Integral Storage                    ... ON DISK
   PNO occupation number cut-off           ... 1.000e-07
   Singles PNO occupation number cut-off   ... 3.000e-09
   PNO Mulliken prescreening cut-off       ... 1.000e-03
   Domain cut-off (Mulliken population)    ... 1.000e-03
   PNO Normalization                       ...    1
Maximum number of iterations               ...        50
Convergence tolerance (max. residuum)      ... 1.000e-05
Level shift for amplitude update           ... 2.000e-01
Maximum number of DIIS vectors             ...         7
DIIS turned on at iteration                ...         0
Damping before turning on DIIS             ...     0.500
Damping after turning on DIIS              ...     0.000
Pair specific amplitude update             ... OFF
Natural orbital iterations                 ... OFF
Perturbative natural orbital generation    ... OFF
Printlevel                                 ... 2

Singles Fock matrix elements calculated using PNOs.

Memory handling:
----------------
Maximum memory for working arrays          ...   8000 MB
Data storage in matrix containers          ... UNCOMPRESSED
Data type for integral storage             ... DOUBLE
In-Core Storage of quantities:
   Amplitudes+Sigma Vector      ... NO
   J+K operators                ... NO
   DIIS vectors                 ... NO
   3-external integrals         ... NO
   4-external integrals         ... NO

Localization treatment:
-----------------------
Localization option                        ...    6
Localization threshhold                    ... -1.0e+00
Using relative localization threshhold     ... 1.0e-08
Neglect threshold for strong pairs         ... 1.000e-05 Eh
Prescreening threshold for very weak pairs ... 1.000e-07 Eh

Initializing the integral package          ... done
Localizing the valence orbitals
------------------------------------------------------------------------------
                           ORCA ORBITAL LOCALIZATION
------------------------------------------------------------------------------

Input orbitals are from                  ... cyclohexene_hc.proc0.gbw
Output orbitals are to                   ... cyclohexene_hc.proc0.loc
Max. number of iterations                ... 128
Localizations seeded randomly            ... off
Convergence tolerance                    ... 1.000e-06
Using relative localization threshhold   ... 1.000e-08
Treshold for strong local MOs            ... 9.500e-01
Treshold for bond MOs                    ... 8.500e-01
Operator                                 ... 0
Orbital range for localization           ... 6 to 22
Localization criterion                   ... FOSTER-BOYS (AUGMENTED HESSIAN)
Doing the dipole integrals     ... o.k.
Initial value of the localization sum :   125.780488
ITERATION   0 : L=  178.6164696692 DL=  5.28e+01 (AVERGE_DL)=    0.6232975710 
ITERATION   1 : L=  186.7474876898 DL=  8.13e+00 (AVERGE_DL)=    0.2445135931 
ITERATION   2 : L=  186.8662895207 DL=  1.19e-01 (AVERGE_DL)=    0.0295557587 
ITERATION   3 : L=  186.8663876244 DL=  9.81e-05 (AVERGE_DL)=    0.0008493236 
ITERATION   4 : L=  186.8663878297 DL=  2.05e-07 (AVERGE_DL)=    0.0000388575 
LOCALIZATION SUM CONVERGED

------------------------------------------------------
AUGMENTED HESSIAN OPTIMIZATION OF FOSTER-BOYS ORBITALS
------------------------------------------------------

Spin operator:           0
Orbital window:          6 to 22
Number of iterations:    128
Gradient tolerance:      1.000e-06
Number of pairs:         136
Davidson threshold:      2000
Diagonalization method:  LAPACK
Iter:    0   L: 186.8663878297   Grad. norm: 6.490729e-04
   *** Likely close to a maximum now. ***
       Augmented Hessian eigenvalues:  3.54e-09 -5.70e+00 -1.76e+01 -1.77e+01 ... 
Iter:    1   L: 186.8663878315   Grad. norm: 1.775693e-10
LOCALIZATION HAS CONVERGED.

Eigenvalues of the Hessian:
  0 -5.701e+00
  1 -1.765e+01
  2 -1.766e+01
  3 -1.834e+01
  4 -1.835e+01
  5 -1.840e+01
  6 -1.857e+01
  7 -1.862e+01
  8 -1.872e+01
  9 -1.901e+01
    ...


------------------------------------------------------------------------------- 
                    LOCALIZED MOLECULAR ORBITAL COMPOSITIONS                   
------------------------------------------------------------------------------- 

The Mulliken populations for each LMO on each atom are computed
The LMO`s will be ordered according to atom index and type
  (A) Strongly localized MO`s have populations of >=0.950 on one atom
  (B) Two center bond orbitals have populations of >=0.850 on two atoms
  (C) Other MO`s are considered to be `delocalized`

FOUND  -   0 strongly local MO`s
       -  17 two center bond MO`s
       -   0 significantly delocalized MO`s

Bond-like localized orbitals:
MO  22:  15H  -   0.441430  and   5C  -   0.588149
MO  21:  14H  -   0.469924  and   4C  -   0.564817
MO  20:  13H  -   0.472239  and   4C  -   0.552084
MO  19:  12H  -   0.441423  and   3C  -   0.588154
MO  18:  11H  -   0.469924  and   2C  -   0.564816
MO  17:  10H  -   0.472244  and   2C  -   0.552081
MO  16:   9H  -   0.475793  and   1C  -   0.551022
MO  15:   8H  -   0.469846  and   1C  -   0.564560
MO  14:   7H  -   0.475794  and   0C  -   0.551019
MO  13:   6H  -   0.469844  and   0C  -   0.564562
MO  12:   5C  -   0.547790  and   4C  -   0.485738
MO  11:   5C  -   0.504772  and   3C  -   0.518574
MO  10:   5C  -   0.518574  and   3C  -   0.504774
MO   9:   4C  -   0.522871  and   0C  -   0.509893
MO   8:   3C  -   0.547786  and   2C  -   0.485742
MO   7:   2C  -   0.522873  and   1C  -   0.509892
MO   6:   1C  -   0.516717  and   0C  -   0.516714
Localized MO's were stored in: cyclohexene_hc.proc0.loc

Localizing the core orbitals
------------------------------------------------------------------------------
                           ORCA ORBITAL LOCALIZATION
------------------------------------------------------------------------------

Input orbitals are from                  ... cyclohexene_hc.proc0.loc
Output orbitals are to                   ... cyclohexene_hc.proc0.loc
Max. number of iterations                ... 128
Localizations seeded randomly            ... off
Convergence tolerance                    ... 1.000e-06
Using relative localization threshhold   ... 1.000e-08
Treshold for strong local MOs            ... 9.500e-01
Treshold for bond MOs                    ... 8.500e-01
Operator                                 ... 0
Orbital range for localization           ... 0 to 5
Localization criterion                   ... FOSTER-BOYS (AUGMENTED HESSIAN)
Doing the dipole integrals     ... o.k.
Initial value of the localization sum :    45.576717
ITERATION   0 : L=   45.5767237477 DL=  6.51e-06 (AVERGE_DL)=    0.0006588285 
ITERATION   1 : L=   45.5767237477 DL=  0.00e+00 (AVERGE_DL)=    0.0000000000 
LOCALIZATION SUM CONVERGED

------------------------------------------------------
AUGMENTED HESSIAN OPTIMIZATION OF FOSTER-BOYS ORBITALS
------------------------------------------------------

Spin operator:           0
Orbital window:          0 to 5
Number of iterations:    128
Gradient tolerance:      1.000e-06
Number of pairs:         15
Davidson threshold:      2000
Diagonalization method:  LAPACK
Iter:    0   L: 45.5767237477   Grad. norm: 1.442504e-06
   *** Likely close to a maximum now. ***
       Augmented Hessian eigenvalues:  5.43e-14 -2.57e+01 -3.24e+01 -3.24e+01 ... 
Iter:    1   L: 45.5767237477   Grad. norm: 6.060263e-20
LOCALIZATION HAS CONVERGED.

Eigenvalues of the Hessian:
  0 -2.570e+01
  1 -3.240e+01
  2 -3.240e+01
  3 -3.359e+01
  4 -3.367e+01
  5 -3.367e+01
  6 -8.971e+01
  7 -8.971e+01
  8 -9.021e+01
  9 -9.021e+01
    ...


------------------------------------------------------------------------------- 
                    LOCALIZED MOLECULAR ORBITAL COMPOSITIONS                   
------------------------------------------------------------------------------- 

The Mulliken populations for each LMO on each atom are computed
The LMO`s will be ordered according to atom index and type
  (A) Strongly localized MO`s have populations of >=0.950 on one atom
  (B) Two center bond orbitals have populations of >=0.850 on two atoms
  (C) Other MO`s are considered to be `delocalized`

FOUND  -   6 strongly local MO`s
       -   0 two center bond MO`s
       -   0 significantly delocalized MO`s

Rather strongly localized orbitals:
MO   5:   5C  -   1.001031
MO   4:   4C  -   1.001471
MO   3:   3C  -   1.001031
MO   2:   2C  -   1.001471
MO   1:   1C  -   1.001411
MO   0:   0C  -   1.001411
Localized MO's were stored in: cyclohexene_hc.proc0.loc

Warning: internal orbitals are localized - no re-canonicalization of internal orbitals

--------------------------
CLOSED-SHELL FOCK OPERATOR
--------------------------

RI-JK section for the Fock operator:
  RHF full Fock operator         ... done
  RHF frozen core Fock operator  ... done
Time needed for Fock operator              ...            1.943 sec
Reference energy                           ...   -233.091999385

--------------
DLPNO SETTINGS (2015 fully linear scaling implementation)
--------------

TCutMKN:           1.000e-03
TCutPAO:           1.000e-03
TCutPNO:           1.000e-07
TCutPNOSingles:    3.000e-09
TCutEN:            9.700e-01
TCutPAOExt:        1.000e-01
TCutPairs:         1.000e-05
TCutPre:           1.000e-07
TCutOSV:           1.000e-06
TCutDOij:          1.000e-05
TCutDO:            5.000e-03
TCutC:             1.000e-04
TCutCPAO:          1.000e-03
TCutCMO:           1.000e-03
TScaleDOMP2PreScr: 2.000e+00
TScaleMKNMP2PreScr:1.000e+01
TScalePNOMP2PreScr:1.000e+00
PAO overlap thresh 1.000e-08
Using PNOs for Singles Fock computation
Use new domains
Use fully linear algorithm
TCutTNO:           1.000e-09
TCutMP2Pairs:      1.000e-06
TCutDOStrong:      2.000e-03
TCutMKNStrong:     1.000e-02
TCutMKNWeak:       1.000e-01
TCutDOWeak:        4.000e-03
NTCutTNO:          1

--------------------------
Calculating differential overlap integrals ... ok
--------------------------
ELECTRON PAIR PRESCREENING
--------------------------

Dipole-based pair screening          .... used

   TCutDOij = 1.000000e-05
   TCutPre  = 1.000000e-07
   .... Finished loop over pairs
Total time spent in the prescreening                  ...     0.000 sec
sum of pair energies estimated for screened out pairs ...       0.000000000000 Eh
Thresholds for map construction and integral transformation for crude MP2:
   TCutMKN                    ...     1.0e-02
   TCutDO                     ...     1.0e-02
   TCutPairs                  ...     1.0e-05
   TCutPNO_CrudeMP2           ...     1.0e-07
   TCutPNOSingles_CrudeMP2    ...     3.0e-09
--------------------------------
LOCAL RI TRANSFORMATION (IAVPAO)
--------------------------------

Orbital window:       6 to 22
Number of PAOs:     320
Basis functions:    320 (120 shells)
Aux. functions:     786 (238 shells)

Processing maps (0.0 sec)
Average map sizes:
   Aux shells -> MOs              17.0
   Aux shells -> PAOs            320.0
   MOs        -> AO shells       119.3
   PAOs       -> AO shells       120.0

Calculating integrals (0.6 sec, 32.631 MB)
Sorting integrals (0.1 sec, 32.622 MB)
Total time for the integral transformation: 0.7 sec
--------------------------------
INITIAL GUESS AND PNO GENERATION
--------------------------------

PNO truncation parameters                   .... 
    PAOOverlapThresh   =        1.000e-08

    TCutPairs          =        1.000e-05
    TCutPNO            =        1.000e-07
    TCutPNOSingles     =        3.000e-09
    TCutMP2Pairs       =        1.000e-06
    TCutMKN            =        1.000e-02
    TCutDO             =        1.000e-02

Pair selection                          .... not used
Type of local MP2 treatment                 .... semi-local MP2
Strategy for PNO selection                  .... occupation number selection
Pair density normalization                  .... MP2 norm
Spin component scaling                      .... not used

   .... Finished loop over pairs
Making pair pair interaction lists          ... done

                       ===========================
                        153 OF  153 PAIRS ARE KEPT CCSD PAIRS
                          0 OF  153 PAIRS ARE KEPT MP2 PAIRS FOR (T)
                          0 OF  153 PAIRS ARE SKIPPED
                       ===========================

Total time spent in the initial guess                 ...     1.527 sec
SL-MP2 correlation energy (all non-screened pairs)    ...      -0.980071500100 Eh

Initial PNO correlation energy                        ...      -0.979042537632 Eh
sum of pair energies prescreened and skipped MP2 pairs...       0.000000000000 Eh
sum of pair energies of crude MP2 skipped pairs only  ...       0.000000000000 Eh
sum of MP2 pair energies for pairs that were not kept ...       0.000000000000 Eh
sum of PNO error estimates for the kept pairs         ...      -0.001028962468 Eh
                                                          --------------------
sum of all corrections                                         -0.001028962468
Initial total correlation energy                               -0.980071500100
Thresholds for map construction and integral transformation for fine MP2 and CCSD(T) calculation:
   TCutMKN   ...     1.0e-03
   TCutDO    ...     5.0e-03
   TCutPairs ...     1.0e-05
   TCutCMO   ...     1.0e-03
   TCutCPAO  ...     1.0e-03

Thresholds for map construction and integral transformation for strong Triples:
   TCutMKN   ...     1.0e-02
   TCutDO    ...     1.0e-02
   TCutCMO   ...     1.0e-03
   TCutCPAO  ...     1.0e-03

Thresholds for map construction and integral transformation for weak Triples:
   TCutMKN   ...     1.0e-01
   TCutDO    ...     2.0e-02
   TCutCMO   ...     1.0e-03
   TCutCPAO  ...     1.0e-03

--------------------------------
LOCAL RI TRANSFORMATION (IAVPAO)
--------------------------------

Orbital window:       6 to 22
Number of PAOs:     320
Basis functions:    320 (120 shells)
Aux. functions:     786 (238 shells)

Processing maps (0.0 sec)
Average map sizes:
   Aux shells -> MOs              17.0
   Aux shells -> PAOs            320.0
   MOs        -> AO shells       119.3
   PAOs       -> AO shells       120.0

Calculating integrals (0.6 sec, 32.631 MB)
Sorting integrals (0.1 sec, 32.622 MB)
Total time for the integral transformation: 0.7 sec
--------------------------------
INITIAL GUESS AND PNO GENERATION
--------------------------------

PNO truncation parameters                   .... 
    ScaleTCutPNO       =        1.000e-02
    PAOOverlapThresh   =        1.000e-08

    TCutPairs          =        1.000e-05
    TCutPNO            =        1.000e-07
    TCutPNOSingles     =        3.000e-09
    TCutMP2Pairs       =        1.000e-06
    TCutMKN            =        1.000e-03
    TCutDO             =        5.000e-03

Pair selection                          .... not used
Type of local MP2 treatment                 .... full local PMP2
Strategy for PNO selection                  .... occupation number selection
Pair density normalization                  .... MP2 norm
Spin component scaling                      .... not used

PASS-1: Formation of initial guess LMP2 amplitudes
Initial amplitudes guess done. Entering LMP2 iteration loop:
   Max. no of iterations          ...  50
   Energy convergence tolerance   ...    1.0e-07
   Residual convergence tolerance ...    5.0e-07
   Fock matrix cutoff             ...    1.0e-05 Eh
   DIIS convergence acceleration parameters:
        Max # vectors in DIIS     ... 7
        Start iteration of DIIS   ... 0
        Levelshift                ... 2.000e-01
        Damping factor 1          ... 5.000e-01
        Damping factor 2          ... 1.000e+00
   L-MP2 PNO cut-off              ...   1.0e-09
   L-MP2 PNO cut-off (core)       ...   1.0e-11
                           *** Turning on DIIS ***
LMP2-Iter=   0:  ELMP2= -0.998439975095  DE=   1.8e-02 RMAX=   1.5e-02
LMP2-Iter=   1:  ELMP2= -1.008390867929  DE=   1.0e-02 RMAX=   6.5e-03
LMP2-Iter=   2:  ELMP2= -1.010154606611  DE=   1.8e-03 RMAX=   2.3e-03
LMP2-Iter=   3:  ELMP2= -1.010332507278  DE=   1.8e-04 RMAX=   7.7e-04
LMP2-Iter=   4:  ELMP2= -1.010316633117  DE=   1.6e-05 RMAX=   2.0e-04
LMP2-Iter=   5:  ELMP2= -1.010312608305  DE=   4.0e-06 RMAX=   4.2e-05
LMP2-Iter=   6:  ELMP2= -1.010312271169  DE=   3.4e-07 RMAX=   6.0e-06
LMP2-Iter=   7:  ELMP2= -1.010312387137  DE=   1.2e-07 RMAX=   7.8e-07
LMP2-Iter=   8:  ELMP2= -1.010312406270  DE=   1.9e-08 RMAX=   1.0e-07
LMP2-Iter=   9:  ELMP2= -1.010312405953  DE=   3.2e-10 RMAX=   1.7e-08 => CONVERGED
PASS-2: Formation of Pair natural orbitals
   .... Finished loop over pairs

 PNO Occupation Number Statistics: 
  | Av. % of trace(Dij) retained        ...  99.709670460169
  | sigma^2 in % of trace(Dij) retained ...   1.07e-01
  | Av. % of trace(Di) retained         ...  99.999706246941
  | sigma^2 in % of trace(Di) retained  ...   2.55e-09
 Distributions of % trace(Dij) recovered:
  |       >= 99.9  ...    52 ( 34.0 % of all pairs)
  |   [90.0, 99.0) ...     8 (  5.2 % of all pairs)
  |   [99.0, 99.9) ...    93 ( 60.8 % of all pairs)
 Distributions of % trace(Di) recovered :
  |       >= 99.9  ...    17 (100.0 % of all I-pairs )

Making pair pair interaction lists          ... done

                       ===========================
                        153 OF  153 PAIRS ARE KEPT
                       ===========================

Total time spent in the initial guess                 ...    13.577 sec
L-MP2 correlation energy (all non-screened pairs)     ...      -1.010312405953 Eh
L-MP2 PNO error correction                            ...      -0.000020851665 Eh
                                                          --------------------
Initial total L-MP2 energy (non-screened pairs)       ...      -1.010333257618 Eh

Initial PNO correlation energy                        ...      -1.009344462828 Eh
sum of pair energies estimated for screened out pairs ...       0.000000000000 Eh
sum of MP2 pair energies for pairs that were not kept ...       0.000000000000 Eh
sum of PNO error estimates for the kept pairs         ...      -0.000988794790 Eh
                                                          --------------------
sum of all corrections                                         -0.000988794790
Initial total correlation energy                               -1.010333257618
Thresholds for map construction and integral transformation for fine MP2 and CCSD(T) calculation:
   TCutMKN   ...     1.0e-03
   TCutDO    ...     5.0e-03
   TCutPairs ...     1.0e-05
   TCutCMO   ...     1.0e-03
   TCutCPAO  ...     1.0e-03

Time for aux screen maps:            0.004
Time for maps after fine MP2:            0.012
-----------------------------
LOCAL RI TRANSFORMATION (IJV)
-----------------------------

Orbital window:       6 to 22
Basis functions:    320 (120 shells)
Aux. functions:     786 (238 shells)

Processing maps (0.0 sec)
Average map sizes:
   Aux shells -> MOs(i)           17.0
   Aux shells -> MOs(j)           17.0
   MOs        -> AO shells       119.3

Calculating integrals (0.6 sec, 1.742 MB)
Sorting integrals (0.0 sec, 1.733 MB)
Total time for the integral transformation: 0.6 sec
--------------------------------
LOCAL RI TRANSFORMATION (VABPAO)
--------------------------------

Number of PAOs:     320
Basis functions:    320 (120 shells)
Aux. functions:     786 (238 shells)

Processing maps (0.0 sec)
Average map sizes:
   Aux shells -> PAOs            320.0
   PAOs       -> AO shells       120.0

Calculating integrals (1.7 sec, 1156.267 MB)
Finished


-------------------------------------
Pair Pair Term precalculation with     
RI-(ij|mn) and (im|jn) transformation  
ON THE FLY                             
-------------------------------------

   IBatch   1 (of   2)              ... done (   49.342 sec)
   IBatch   2 (of   2)              ... done (    1.331 sec)
Total EXT                           ...          50.673 sec

---------------------
RI-PNO TRANSFORMATION
---------------------

Total Number of PNOs                   ...  7495
Average number of PNOs per pair        ...    48
Maximal number of PNOs per pair        ...    79
   #pairs with  1 -  5 PNOs   :    0
   #pairs with  6 - 10 PNOs   :    0
   #pairs with 11 - 15 PNOs   :    0
   #pairs with 16 - 20 PNOs   :    4
   #pairs with 21 - 25 PNOs   :    3
   #pairs with 26 - 30 PNOs   :   13
   #pairs with 31 - 35 PNOs   :   22
   #pairs with 36 - 40 PNOs   :   10
   #pairs with 41 - 45 PNOs   :    2
   #pairs with 46 - 50 PNOs   :   21
   #pairs with 51 - 55 PNOs   :   30
   #pairs with 56 - 60 PNOs   :    4
   #pairs with 61 - 65 PNOs   :   12
   #pairs with 66 - 70 PNOs   :   25
   #pairs with 71 - 75 PNOs   :    6
   #pairs with 76 - 80 PNOs   :    1

Generation of (ij|ab)[P] integrals            ... on
Generation of (ia|bc)[P],(ja|bc)[P] integrals ... on
Storage of 3 and 4 external integrals         ... on
Generation of ALL (ka|bc)[P] integrals        ... on
Keep RI integrals in memory                   ... off

Ibatch:  1 (of  1)
Starting 2-4 index PNO integral generation ... done

Timings:
Total PNO integral transformation time     ...         23.874 sec
Size of the 3-external file                ...       178 MB
Size of the 4-external file                ...      1352 MB
Size of the IKJL file                      ...         0 MB
Size of the all 3-external file            ...      1513 MB
Size of the 1-external file                ...         2 MB

Making pair/pair overlap matrices          ... done (    1.679 sec)
Size of the pair overlap file              ... 316 MB
Redoing the guess amplitudes               ... done (    0.004 sec)

-------------------------
FINAL STARTUP INFORMATION
-------------------------

E(0)                                       ...   -233.091999385
E(L-MP2)                                   ...     -1.010333258
E(L-MP2) including corrections             ...     -1.010333258
Initial E(tot)                             ...   -234.102332643
<T|T>                                      ...      0.298118375
Number of pairs included                   ... 153
Total number of pairs                      ... 153

------------------------------------------------
                  RHF COUPLED CLUSTER ITERATIONS
------------------------------------------------

Number of PNO amplitudes to be optimized   ...       401503
Number of non-PNO amplitudes               ...     13495977
Untruncated number of regular amplitudes   ...     13495977

Iter       E(tot)           E(Corr)          Delta-E          Residual     Time
  0   -234.072061297     -0.979073117      0.031260141      0.016272728   11.44
                           *** Turning on DIIS ***
  1   -234.120652996     -1.027664816     -0.048591699      0.011258594   14.36
  2   -234.148467845     -1.055479665     -0.027814849      0.006515923   11.86
  3   -234.154084426     -1.061096246     -0.005616581      0.003494806   15.99
  4   -234.155442695     -1.062454515     -0.001358269      0.001882797   16.16
  5   -234.155819252     -1.062831071     -0.000376557      0.000749468   14.77
  6   -234.155915973     -1.062927792     -0.000096721      0.000238370   12.41
  7   -234.155924133     -1.062935953     -0.000008161      0.000046969   13.47
  8   -234.155922012     -1.062933832      0.000002121      0.000011376   13.47
  9   -234.155920617     -1.062932437      0.000001396      0.000002630   17.12
               --- The Coupled-Cluster iterations have converged ---

----------------------
COUPLED CLUSTER ENERGY
----------------------

E(0)                                       ...   -233.091999385
E(CORR)(strong-pairs)                      ...     -1.062932437
E(CORR)(weak-pairs)                        ...     -0.000988795
E(CORR)(corrected)                         ...     -1.063921232
E(TOT)                                     ...   -234.155920617
Singles Norm <S|S>**1/2                    ...      0.054525618  
T1 diagnostic                              ...      0.009351066  

------------------
LARGEST AMPLITUDES
------------------
  10-> 23  10-> 23       0.060216
  11-> 23  11-> 23       0.060215
  11-> 23  10-> 23       0.053221
  17-> 30  17-> 30       0.031680
  20-> 30  20-> 30       0.031678
  14-> 23  14-> 23       0.029566
  16-> 23  16-> 23       0.029565
  22-> 26  22-> 26       0.028952
  19-> 26  19-> 26       0.028952
  21-> 23  21-> 23       0.028556
  18-> 23  18-> 23       0.028556
  15-> 23  15-> 23       0.028514
  13-> 23  13-> 23       0.028513
  17-> 23  17-> 23       0.028202
  20-> 23  20-> 23       0.028201
  14-> 29  14-> 29       0.026809


-------------------------------------------
DLPNO BASED TRIPLES CORRECTION
-------------------------------------------

Singles multiplier          ...  1.000000
TCutTNO                     ... 1.000e-09
TCutMP2Pairs                ... 1.000e-06
TCutDOStrong                ... 1.000e-02
TCutMKNStrong               ... 1.000e-02
TCutDOWeak                  ... 2.000e-02
TCutMKNWeak                 ... 1.000e-01

Fragment selection                          .... not used
Number of Triples that are to be computed   ...       952

 . . . . . . . . .
10% done  
20% done  
30% done  
40% done  
50% done  
60% done  
70% done  
80% done  
90% done               (    135.393 sec)
Triples timings:
Total time for T0               ...   142.402 sec
Total time for Iterative (T)    ...     0.000 sec
Total time of overall (T)       ...   145.574 sec

Triples List generation         ...     0.000 sec
TNO generation                  ...     7.002 sec
Pair density generation         ...     0.005 sec
Look up tables                  ...     0.000 sec
Generating 3-index integrals    ...    84.987 sec
  Make 4-ind.int. from 3-ind.int...    17.720 sec
  Projecting amplitudes (D + S) ...     8.452 sec
  Downprojecting integrals      ...     0.003 sec
  Energy contr. (sum over a,b,c)...     7.223 sec
Fitting ET(->0)                 ...     0.000 sec

Everything after 3-index        ...    50.406 sec

Timing details:
 TNO integrals                  ...   101.334 sec
   Reading 3-index integrals    ...     0.244 sec
   Sorting integrals            ...    13.925 sec
       Sorting integrals 1      ...     0.001 sec
       Sorting integrals 2      ...     6.072 sec
       Sorting integrals 3      ...     0.447 sec
       Sorting integrals 4      ...     0.020 sec
       Sorting integrals 5      ...     0.116 sec
       Sorting integrals 6      ...     7.268 sec
   Calculating local VM**-1/2   ...     0.412 sec
   Orthogonal. integrals        ...     0.779 sec
   Multipl. 3-index integrals   ...    85.976 sec
   All concerning IRIab (w/TNO) ...     8.853 sec

 Calculate W0/W1                ...    17.003 sec
 W 3-ext contribution           ...     9.158 sec
 W 3-int contribution           ...     2.281 sec
 Sorting W                      ...     5.346 sec

 V exchange contribution        ...     2.225 sec

 Timings for Triples without generation
     of 3-index integrals       ...    50.405 sec
       0 weak pairs             ...    50.405 sec
       1 weak pair              ...     0.000 sec
       2 weak pairs             ...     0.000 sec
       3 weak pairs             ...     0.000 sec
  Extra time for extrapolation  ...     0.000 sec

Number of Triples   (0, 1, 2, 3 weak pairs; overall):    952       0       0       0  (   952)
Number of Atoms     (0, 1, 2, 3 weak pairs; overall):   15.8     0.0     0.0     0.0  (    16)
Number of PAOs      (0, 1, 2, 3 weak pairs; overall):  317.0     0.0     0.0     0.0  (   320)
Number of AuxFcns   (0, 1, 2, 3 weak pairs; overall):  435.9     0.0     0.0     0.0  (   786)
Number of TNOs      (0, 1, 2, 3 weak pairs         ):  114.7     0.0     0.0     0.0
Aver. Number of NTNO, Atoms, PAOs, AuxFcns / Triples:    952   114.7    15.8   317.0   435.9

Triples Correction (T)                     ...     -0.045286670
Final correlation energy                   ...     -1.109207901
E(CCSD)                                    ...   -234.155920617
E(CCSD(T))                                 ...   -234.201207287


Maximum memory used throughout the entire calculation: 7927.8 MB


------------------------------------------------------------------------------- 
                                     TIMINGS                                   
------------------------------------------------------------------------------- 


Total execution time                   ...      394.213 sec

Localization of occupied MO's          ...        0.545 sec (  0.1%)
Fock Matrix Formation                  ...        1.943 sec (  0.5%)
Global overlap, Fock, MKN matrices     ...        0.191 sec (  0.0%)
Differential overlap integrals         ...        0.104 sec (  0.0%)
Organizing maps                        ...        0.035 sec (  0.0%)
RI 3-index integral generations        ...        3.651 sec (  0.9%)
RI-PNO integral transformation         ...       77.012 sec ( 19.5%)
Initial Guess                          ...       15.145 sec (  3.8%)
DIIS Solver                            ...        1.861 sec (  0.5%)
State Vector Update                    ...        0.049 sec (  0.0%)
Sigma-vector construction              ...      140.706 sec ( 35.7%)
  <D|H|D>(0-ext)                       ...        2.220 sec (  1.6% of sigma)
  <D|H|D>(2-ext Fock)                  ...        0.013 sec (  0.0% of sigma)
  <D|H|D>(2-ext)                       ...       10.407 sec (  7.4% of sigma)
  <D|H|D>(4-ext)                       ...       17.881 sec ( 12.7% of sigma)
  <D|H|D>(4-ext-corr)                  ...       71.528 sec ( 50.8% of sigma)
  CCSD doubles correction              ...        0.153 sec (  0.1% of sigma)
  <S|H|S>                              ...        0.838 sec (  0.6% of sigma)
  <S|H|D>(1-ext)                       ...        0.249 sec (  0.2% of sigma)
  <D|H|S>(1-ext)                       ...        0.009 sec (  0.0% of sigma)
  <S|H|D>(3-ext)                       ...        0.551 sec (  0.4% of sigma)
  Fock-dressing                        ...       32.049 sec ( 22.8% of sigma)
  Singles amplitudes                   ...        0.358 sec (  0.3% of sigma)
  (ik|jl)-dressing                     ...        1.688 sec (  1.2% of sigma)
  (ij|ab),(ia|jb)-dressing             ...        2.486 sec (  1.8% of sigma)
  Pair energies                        ...        0.007 sec (  0.0% of sigma)
Total Time for computing (T)           ...      145.615 sec ( 36.9% of ALL)


-------------------------   --------------------
FINAL SINGLE POINT ENERGY      -234.201207286675
-------------------------   --------------------


                            ***************************************
                            *     ORCA property calculations      *
                            ***************************************

                                    ---------------------
                                    Active property flags
                                    ---------------------
   (+) Dipole Moment


------------------------------------------------------------------------------
                       ORCA ELECTRIC PROPERTIES CALCULATION
------------------------------------------------------------------------------

Dipole Moment Calculation                       ... on
Quadrupole Moment Calculation                   ... off
Polarizability Calculation                      ... off
GBWName                                         ... cyclohexene_hc.gbw
Electron density file                           ... cyclohexene_hc.scfp.tmp
The origin for moment calculation is the CENTER OF MASS  = (-0.000006,  0.043701 -0.000000)

-------------
DIPOLE MOMENT
-------------
                                X             Y             Z
Electronic contribution:     -0.00013       1.90058       0.00002
Nuclear contribution   :      0.00013      -2.01027      -0.00001
                        -----------------------------------------
Total Dipole Moment    :      0.00001      -0.10969       0.00001
                        -----------------------------------------
Magnitude (a.u.)       :      0.10969
Magnitude (Debye)      :      0.27881



--------------------
Rotational spectrum 
--------------------
 
Rotational constants in cm-1:     0.156917     0.151441     0.085360 
Rotational constants in MHz :  4704.246897  4540.082923  2559.042916 

 Dipole components along the rotational axes: 
x,y,z [a.u.] :     0.000009     0.109690     0.000011 
x,y,z [Debye]:     0.000022     0.278810     0.000028 

 

Timings for individual modules:

Sum of individual times         ...      407.903 sec (=   6.798 min)
GTO integral calculation        ...        0.590 sec (=   0.010 min)   0.1 %
SCF iterations                  ...       12.773 sec (=   0.213 min)   3.1 %
MDCI module                     ...      394.541 sec (=   6.576 min)  96.7 %
                             ****ORCA TERMINATED NORMALLY****
TOTAL RUN TIME: 0 days 0 hours 6 minutes 48 seconds 216 msec
cyclohexene_hc.gbw -> /home1/pantazis/klk/xyz/Energy_barrier/cyclohexene_hc.gbw
cyclohexene_hc.job -> /home1/pantazis/klk/xyz/Energy_barrier/cyclohexene_hc.job
cyclohexene_hc.loc -> /home1/pantazis/klk/xyz/Energy_barrier/cyclohexene_hc.loc
cyclohexene_hc.nodes -> /home1/pantazis/klk/xyz/Energy_barrier/cyclohexene_hc.nodes
cyclohexene_hc.prop -> /home1/pantazis/klk/xyz/Energy_barrier/cyclohexene_hc.prop
cyclohexene_hc_property.txt -> /home1/pantazis/klk/xyz/Energy_barrier/cyclohexene_hc_property.txt
cyclohexene_hc.xyz -> /home1/pantazis/klk/xyz/Energy_barrier/cyclohexene_hc.xyz
cp: cannot stat cyclohexene_hc.asa.inp: No such file or directory
