! Job execution by suborca V 6.07 on ZEUS !
Job started from zeus1, running /scratch/pantazis/cyclohexanethiol_eq__fMBt7R/orca/orca copied from /opt/orca on zeussn127 in /scratch/pantazis/cyclohexanethiol_eq__fMBt7R
Job execution start: Fri Jun 28 09:41:37 CEST 2019
Shared library path: /scratch/pantazis/cyclohexanethiol_eq__fMBt7R/orca:/opt/openmpi_1.10.2/lib:/opt/intel/mkl/lib/intel64:/opt/intel/lib/intel64:
PBS Job ID is: 158364.icqc
izeussn127
izeussn127
izeussn127
izeussn127
izeussn127
izeussn127
izeussn127
izeussn127

                                 *****************
                                 * O   R   C   A *
                                 *****************

           --- An Ab Initio, DFT and Semiempirical electronic structure package ---

                  #######################################################
                  #                        -***-                        #
                  #          Department of theory and spectroscopy      #
                  #               Directorship: Frank Neese             #
                  #        Max Planck Institute fuer Kohlenforschung    #
                  #                Kaiser Wilhelm Platz 1               #
                  #                 D-45470 Muelheim/Ruhr               #
                  #                      Germany                        #
                  #                                                     #
                  #                  All rights reserved                #
                  #                        -***-                        #
                  #######################################################


                         Program Version 4.1.x  -  STABLE  -
                                (SVN: $Rev: 14094$)
                ($Date: 2019-06-14 15:01:15 +0200 (Fri, 14 Jun 2019) $)

                         (BUILD: $Sun Jun 23 06:18:31 CEST 2019$)


 With contributions from (in alphabetic order):
   Daniel Aravena         : Magnetic Properties
   Michael Atanasov       : Ab Initio Ligand Field Theory
   Alexander A. Auer      : GIAO ZORA
   Ute Becker             : Parallelization
   Giovanni Bistoni       : ED, Open-shell LED
   Martin Brehm           : Molecular dynamics
   Dmytro Bykov           : SCF Hessian
   Vijay G. Chilkuri      : MRCI spin determinant printing
   Dipayan Datta          : RHF DLPNO-CCSD density
   Achintya Kumar Dutta   : EOM-CC, STEOM-CC
   Dmitry Ganyushin       : Spin-Orbit,Spin-Spin,Magnetic field MRCI
   Miquel Garcia          : C-PCM Hessian
   Yang Guo               : DLPNO-NEVPT2, CIM, IAO-localization
   Andreas Hansen         : Spin unrestricted coupled pair/coupled cluster methods
   Benjamin Helmich-Paris : CASSCF linear response (MC-RPA)
   Lee Huntington         : MR-EOM, pCC
   Robert Izsak           : Overlap fitted RIJCOSX, COSX-SCS-MP3, EOM
   Christian Kollmar      : KDIIS, OOCD, Brueckner-CCSD(T), CCSD density
   Simone Kossmann        : Meta GGA functionals, TD-DFT gradient, OOMP2, MP2 Hessian
   Martin Krupicka        : AUTO-CI
   Lucas Lang             : DCDCAS
   Dagmar Lenk            : GEPOL surface, SMD
   Dimitrios Liakos       : Extrapolation schemes; parallel MDCI
   Dimitrios Manganas     : ROCIS; embedding schemes
   Dimitrios Pantazis     : SARC Basis sets
   Taras Petrenko         : DFT Hessian,TD-DFT gradient, ASA, ECA, R-Raman, ABS, FL, XAS/XES, NRVS
   Peter Pinski           : DLPNO-MP2, DLPNO-MP2 Gradient
   Christoph Reimann      : Effective Core Potentials
   Marius Retegan         : Local ZFS, SOC
   Christoph Riplinger    : Optimizer, TS searches, QM/MM, DLPNO-CCSD(T), (RO)-DLPNO pert. Triples
   Tobias Risthaus        : Range-separated hybrids, TD-DFT gradient, RPA, STAB
   Michael Roemelt        : Restricted open shell CIS
   Masaaki Saitow         : Open-shell DLPNO
   Barbara Sandhoefer     : DKH picture change effects
   Avijit Sen             : IP-ROCIS
   Kantharuban Sivalingam : CASSCF convergence, NEVPT2, FIC-MRCI
   Bernardo de Souza      : ESD, SOC TD-DFT
   Georgi Stoychev        : AutoAux, RI-MP2 NMR
   Willem Van den Heuvel  : Paramagnetic NMR
   Boris Wezisla          : Elementary symmetry handling
   Frank Wennmohs         : Technical directorship


 We gratefully acknowledge several colleagues who have allowed us to
 interface, adapt or use parts of their codes:
   Stefan Grimme, W. Hujo, H. Kruse,             : VdW corrections, initial TS optimization,
                  C. Bannwarth                     DFT functionals, gCP, sTDA/sTD-DF
   Ed Valeev                                     : LibInt (2-el integral package), F12 methods
   Garnet Chan, S. Sharma, J. Yang, R. Olivares  : DMRG
   Ulf Ekstrom                                   : XCFun DFT Library
   Mihaly Kallay                                 : mrcc  (arbitrary order and MRCC methods)
   Andreas Klamt, Michael Diedenhofen            : otool_cosmo (COSMO solvation model)
   Jiri Pittner, Ondrej Demel                    : Mk-CCSD
   Frank Weinhold                                : gennbo (NPA and NBO analysis)
   Christopher J. Cramer and Donald G. Truhlar   : smd solvation model
   Lars Goerigk                                  : TD-DFT with DH, B97 family of functionals
   V. Asgeirsson, H. Jonsson                     : NEB implementation
   FAccTs GmbH                                   : IRC, NEB, NEB-TS, Multilevel


 Your calculation uses the libint2 library for the computation of 2-el integrals
 For citations please refer to: http://libint.valeyev.net

 This ORCA versions uses:
   CBLAS   interface :  Fast vector & matrix operations
   LAPACKE interface :  Fast linear algebra routines
   SCALAPACK package :  Parallel linear algebra routines




***************************************
The coordinates will be read from file: cyclohexanethiol_eq.xyz
***************************************


----- Orbital basis set information -----
Your calculation utilizes the basis: cc-pVTZ 
       H, B-Ne : Obtained from the ccRepo (grant-hill.group.shef.ac.uk/ccrepo) Feb. 2017
                 T. H. Dunning, Jr., J. Chem. Phys. 90, 1007 (1989)
            He : Obtained from the ccRepo (grant-hill.group.shef.ac.uk/ccrepo) Feb. 2017
                 D. E. Woon, T. H. Dunning, Jr., J. Chem. Phys. 100, 2975 (1994)
  Li-Be, Na-Mg : Obtained from the ccRepo (grant-hill.group.shef.ac.uk/ccrepo) Feb. 2017
                 B. P. Prascher, D. E. Woon, K. A. Peterson, T. H. Dunning, Jr., A. K. Wilson, Theor. Chem. Acc. 128, 69 (2011)
         Al-Ar : Obtained from the ccRepo (grant-hill.group.shef.ac.uk/ccrepo) Feb. 2017
                 D. E. Woon, T. H. Dunning, Jr., J. Chem. Phys. 98, 1358 (1993)
            Ca : Obtained from the Peterson Research Group Website (tyr0.chem.wsu.edu/~kipeters) Feb. 2017
                 J. Koput, K. A. Peterson, J. Phys. Chem. 106, 9595 (2002)
         Sc-Zn : Obtained from the ccRepo (grant-hill.group.shef.ac.uk/ccrepo) Feb. 2017
                 N. B. Balabanov, K. A. Peterson, J. Chem. Phys. 123, 064107 (2005)
                 N. B. Balabanov, K. A. Peterson, J. Chem. Phys. 125, 074110 (2006)
         Ga-Kr : Obtained from the ccRepo (grant-hill.group.shef.ac.uk/ccrepo) Feb. 2017
                 A. K. Wilson, D. E. Woon, K. A. Peterson, T. H. Dunning, Jr., J. Chem. Phys. 110, 7667 (1999)
             Y : Obtained from the ccRepo (grant-hill.group.shef.ac.uk/ccrepo) Feb. 2017
                 K. A. Peterson, D. Figgen, M. Dolg, H. Stoll, J. Chem. Phys. 126, 124101 (2007)
        Ag, Au : Obtained from the Peterson Research Group Website (tyr0.chem.wsu.edu/~kipeters) Feb. 2017
                 K. A. Peterson, C. Puzzarini, Theor. Chem. Acc. 114, 283 (2005)

----- AuxC basis set information -----
Your calculation utilizes the auxiliary basis: cc-pVTZ/C 
  Obtained from the EMSL Basis Set Exchange (bse.pnl.gov) Feb. 2017
  H-He, B-F, Al-Ar, Ga-Kr : F. Weigend, A. Kohn, C. Hattig, J. Chem. Phys. 116, 3175 (2002)
             Li-Be, Na-Mg : C. Haettig, Phys. Chem. Chem. Phys. 7, 59 (2005)
                       Ne : C. Haettig, Phys. Chem. Chem. Phys. 7, 59 (2005)
                            F. Weigend, A. Kohn, C. Hattig, J. Chem. Phys. 116, 3175 (2002)
                    Sc-Zn : J. G. Hill, J. A. Platts, J. Chem. Phys. 128, 044104 (2008)

----- AuxJK basis set information -----
Your calculation utilizes the auxiliary basis: cc-pVTZ/JK 
  H, B-F, Al-Cl, Ga-Br : Obtained from the TURBOMOLE 7.0 basis set library

================================================================================
                                        WARNINGS
                       Please study these warnings very carefully!
================================================================================


WARNING: MDCI localization with Augmented Hessian Foster-Boys
  ===> : Switching off randomization!

WARNING: Post HF methods need fully converged wavefunctions
  ===> : Setting SCFConvForced true
         You can overwrite this default with %scf ConvForced false 


INFO   : the flag for use of LIBINT has been found!

================================================================================
                                       INPUT FILE
================================================================================
NAME = cyclohexanethiol_eq.inp
|  1> ! RHF DLPNO-CCSD(T) cc-pVTZ RIJK cc-pVTZ/JK cc-pVTZ/C
|  2> ! KDIIS SOSCF TightSCF TightPNO
|  3> 
|  4> %pal nprocs 8 end
|  5> 
|  6> %maxcore 8000
|  7> 
|  8> %scf maxiter 300
|  9>      shift shift 0.2 erroff 0.1 end
| 10> end
| 11> 
| 12> * xyzfile 0 1 cyclohexanethiol_eq.xyz 
| 13> 
| 14> 
| 15>                          ****END OF INPUT****
================================================================================

                       ****************************
                       * Single Point Calculation *
                       ****************************

---------------------------------
CARTESIAN COORDINATES (ANGSTROEM)
---------------------------------
  C      0.616310    0.010470    0.371980
  C     -0.071590   -1.266630   -0.135390
  C     -1.570490   -1.264060    0.214070
  C     -2.275290   -0.003750   -0.310670
  C     -1.576930    1.271890    0.184640
  C     -0.077800    1.268940   -0.167390
  S      2.408610   -0.076070   -0.101770
  H     -2.043540   -2.165310   -0.194310
  H     -1.687690   -1.317850    1.305990
  H     -3.328530   -0.003360   -0.004520
  H     -2.268440   -0.016320   -1.410150
  H     -1.695160    1.350690    1.275130
  H     -2.053890    2.161350   -0.244720
  H      0.049690   -1.328040   -1.226040
  H      0.416570   -2.150730    0.290560
  H      0.406040    2.167920    0.233880
  H      0.049190    1.301760   -1.257630
  H      0.577170    0.015950    1.468220
  H      2.775510    1.099940    0.448390

----------------------------
CARTESIAN COORDINATES (A.U.)
----------------------------
  NO LB      ZA    FRAG     MASS         X           Y           Z
   0 C     6.0000    0    12.011    1.164657    0.019785    0.702940
   1 C     6.0000    0    12.011   -0.135285   -2.393584   -0.255850
   2 C     6.0000    0    12.011   -2.967796   -2.388727    0.404534
   3 C     6.0000    0    12.011   -4.299675   -0.007086   -0.587081
   4 C     6.0000    0    12.011   -2.979966    2.403524    0.348919
   5 C     6.0000    0    12.011   -0.147021    2.397949   -0.316321
   6 S    16.0000    0    32.060    4.551613   -0.143751   -0.192317
   7 H     1.0000    0     1.008   -3.861731   -4.091843   -0.367193
   8 H     1.0000    0     1.008   -3.189272   -2.490376    2.467963
   9 H     1.0000    0     1.008   -6.290010   -0.006349   -0.008542
  10 H     1.0000    0     1.008   -4.286730   -0.030840   -2.664797
  11 H     1.0000    0     1.008   -3.203388    2.552434    2.409646
  12 H     1.0000    0     1.008   -3.881290    4.084360   -0.462454
  13 H     1.0000    0     1.008    0.093900   -2.509632   -2.316880
  14 H     1.0000    0     1.008    0.787203   -4.064291    0.549079
  15 H     1.0000    0     1.008    0.767304    4.096775    0.441969
  16 H     1.0000    0     1.008    0.092956    2.459970   -2.376576
  17 H     1.0000    0     1.008    1.090693    0.030141    2.774534
  18 H     1.0000    0     1.008    5.244954    2.078585    0.847334

--------------------------------
INTERNAL COORDINATES (ANGSTROEM)
--------------------------------
 C      0   0   0     0.000000000000     0.00000000     0.00000000
 C      1   0   0     1.536754741948     0.00000000     0.00000000
 C      2   1   0     1.539100421188   111.07492078     0.00000000
 C      3   2   1     1.536384197947   111.75129374    55.02017013
 C      4   3   2     1.536325517363   111.25247400   305.47991907
 C      1   2   3     1.535075056764   111.27736525   304.49536050
 S      1   2   3     1.855873789917   108.01505887   180.34620688
 H      3   2   1     1.096723342234   109.52055801   177.71615734
 H      3   2   1     1.099508294875   109.22113281   293.96556855
 H      4   3   2     1.096832928116   110.21030089   182.86245045
 H      4   3   2     1.099573188924   109.22495221    66.11188326
 H      5   4   3     1.099707330611   109.28839714   293.46769161
 H      5   4   3     1.096804423222   110.45492769   176.66592916
 H      2   1   3     1.099089372617   108.94499713   120.62641850
 H      2   1   3     1.096068610124   110.03872855   237.57306305
 H      6   1   2     1.096942933292   110.11388300   178.03038571
 H      6   1   2     1.098101484427   108.72704394   294.62337361
 H      1   2   3     1.096952190207   108.54940188    64.84309214
 H      7   1   2     1.349181661490    96.77031206   180.71341291

---------------------------
INTERNAL COORDINATES (A.U.)
---------------------------
 C      0   0   0     0.000000000000     0.00000000     0.00000000
 C      1   0   0     2.904045597287     0.00000000     0.00000000
 C      2   1   0     2.908478288648   111.07492078     0.00000000
 C      3   2   1     2.903345370603   111.75129374    55.02017013
 C      4   3   2     2.903234480371   111.25247400   305.47991907
 C      1   2   3     2.900871452298   111.27736525   304.49536050
 S      1   2   3     3.507093202065   108.01505887   180.34620688
 H      3   2   1     2.072506761500   109.52055801   177.71615734
 H      3   2   1     2.077769559289   109.22113281   293.96556855
 H      4   3   2     2.072713848807   110.21030089   182.86245045
 H      4   3   2     2.077892191268   109.22495221    66.11188326
 H      5   4   3     2.078145682321   109.28839714   293.46769161
 H      5   4   3     2.072659982364   110.45492769   176.66592916
 H      2   1   3     2.076977910950   108.94499713   120.62641850
 H      2   1   3     2.071269497123   110.03872855   237.57306305
 H      6   1   2     2.072921728463   110.11388300   178.03038571
 H      6   1   2     2.075111072819   108.72704394   294.62337361
 H      1   2   3     2.072939221496   108.54940188    64.84309214
 H      7   1   2     2.549583845124    96.77031206   180.71341291

---------------------
BASIS SET INFORMATION
---------------------
There are 3 groups of distinct atoms

 Group   1 Type C   : 18s5p2d1f contracted to 4s3p2d1f pattern {8811/311/11/1}
 Group   2 Type S   : 41s16p2d1f contracted to 5s4p2d1f pattern {13131311/7711/11/1}
 Group   3 Type H   : 5s2p1d contracted to 3s2p1d pattern {311/11/1}

Atom   0C    basis set group =>   1
Atom   1C    basis set group =>   1
Atom   2C    basis set group =>   1
Atom   3C    basis set group =>   1
Atom   4C    basis set group =>   1
Atom   5C    basis set group =>   1
Atom   6S    basis set group =>   2
Atom   7H    basis set group =>   3
Atom   8H    basis set group =>   3
Atom   9H    basis set group =>   3
Atom  10H    basis set group =>   3
Atom  11H    basis set group =>   3
Atom  12H    basis set group =>   3
Atom  13H    basis set group =>   3
Atom  14H    basis set group =>   3
Atom  15H    basis set group =>   3
Atom  16H    basis set group =>   3
Atom  17H    basis set group =>   3
Atom  18H    basis set group =>   3
-------------------------------
AUXILIARY BASIS SET INFORMATION
-------------------------------
There are 3 groups of distinct atoms

 Group   1 Type C   : 8s6p5d3f1g contracted to 8s6p5d3f1g pattern {11111111/111111/11111/111/1}
 Group   2 Type S   : 10s8p7d5f2g contracted to 10s8p7d5f2g pattern {1111111111/11111111/1111111/11111/11}
 Group   3 Type H   : 4s3p2d1f contracted to 4s3p2d1f pattern {1111/111/11/1}

Atom   0C    basis set group =>   1
Atom   1C    basis set group =>   1
Atom   2C    basis set group =>   1
Atom   3C    basis set group =>   1
Atom   4C    basis set group =>   1
Atom   5C    basis set group =>   1
Atom   6S    basis set group =>   2
Atom   7H    basis set group =>   3
Atom   8H    basis set group =>   3
Atom   9H    basis set group =>   3
Atom  10H    basis set group =>   3
Atom  11H    basis set group =>   3
Atom  12H    basis set group =>   3
Atom  13H    basis set group =>   3
Atom  14H    basis set group =>   3
Atom  15H    basis set group =>   3
Atom  16H    basis set group =>   3
Atom  17H    basis set group =>   3
Atom  18H    basis set group =>   3
-------------------------------
AUXILIARY BASIS SET INFORMATION
-------------------------------
There are 3 groups of distinct atoms

 Group   1 Type C   : 10s7p5d2f1g contracted to 10s7p5d2f1g pattern {1111111111/1111111/11111/11/1}
 Group   2 Type S   : 13s11p9d3f1g contracted to 13s11p9d3f1g pattern {1111111111111/11111111111/111111111/111/1}
 Group   3 Type H   : 4s3p2d1f contracted to 4s3p2d1f pattern {1111/111/11/1}

Atom   0C    basis set group =>   1
Atom   1C    basis set group =>   1
Atom   2C    basis set group =>   1
Atom   3C    basis set group =>   1
Atom   4C    basis set group =>   1
Atom   5C    basis set group =>   1
Atom   6S    basis set group =>   2
Atom   7H    basis set group =>   3
Atom   8H    basis set group =>   3
Atom   9H    basis set group =>   3
Atom  10H    basis set group =>   3
Atom  11H    basis set group =>   3
Atom  12H    basis set group =>   3
Atom  13H    basis set group =>   3
Atom  14H    basis set group =>   3
Atom  15H    basis set group =>   3
Atom  16H    basis set group =>   3
Atom  17H    basis set group =>   3
Atom  18H    basis set group =>   3


           ************************************************************
           *        Program running with 8 parallel MPI-processes     *
           *              working on a common directory               *
           ************************************************************
------------------------------------------------------------------------------
                           ORCA GTO INTEGRAL CALCULATION
                           -- RI-GTO INTEGRALS CHOSEN --
------------------------------------------------------------------------------

                         BASIS SET STATISTICS AND STARTUP INFO

Gaussian basis set:
 # of primitive gaussian shells          ...  312
 # of primitive gaussian functions       ...  598
 # of contracted shells                  ...  144
 # of contracted basis functions         ...  382
 Highest angular momentum                ...    3
 Maximum contraction depth               ...   13
Auxiliary gaussian basis set:
 # of primitive gaussian shells          ...  307
 # of primitive gaussian functions       ...  955
 # of contracted shells                  ...  307
 # of contracted aux-basis functions     ...  955
 Highest angular momentum                ...    4
 Maximum contraction depth               ...    1
Ratio of auxiliary to basis functions    ...  2.50
Integral package used                  ... LIBINT
 One Electron integrals                  ... done
 Ordering auxiliary basis shells         ... done
 Integral threshhold             Thresh  ...  2.500e-11
 Primitive cut-off               TCut    ...  2.500e-12
 Pre-screening matrix                    ... done
 Shell pair data                         ... 
 Ordering of the shell pairs             ... done (   0.002 sec) 10006 of 10440 pairs
 Determination of significant pairs      ... done (   0.000 sec)
 Creation of shell pair data             ... done (   0.003 sec)
 Storage of shell pair data              ... done (   0.010 sec)
 Shell pair data done in (   0.015 sec)
 Computing two index integrals           ... done
 Cholesky decomposition of the V-matrix  ... done


Timings:
 Total evaluation time                   ...   0.744 sec (  0.012 min)
 One electron matrix time                ...   0.155 sec (  0.003 min) = 20.8%
 Schwartz matrix evaluation time         ...   0.397 sec (  0.007 min) = 53.4%
 Two index repulsion integral time       ...   0.078 sec (  0.001 min) = 10.4%
 Cholesky decomposition of V             ...   0.073 sec (  0.001 min) =  9.9%
 Three index repulsion integral time     ...   0.000 sec (  0.000 min) =  0.0%



           ************************************************************
           *        Program running with 8 parallel MPI-processes     *
           *              working on a common directory               *
           ************************************************************
-------------------------------------------------------------------------------
                                 ORCA SCF
-------------------------------------------------------------------------------

------------
SCF SETTINGS
------------
Hamiltonian:
 Ab initio Hamiltonian  Method          .... Hartree-Fock(GTOs)
 RI-approximation to the Coulomb term is turned on
   Number of auxiliary basis functions  .... 955
   RI-JK (J+K treated both via RI)      .... on


General Settings:
 Integral files         IntName         .... cyclohexanethiol_eq
 Hartree-Fock type      HFTyp           .... RHF
 Total Charge           Charge          ....    0
 Multiplicity           Mult            ....    1
 Number of Electrons    NEL             ....   64
 Basis Dimension        Dim             ....  382
 Nuclear Repulsion      ENuc            ....    381.9147881200 Eh

Convergence Acceleration:
 DIIS                   CNVDIIS         .... off
 Newton-Raphson         CNVNR           .... off
 SOSCF                  CNVSOSCF        .... on
   Start iteration      SOSCFMaxIt      ....   150
   Startup grad/error   SOSCFStart      ....  0.003300
 Level Shifting         CNVShift        .... on
   Level shift para.    LevelShift      ....    0.2000
   Turn off err/grad.   ShiftErr        ....    0.1000
 Zerner damping         CNVZerner       .... off
 Static damping         CNVDamp         .... off
 Fernandez-Rico         CNVRico         .... off

SCF Procedure:
 Maximum # iterations   MaxIter         ....   300
 SCF integral mode      SCFMode         .... Direct
   Integral package                     .... LIBINT
 Reset frequency        DirectResetFreq ....    20
 Integral Threshold     Thresh          ....  2.500e-11 Eh
 Primitive CutOff       TCut            ....  2.500e-12 Eh

Convergence Tolerance:
 Convergence Check Mode ConvCheckMode   .... Total+1el-Energy
 Convergence forced     ConvForced      .... 1
 Energy Change          TolE            ....  1.000e-08 Eh
 1-El. energy change                    ....  1.000e-05 Eh
 Orbital Gradient       TolG            ....  1.000e-05
 Orbital Rotation angle TolX            ....  1.000e-05


Diagonalization of the overlap matrix:
Smallest eigenvalue                        ... 3.251e-04
Time for diagonalization                   ...    0.028 sec
Threshold for overlap eigenvalues          ... 1.000e-08
Number of eigenvalues below threshold      ... 0
Time for construction of square roots      ...    0.047 sec
Total time needed                          ...    0.076 sec

-------------------
DFT GRID GENERATION
-------------------

General Integration Accuracy     IntAcc      ...  4.340
Radial Grid Type                 RadialGrid  ... Gauss-Chebyshev
Angular Grid (max. acc.)         AngularGrid ... Lebedev-110
Angular grid pruning method      GridPruning ... 3 (G Style)
Weight generation scheme         WeightScheme... Becke
Basis function cutoff            BFCut       ...    1.0000e-11
Integration weight cutoff        WCut        ...    1.0000e-14
Grids for H and He will be reduced by one unit

# of grid points (after initial pruning)     ...  21270 (   0.0 sec)
# of grid points (after weights+screening)   ...  19373 (   0.0 sec)
nearest neighbour list constructed           ...    0.0 sec
Grid point re-assignment to atoms done       ...    0.0 sec
Grid point division into batches done        ...    0.0 sec
Reduced shell lists constructed in    0.2 sec

Total number of grid points                  ...    19373
Total number of batches                      ...      309
Average number of points per batch           ...       62
Average number of grid points per atom       ...     1020
Average number of shells per batch           ...   126.35 (87.74%)
Average number of basis functions per batch  ...   332.95 (87.16%)
Average number of large shells per batch     ...   104.05 (82.35%)
Average number of large basis fcns per batch ...   271.30 (81.48%)
Average number of aux-shells per batch       ...   126.35 (41.16%)
Average number of aux functions per batch    ...   332.95 (34.86%)
Maximum spatial batch extension              ...   2.72,  3.37,  2.92 au
Average spatial batch extension              ...   0.21,  0.22,  0.19 au

Time for grid setup =    0.178 sec

------------------------------
INITIAL GUESS: MODEL POTENTIAL
------------------------------
Loading Hartree-Fock densities                     ... done
Calculating cut-offs                               ... done
Setting up the integral package                    ... done
Initializing the effective Hamiltonian             ... done
Starting the Coulomb interaction                   ... done (   0.1 sec)
Reading the grid                                   ... done
Mapping shells                                     ... done
Starting the XC term evaluation                    ... done (   0.1 sec)
Transforming the Hamiltonian                       ... done (   0.0 sec)
Diagonalizing the Hamiltonian                      ... done (   0.0 sec)
Back transforming the eigenvectors                 ... done (   0.0 sec)
Now organizing SCF variables                       ... done
                      ------------------
                      INITIAL GUESS DONE (   0.5 sec)
                      ------------------
--------------
SCF ITERATIONS
--------------
ITER       Energy         Delta-E        Max-DP      RMS-DP      [F,P]   Gradient Norm
                             ****Turning on KDIIS(Cayley)****
  0   -631.4668665121   0.000000000000 0.01763645  0.00023886  0.0986577   0.136461671
  1   -631.5689152565  -0.102048744377 0.03232489  0.00030282  0.0851259   0.118786004
  2   -631.6555579958  -0.086642739293 0.05328312  0.00052088  0.0687809   0.096355142
  3   -631.7617917605  -0.106233764716 0.08082477  0.00084433  0.0422526   0.059317507
                      *** Initiating the SOSCF procedure ***
                           *** Shutting down KDIIS ***
                      *** Re-Reading the Fockian *** 
                      *** Removing any level shift *** 
ITER      Energy       Delta-E        Grad      Rot      Max-DP    RMS-DP
  4   -631.83091281  -0.0691210470  0.002493  0.002493  0.002143  0.000051
  5   -631.83123251  -0.0003197021  0.001031  0.001411  0.001192  0.000042
  6   -631.83128521  -0.0000527045  0.000544  0.000365  0.000604  0.000019
  7   -631.83130380  -0.0000185828  0.000070  0.000114  0.000327  0.000006
  8   -631.83130431  -0.0000005156  0.000024  0.000049  0.000160  0.000003
  9   -631.83130438  -0.0000000644  0.000012  0.000011  0.000028  0.000001
                  ***Gradient check signals convergence***
              ***Rediagonalizing the Fockian in SOSCF/NRSCF***

               *****************************************************
               *                     SUCCESS                       *
               *           SCF CONVERGED AFTER  10 CYCLES          *
               *****************************************************


----------------
TOTAL SCF ENERGY
----------------

Total Energy       :         -631.83130439 Eh          -17193.00387 eV

Components:
Nuclear Repulsion  :          381.91478812 Eh           10392.42973 eV
Electronic Energy  :        -1013.74609251 Eh          -27585.43359 eV
One Electron Energy:        -1623.78651391 Eh          -44185.47739 eV
Two Electron Energy:          610.04042140 Eh           16600.04380 eV

Virial components:
Potential Energy   :        -1263.19879465 Eh          -34373.38671 eV
Kinetic Energy     :          631.36749027 Eh           17180.38284 eV
Virial Ratio       :            2.00073462


---------------
SCF CONVERGENCE
---------------

  Last Energy change         ...   -9.5426e-09  Tolerance :   1.0000e-08
  Last MAX-Density change    ...    1.3043e-05  Tolerance :   1.0000e-07
  Last RMS-Density change    ...    2.5440e-07  Tolerance :   5.0000e-09
  Last Orbital Gradient      ...    2.4861e-06  Tolerance :   1.0000e-05
  Last Orbital Rotation      ...    4.9526e-06  Tolerance :   1.0000e-05

             **** THE GBW FILE WAS UPDATED (cyclohexanethiol_eq.gbw) ****
             **** DENSITY FILE WAS UPDATED (cyclohexanethiol_eq.scfp.tmp) ****
             **** ENERGY FILE WAS UPDATED (cyclohexanethiol_eq.en.tmp) ****
----------------
ORBITAL ENERGIES
----------------

  NO   OCC          E(Eh)            E(eV) 
   0   2.0000     -91.941879     -2501.8657 
   1   2.0000     -11.264237      -306.5155 
   2   2.0000     -11.228378      -305.5397 
   3   2.0000     -11.227180      -305.5071 
   4   2.0000     -11.225347      -305.4572 
   5   2.0000     -11.224977      -305.4472 
   6   2.0000     -11.223123      -305.3967 
   7   2.0000      -8.943731      -243.3713 
   8   2.0000      -6.625013      -180.2758 
   9   2.0000      -6.623965      -180.2473 
  10   2.0000      -6.623039      -180.2221 
  11   2.0000      -1.127070       -30.6691 
  12   2.0000      -1.033534       -28.1239 
  13   2.0000      -1.009047       -27.4576 
  14   2.0000      -0.926014       -25.1981 
  15   2.0000      -0.839859       -22.8537 
  16   2.0000      -0.809697       -22.0330 
  17   2.0000      -0.758187       -20.6313 
  18   2.0000      -0.647647       -17.6234 
  19   2.0000      -0.611847       -16.6492 
  20   2.0000      -0.607964       -16.5435 
  21   2.0000      -0.603001       -16.4085 
  22   2.0000      -0.548661       -14.9298 
  23   2.0000      -0.533322       -14.5124 
  24   2.0000      -0.514560       -14.0019 
  25   2.0000      -0.503259       -13.6944 
  26   2.0000      -0.491002       -13.3608 
  27   2.0000      -0.472118       -12.8470 
  28   2.0000      -0.459517       -12.5041 
  29   2.0000      -0.437908       -11.9161 
  30   2.0000      -0.417520       -11.3613 
  31   2.0000      -0.350342        -9.5333 
  32   0.0000       0.128973         3.5095 
  33   0.0000       0.147748         4.0204 
  34   0.0000       0.153250         4.1701 
  35   0.0000       0.163403         4.4464 
  36   0.0000       0.185202         5.0396 
  37   0.0000       0.200048         5.4436 
  38   0.0000       0.203502         5.5376 
  39   0.0000       0.212748         5.7892 
  40   0.0000       0.221106         6.0166 
  41   0.0000       0.223060         6.0698 
  42   0.0000       0.232774         6.3341 
  43   0.0000       0.244218         6.6455 
  44   0.0000       0.247416         6.7325 
  45   0.0000       0.300263         8.1706 
  46   0.0000       0.315764         8.5924 
  47   0.0000       0.318911         8.6780 
  48   0.0000       0.340169         9.2565 
  49   0.0000       0.364027         9.9057 
  50   0.0000       0.381542        10.3823 
  51   0.0000       0.396955        10.8017 
  52   0.0000       0.404839        11.0162 
  53   0.0000       0.409433        11.1412 
  54   0.0000       0.422076        11.4853 
  55   0.0000       0.434140        11.8136 
  56   0.0000       0.444250        12.0886 
  57   0.0000       0.450241        12.2517 
  58   0.0000       0.463500        12.6125 
  59   0.0000       0.470766        12.8102 
  60   0.0000       0.479789        13.0557 
  61   0.0000       0.506800        13.7907 
  62   0.0000       0.530410        14.4332 
  63   0.0000       0.542708        14.7678 
  64   0.0000       0.565921        15.3995 
  65   0.0000       0.579598        15.7717 
  66   0.0000       0.583452        15.8765 
  67   0.0000       0.592843        16.1321 
  68   0.0000       0.599463        16.3122 
  69   0.0000       0.608129        16.5480 
  70   0.0000       0.619124        16.8472 
  71   0.0000       0.624863        17.0034 
  72   0.0000       0.634574        17.2676 
  73   0.0000       0.639002        17.3881 
  74   0.0000       0.639786        17.4095 
  75   0.0000       0.645818        17.5736 
  76   0.0000       0.659935        17.9577 
  77   0.0000       0.673892        18.3375 
  78   0.0000       0.681480        18.5440 
  79   0.0000       0.686257        18.6740 
  80   0.0000       0.698251        19.0004 
  81   0.0000       0.707416        19.2498 
  82   0.0000       0.708306        19.2740 
  83   0.0000       0.726936        19.7809 
  84   0.0000       0.746051        20.3011 
  85   0.0000       0.771439        20.9919 
  86   0.0000       0.814781        22.1713 
  87   0.0000       0.830174        22.5902 
  88   0.0000       0.849915        23.1274 
  89   0.0000       0.878468        23.9043 
  90   0.0000       0.901045        24.5187 
  91   0.0000       0.912361        24.8266 
  92   0.0000       0.926233        25.2041 
  93   0.0000       0.949872        25.8473 
  94   0.0000       0.966690        26.3050 
  95   0.0000       0.987702        26.8767 
  96   0.0000       0.992832        27.0163 
  97   0.0000       1.008067        27.4309 
  98   0.0000       1.047158        28.4946 
  99   0.0000       1.053049        28.6549 
 100   0.0000       1.070016        29.1166 
 101   0.0000       1.079436        29.3729 
 102   0.0000       1.109516        30.1915 
 103   0.0000       1.117465        30.4078 
 104   0.0000       1.128307        30.7028 
 105   0.0000       1.140927        31.0462 
 106   0.0000       1.145962        31.1832 
 107   0.0000       1.170833        31.8600 
 108   0.0000       1.204153        32.7667 
 109   0.0000       1.209406        32.9096 
 110   0.0000       1.232373        33.5346 
 111   0.0000       1.241731        33.7892 
 112   0.0000       1.257189        34.2099 
 113   0.0000       1.280658        34.8485 
 114   0.0000       1.294101        35.2143 
 115   0.0000       1.304537        35.4983 
 116   0.0000       1.311135        35.6778 
 117   0.0000       1.323098        36.0033 
 118   0.0000       1.328299        36.1449 
 119   0.0000       1.339521        36.4502 
 120   0.0000       1.352753        36.8103 
 121   0.0000       1.358715        36.9725 
 122   0.0000       1.369159        37.2567 
 123   0.0000       1.373166        37.3658 
 124   0.0000       1.388729        37.7892 
 125   0.0000       1.412820        38.4448 
 126   0.0000       1.426070        38.8053 
 127   0.0000       1.441489        39.2249 
 128   0.0000       1.454587        39.5813 
 129   0.0000       1.472912        40.0800 
 130   0.0000       1.484380        40.3920 
 131   0.0000       1.487659        40.4813 
 132   0.0000       1.493061        40.6283 
 133   0.0000       1.508254        41.0417 
 134   0.0000       1.532219        41.6938 
 135   0.0000       1.548858        42.1466 
 136   0.0000       1.559469        42.4353 
 137   0.0000       1.564869        42.5823 
 138   0.0000       1.577725        42.9321 
 139   0.0000       1.589230        43.2452 
 140   0.0000       1.609705        43.8023 
 141   0.0000       1.610344        43.8197 
 142   0.0000       1.624551        44.2063 
 143   0.0000       1.635504        44.5043 
 144   0.0000       1.656767        45.0829 
 145   0.0000       1.676272        45.6137 
 146   0.0000       1.687501        45.9192 
 147   0.0000       1.700222        46.2654 
 148   0.0000       1.720085        46.8059 
 149   0.0000       1.734502        47.1982 
 150   0.0000       1.762944        47.9721 
 151   0.0000       1.793842        48.8129 
 152   0.0000       1.802070        49.0368 
 153   0.0000       1.815109        49.3916 
 154   0.0000       1.827794        49.7368 
 155   0.0000       1.859574        50.6016 
 156   0.0000       1.886701        51.3398 
 157   0.0000       1.888574        51.3907 
 158   0.0000       1.905413        51.8489 
 159   0.0000       1.926094        52.4117 
 160   0.0000       1.963838        53.4388 
 161   0.0000       1.999250        54.4023 
 162   0.0000       2.026483        55.1434 
 163   0.0000       2.051355        55.8202 
 164   0.0000       2.066777        56.2399 
 165   0.0000       2.126697        57.8704 
 166   0.0000       2.149123        58.4806 
 167   0.0000       2.179949        59.3194 
 168   0.0000       2.186743        59.5043 
 169   0.0000       2.217862        60.3511 
 170   0.0000       2.258965        61.4696 
 171   0.0000       2.291077        62.3434 
 172   0.0000       2.309741        62.8513 
 173   0.0000       2.352087        64.0035 
 174   0.0000       2.465284        67.0838 
 175   0.0000       2.583410        70.2982 
 176   0.0000       2.613238        71.1098 
 177   0.0000       2.639731        71.8307 
 178   0.0000       2.647760        72.0492 
 179   0.0000       2.675313        72.7990 
 180   0.0000       2.706156        73.6382 
 181   0.0000       2.720026        74.0157 
 182   0.0000       2.764249        75.2190 
 183   0.0000       2.784132        75.7601 
 184   0.0000       2.800240        76.1984 
 185   0.0000       2.826150        76.9034 
 186   0.0000       2.829574        76.9966 
 187   0.0000       2.844074        77.3912 
 188   0.0000       2.856080        77.7179 
 189   0.0000       2.863874        77.9300 
 190   0.0000       2.875999        78.2599 
 191   0.0000       2.883237        78.4569 
 192   0.0000       2.889026        78.6144 
 193   0.0000       2.919200        79.4355 
 194   0.0000       2.946037        80.1657 
 195   0.0000       2.949961        80.2725 
 196   0.0000       2.967218        80.7421 
 197   0.0000       2.975005        80.9540 
 198   0.0000       2.997806        81.5744 
 199   0.0000       3.000265        81.6414 
 200   0.0000       3.008517        81.8659 
 201   0.0000       3.016999        82.0967 
 202   0.0000       3.030570        82.4660 
 203   0.0000       3.055921        83.1559 
 204   0.0000       3.065520        83.4170 
 205   0.0000       3.074031        83.6486 
 206   0.0000       3.082039        83.8665 
 207   0.0000       3.146761        85.6277 
 208   0.0000       3.164079        86.0990 
 209   0.0000       3.199463        87.0618 
 210   0.0000       3.202860        87.1543 
 211   0.0000       3.208025        87.2948 
 212   0.0000       3.223184        87.7073 
 213   0.0000       3.244609        88.2903 
 214   0.0000       3.289806        89.5202 
 215   0.0000       3.290527        89.5398 
 216   0.0000       3.325392        90.4885 
 217   0.0000       3.330435        90.6257 
 218   0.0000       3.334618        90.7396 
 219   0.0000       3.358647        91.3934 
 220   0.0000       3.386830        92.1603 
 221   0.0000       3.421181        93.0951 
 222   0.0000       3.425428        93.2106 
 223   0.0000       3.428465        93.2933 
 224   0.0000       3.445314        93.7518 
 225   0.0000       3.460821        94.1737 
 226   0.0000       3.475688        94.5783 
 227   0.0000       3.477165        94.6185 
 228   0.0000       3.483173        94.7820 
 229   0.0000       3.487188        94.8912 
 230   0.0000       3.496756        95.1516 
 231   0.0000       3.505498        95.3894 
 232   0.0000       3.508268        95.4648 
 233   0.0000       3.512296        95.5744 
 234   0.0000       3.534103        96.1678 
 235   0.0000       3.541625        96.3725 
 236   0.0000       3.576736        97.3279 
 237   0.0000       3.583596        97.5146 
 238   0.0000       3.597972        97.9058 
 239   0.0000       3.610977        98.2597 
 240   0.0000       3.626823        98.6909 
 241   0.0000       3.632262        98.8389 
 242   0.0000       3.655124        99.4610 
 243   0.0000       3.673444        99.9595 
 244   0.0000       3.682465       100.2050 
 245   0.0000       3.689329       100.3918 
 246   0.0000       3.727869       101.4405 
 247   0.0000       3.736675       101.6801 
 248   0.0000       3.747800       101.9828 
 249   0.0000       3.748825       102.0107 
 250   0.0000       3.817172       103.8705 
 251   0.0000       3.824776       104.0774 
 252   0.0000       3.831864       104.2703 
 253   0.0000       3.850186       104.7689 
 254   0.0000       3.859372       105.0189 
 255   0.0000       3.874010       105.4172 
 256   0.0000       3.884634       105.7063 
 257   0.0000       3.895032       105.9892 
 258   0.0000       3.917472       106.5998 
 259   0.0000       3.942381       107.2776 
 260   0.0000       3.967994       107.9746 
 261   0.0000       3.984945       108.4359 
 262   0.0000       3.997453       108.7762 
 263   0.0000       4.004297       108.9625 
 264   0.0000       4.021210       109.4227 
 265   0.0000       4.022667       109.4623 
 266   0.0000       4.029794       109.6563 
 267   0.0000       4.048563       110.1670 
 268   0.0000       4.071427       110.7892 
 269   0.0000       4.080032       111.0233 
 270   0.0000       4.086231       111.1920 
 271   0.0000       4.093948       111.4020 
 272   0.0000       4.097239       111.4915 
 273   0.0000       4.120157       112.1152 
 274   0.0000       4.125567       112.2624 
 275   0.0000       4.167466       113.4025 
 276   0.0000       4.173360       113.5629 
 277   0.0000       4.188271       113.9686 
 278   0.0000       4.197575       114.2218 
 279   0.0000       4.228255       115.0567 
 280   0.0000       4.238654       115.3396 
 281   0.0000       4.243852       115.4811 
 282   0.0000       4.268655       116.1560 
 283   0.0000       4.277375       116.3933 
 284   0.0000       4.302490       117.0767 
 285   0.0000       4.317294       117.4795 
 286   0.0000       4.319483       117.5391 
 287   0.0000       4.340383       118.1078 
 288   0.0000       4.342984       118.1786 
 289   0.0000       4.352767       118.4448 
 290   0.0000       4.364663       118.7685 
 291   0.0000       4.373917       119.0203 
 292   0.0000       4.378392       119.1421 
 293   0.0000       4.398958       119.7017 
 294   0.0000       4.412175       120.0614 
 295   0.0000       4.434001       120.6553 
 296   0.0000       4.441481       120.8588 
 297   0.0000       4.457916       121.3061 
 298   0.0000       4.478275       121.8601 
 299   0.0000       4.495740       122.3353 
 300   0.0000       4.507899       122.6662 
 301   0.0000       4.515196       122.8647 
 302   0.0000       4.527324       123.1948 
 303   0.0000       4.534836       123.3992 
 304   0.0000       4.536869       123.4545 
 305   0.0000       4.552845       123.8892 
 306   0.0000       4.572101       124.4132 
 307   0.0000       4.595713       125.0557 
 308   0.0000       4.602342       125.2361 
 309   0.0000       4.615241       125.5871 
 310   0.0000       4.632190       126.0483 
 311   0.0000       4.657535       126.7380 
 312   0.0000       4.662209       126.8651 
 313   0.0000       4.675330       127.2222 
 314   0.0000       4.690185       127.6264 
 315   0.0000       4.727170       128.6328 
 316   0.0000       4.746982       129.1719 
 317   0.0000       4.752161       129.3129 
 318   0.0000       4.799849       130.6105 
 319   0.0000       4.813674       130.9867 
 320   0.0000       4.844964       131.8382 
 321   0.0000       4.882775       132.8671 
 322   0.0000       4.891111       133.0939 
 323   0.0000       4.915597       133.7602 
 324   0.0000       4.961369       135.0057 
 325   0.0000       4.972289       135.3029 
 326   0.0000       4.996256       135.9550 
 327   0.0000       5.031533       136.9150 
 328   0.0000       5.038049       137.0923 
 329   0.0000       5.072817       138.0384 
 330   0.0000       5.120239       139.3288 
 331   0.0000       5.133738       139.6961 
 332   0.0000       5.152677       140.2115 
 333   0.0000       5.177038       140.8744 
 334   0.0000       5.177709       140.8926 
 335   0.0000       5.199284       141.4797 
 336   0.0000       5.228009       142.2613 
 337   0.0000       5.297162       144.1431 
 338   0.0000       5.314915       144.6262 
 339   0.0000       5.324337       144.8826 
 340   0.0000       5.335111       145.1757 
 341   0.0000       5.339228       145.2878 
 342   0.0000       5.366758       146.0369 
 343   0.0000       5.381950       146.4503 
 344   0.0000       5.410423       147.2251 
 345   0.0000       5.418413       147.4425 
 346   0.0000       5.423342       147.5766 
 347   0.0000       5.429733       147.7505 
 348   0.0000       5.467299       148.7728 
 349   0.0000       5.517633       150.1424 
 350   0.0000       5.582320       151.9027 
 351   0.0000       5.610075       152.6579 
 352   0.0000       5.630871       153.2238 
 353   0.0000       5.648751       153.7103 
 354   0.0000       5.705746       155.2612 
 355   0.0000       5.712471       155.4442 
 356   0.0000       5.761245       156.7714 
 357   0.0000       5.782255       157.3432 
 358   0.0000       5.814141       158.2108 
 359   0.0000       5.822070       158.4266 
 360   0.0000       5.829043       158.6163 
 361   0.0000       5.838800       158.8818 
 362   0.0000       5.879017       159.9762 
 363   0.0000       5.882968       160.0837 
 364   0.0000       5.893744       160.3769 
 365   0.0000       5.969715       162.4442 
 366   0.0000       5.982625       162.7955 
 367   0.0000       6.082276       165.5072 
 368   0.0000       6.109900       166.2588 
 369   0.0000       6.149973       167.3493 
 370   0.0000       6.191775       168.4868 
 371   0.0000       6.371563       173.3791 
 372   0.0000       6.373577       173.4338 
 373   0.0000       6.426073       174.8623 
 374   0.0000       6.469030       176.0313 
 375   0.0000       6.481515       176.3710 
 376   0.0000      11.730933       319.2149 
 377   0.0000      12.794242       348.1490 
 378   0.0000      13.168014       358.3199 
 379   0.0000      13.510983       367.6525 
 380   0.0000      13.530010       368.1703 
 381   0.0000      13.570807       369.2804 

                    ********************************
                    * MULLIKEN POPULATION ANALYSIS *
                    ********************************

-----------------------
MULLIKEN ATOMIC CHARGES
-----------------------
   0 C :   -0.071009
   1 C :   -0.203837
   2 C :   -0.204014
   3 C :   -0.188860
   4 C :   -0.203157
   5 C :   -0.182531
   6 S :   -0.207141
   7 H :    0.112695
   8 H :    0.090942
   9 H :    0.110959
  10 H :    0.090135
  11 H :    0.089796
  12 H :    0.112184
  13 H :    0.105049
  14 H :    0.125340
  15 H :    0.111198
  16 H :    0.103067
  17 H :    0.124074
  18 H :    0.085111
Sum of atomic charges:    0.0000000

--------------------------------
MULLIKEN REDUCED ORBITAL CHARGES
--------------------------------
  0 C s       :     3.191403  s :     3.191403
      pz      :     1.009605  p :     2.719919
      px      :     0.787648
      py      :     0.922666
      dz2     :     0.046705  d :     0.151920
      dxz     :     0.020071
      dyz     :     0.020235
      dx2y2   :     0.037958
      dxy     :     0.026952
      f0      :     0.001388  f :     0.007767
      f+1     :     0.000687
      f-1     :     0.000894
      f+2     :     0.001009
      f-2     :     0.000738
      f+3     :     0.001478
      f-3     :     0.001573
  1 C s       :     3.223550  s :     3.223550
      pz      :     1.008332  p :     2.854294
      px      :     0.898184
      py      :     0.947779
      dz2     :     0.033923  d :     0.119108
      dxz     :     0.016164
      dyz     :     0.014984
      dx2y2   :     0.024757
      dxy     :     0.029280
      f0      :     0.001428  f :     0.006885
      f+1     :     0.000711
      f-1     :     0.000530
      f+2     :     0.000748
      f-2     :     0.000587
      f+3     :     0.001573
      f-3     :     0.001308
  2 C s       :     3.221657  s :     3.221657
      pz      :     0.995171  p :     2.861826
      px      :     0.899233
      py      :     0.967423
      dz2     :     0.033556  d :     0.113869
      dxz     :     0.015724
      dyz     :     0.013479
      dx2y2   :     0.025184
      dxy     :     0.025925
      f0      :     0.001421  f :     0.006662
      f+1     :     0.000693
      f-1     :     0.000486
      f+2     :     0.000764
      f-2     :     0.000518
      f+3     :     0.001543
      f-3     :     0.001237
  3 C s       :     3.212955  s :     3.212955
      pz      :     0.986817  p :     2.855072
      px      :     0.987528
      py      :     0.880727
      dz2     :     0.036185  d :     0.114151
      dxz     :     0.008622
      dyz     :     0.017121
      dx2y2   :     0.031326
      dxy     :     0.020897
      f0      :     0.001439  f :     0.006682
      f+1     :     0.000342
      f-1     :     0.000814
      f+2     :     0.000525
      f-2     :     0.000829
      f+3     :     0.001536
      f-3     :     0.001197
  4 C s       :     3.220774  s :     3.220774
      pz      :     0.995589  p :     2.862050
      px      :     0.900900
      py      :     0.965561
      dz2     :     0.032966  d :     0.113695
      dxz     :     0.015678
      dyz     :     0.014144
      dx2y2   :     0.025013
      dxy     :     0.025894
      f0      :     0.001409  f :     0.006638
      f+1     :     0.000692
      f-1     :     0.000495
      f+2     :     0.000752
      f-2     :     0.000509
      f+3     :     0.001545
      f-3     :     0.001236
  5 C s       :     3.209267  s :     3.209267
      pz      :     1.004549  p :     2.845351
      px      :     0.896695
      py      :     0.944107
      dz2     :     0.035291  d :     0.121017
      dxz     :     0.016382
      dyz     :     0.014145
      dx2y2   :     0.025988
      dxy     :     0.029211
      f0      :     0.001437  f :     0.006896
      f+1     :     0.000713
      f-1     :     0.000522
      f+2     :     0.000754
      f-2     :     0.000598
      f+3     :     0.001580
      f-3     :     0.001293
  6 S s       :     5.814182  s :     5.814182
      pz      :     3.791869  p :    10.266730
      px      :     3.109880
      py      :     3.364980
      dz2     :     0.011844  d :     0.115546
      dxz     :     0.016806
      dyz     :     0.019345
      dx2y2   :     0.047663
      dxy     :     0.019889
      f0      :     0.001470  f :     0.010684
      f+1     :     0.001465
      f-1     :     0.000245
      f+2     :     0.002566
      f-2     :     0.000849
      f+3     :     0.002313
      f-3     :     0.001776
  7 H s       :     0.856245  s :     0.856245
      pz      :     0.006830  p :     0.028620
      px      :     0.010051
      py      :     0.011740
      dz2     :     0.000419  d :     0.002440
      dxz     :     0.000166
      dyz     :     0.000398
      dx2y2   :     0.000827
      dxy     :     0.000630
  8 H s       :     0.878936  s :     0.878936
      pz      :     0.011133  p :     0.027705
      px      :     0.008617
      py      :     0.007954
      dz2     :     0.000661  d :     0.002417
      dxz     :     0.000884
      dyz     :     0.000791
      dx2y2   :     0.000062
      dxy     :     0.000020
  9 H s       :     0.857968  s :     0.857968
      pz      :     0.006996  p :     0.028638
      px      :     0.012481
      py      :     0.009160
      dz2     :     0.000360  d :     0.002435
      dxz     :     0.000526
      dyz     :     0.000036
      dx2y2   :     0.000511
      dxy     :     0.001003
 10 H s       :     0.879598  s :     0.879598
      pz      :     0.011572  p :     0.027842
      px      :     0.007436
      py      :     0.008833
      dz2     :     0.000687  d :     0.002425
      dxz     :     0.000699
      dyz     :     0.000993
      dx2y2   :     0.000025
      dxy     :     0.000021
 11 H s       :     0.880044  s :     0.880044
      pz      :     0.010987  p :     0.027737
      px      :     0.008726
      py      :     0.008024
      dz2     :     0.000654  d :     0.002423
      dxz     :     0.000886
      dyz     :     0.000794
      dx2y2   :     0.000067
      dxy     :     0.000023
 12 H s       :     0.856611  s :     0.856611
      pz      :     0.006841  p :     0.028760
      px      :     0.010181
      py      :     0.011737
      dz2     :     0.000434  d :     0.002446
      dxz     :     0.000176
      dyz     :     0.000392
      dx2y2   :     0.000824
      dxy     :     0.000620
 13 H s       :     0.865145  s :     0.865145
      pz      :     0.011084  p :     0.027410
      px      :     0.008574
      py      :     0.007752
      dz2     :     0.000650  d :     0.002396
      dxz     :     0.000874
      dyz     :     0.000788
      dx2y2   :     0.000064
      dxy     :     0.000020
 14 H s       :     0.843663  s :     0.843663
      pz      :     0.006550  p :     0.028580
      px      :     0.009971
      py      :     0.012059
      dz2     :     0.000442  d :     0.002417
      dxz     :     0.000175
      dyz     :     0.000373
      dx2y2   :     0.000823
      dxy     :     0.000604
 15 H s       :     0.857781  s :     0.857781
      pz      :     0.006885  p :     0.028599
      px      :     0.009880
      py      :     0.011833
      dz2     :     0.000424  d :     0.002422
      dxz     :     0.000164
      dyz     :     0.000398
      dx2y2   :     0.000832
      dxy     :     0.000605
 16 H s       :     0.867246  s :     0.867246
      pz      :     0.011154  p :     0.027251
      px      :     0.008438
      py      :     0.007660
      dz2     :     0.000669  d :     0.002435
      dxz     :     0.000899
      dyz     :     0.000789
      dx2y2   :     0.000064
      dxy     :     0.000015
 17 H s       :     0.839842  s :     0.839842
      pz      :     0.014138  p :     0.033309
      px      :     0.009257
      py      :     0.009914
      dz2     :     0.000725  d :     0.002775
      dxz     :     0.000862
      dyz     :     0.001118
      dx2y2   :     0.000046
      dxy     :     0.000024
 18 H s       :     0.868399  s :     0.868399
      pz      :     0.016375  p :     0.044418
      px      :     0.009203
      py      :     0.018839
      dz2     :     0.000404  d :     0.002072
      dxz     :     0.000137
      dyz     :     0.000535
      dx2y2   :     0.000467
      dxy     :     0.000529


                     *******************************
                     * LOEWDIN POPULATION ANALYSIS *
                     *******************************

----------------------
LOEWDIN ATOMIC CHARGES
----------------------
   0 C :   -0.151176
   1 C :    0.039505
   2 C :    0.060180
   3 C :    0.057279
   4 C :    0.059771
   5 C :    0.039494
   6 S :    0.340679
   7 H :   -0.024755
   8 H :   -0.026193
   9 H :   -0.026161
  10 H :   -0.025792
  11 H :   -0.026883
  12 H :   -0.025176
  13 H :   -0.023698
  14 H :   -0.023523
  15 H :   -0.026966
  16 H :   -0.023275
  17 H :   -0.038515
  18 H :   -0.154793

-------------------------------
LOEWDIN REDUCED ORBITAL CHARGES
-------------------------------
  0 C s       :     2.708194  s :     2.708194
      pz      :     0.998057  p :     2.857477
      px      :     0.890408
      py      :     0.969012
      dz2     :     0.138572  d :     0.538385
      dxz     :     0.075611
      dyz     :     0.071138
      dx2y2   :     0.145146
      dxy     :     0.107918
      f0      :     0.005806  f :     0.047121
      f+1     :     0.004677
      f-1     :     0.006359
      f+2     :     0.007018
      f-2     :     0.005987
      f+3     :     0.006744
      f-3     :     0.010529
  1 C s       :     2.661085  s :     2.661085
      pz      :     0.967157  p :     2.831303
      px      :     0.929733
      py      :     0.934414
      dz2     :     0.112675  d :     0.428026
      dxz     :     0.059463
      dyz     :     0.051392
      dx2y2   :     0.095684
      dxy     :     0.108813
      f0      :     0.005843  f :     0.040081
      f+1     :     0.004796
      f-1     :     0.003403
      f+2     :     0.005976
      f-2     :     0.005563
      f+3     :     0.006635
      f-3     :     0.007865
  2 C s       :     2.659899  s :     2.659899
      pz      :     0.964535  p :     2.818336
      px      :     0.913832
      py      :     0.939969
      dz2     :     0.113267  d :     0.421923
      dxz     :     0.058473
      dyz     :     0.049133
      dx2y2   :     0.098175
      dxy     :     0.102874
      f0      :     0.005863  f :     0.039663
      f+1     :     0.004745
      f-1     :     0.003256
      f+2     :     0.006170
      f-2     :     0.005216
      f+3     :     0.006445
      f-3     :     0.007968
  3 C s       :     2.659855  s :     2.659855
      pz      :     0.961167  p :     2.820320
      px      :     0.947568
      py      :     0.911585
      dz2     :     0.121948  d :     0.422710
      dxz     :     0.031635
      dyz     :     0.066952
      dx2y2   :     0.119764
      dxy     :     0.082411
      f0      :     0.005692  f :     0.039836
      f+1     :     0.002596
      f-1     :     0.005926
      f+2     :     0.005131
      f-2     :     0.006401
      f+3     :     0.006513
      f-3     :     0.007577
  4 C s       :     2.660164  s :     2.660164
      pz      :     0.965092  p :     2.819372
      px      :     0.915102
      py      :     0.939178
      dz2     :     0.111284  d :     0.421104
      dxz     :     0.058059
      dyz     :     0.051198
      dx2y2   :     0.097768
      dxy     :     0.102795
      f0      :     0.005846  f :     0.039589
      f+1     :     0.004695
      f-1     :     0.003225
      f+2     :     0.006098
      f-2     :     0.005254
      f+3     :     0.006433
      f-3     :     0.008038
  5 C s       :     2.662833  s :     2.662833
      pz      :     0.967530  p :     2.828703
      px      :     0.926475
      py      :     0.934697
      dz2     :     0.113120  d :     0.428967
      dxz     :     0.060355
      dyz     :     0.049548
      dx2y2   :     0.097464
      dxy     :     0.108479
      f0      :     0.005830  f :     0.040003
      f+1     :     0.004809
      f-1     :     0.003407
      f+2     :     0.005923
      f-2     :     0.005656
      f+3     :     0.006630
      f-3     :     0.007747
  6 S s       :     5.382551  s :     5.382551
      pz      :     3.684894  p :    10.063236
      px      :     3.061466
      py      :     3.316875
      dz2     :     0.023002  d :     0.187901
      dxz     :     0.032229
      dyz     :     0.023773
      dx2y2   :     0.065897
      dxy     :     0.043000
      f0      :     0.002432  f :     0.025633
      f+1     :     0.003528
      f-1     :     0.000386
      f+2     :     0.005938
      f-2     :     0.001858
      f+3     :     0.005837
      f-3     :     0.005654
  7 H s       :     0.843692  s :     0.843692
      pz      :     0.043600  p :     0.153043
      px      :     0.046208
      py      :     0.063234
      dz2     :     0.004959  d :     0.028020
      dxz     :     0.002248
      dyz     :     0.006228
      dx2y2   :     0.007748
      dxy     :     0.006836
  8 H s       :     0.846122  s :     0.846122
      pz      :     0.074370  p :     0.152026
      px      :     0.039083
      py      :     0.038574
      dz2     :     0.009330  d :     0.028044
      dxz     :     0.008937
      dyz     :     0.009360
      dx2y2   :     0.000351
      dxy     :     0.000066
  9 H s       :     0.845304  s :     0.845304
      pz      :     0.041530  p :     0.152884
      px      :     0.071517
      py      :     0.039837
      dz2     :     0.004113  d :     0.027973
      dxz     :     0.008047
      dyz     :     0.000413
      dx2y2   :     0.006654
      dxy     :     0.008745
 10 H s       :     0.845977  s :     0.845977
      pz      :     0.074796  p :     0.151772
      px      :     0.038000
      py      :     0.038976
      dz2     :     0.009442  d :     0.028042
      dxz     :     0.009205
      dyz     :     0.009196
      dx2y2   :     0.000130
      dxy     :     0.000068
 11 H s       :     0.846697  s :     0.846697
      pz      :     0.074173  p :     0.152176
      px      :     0.039306
      py      :     0.038696
      dz2     :     0.009289  d :     0.028011
      dxz     :     0.008908
      dyz     :     0.009349
      dx2y2   :     0.000376
      dxy     :     0.000089
 12 H s       :     0.843973  s :     0.843973
      pz      :     0.044109  p :     0.153185
      px      :     0.046484
      py      :     0.062592
      dz2     :     0.005144  d :     0.028019
      dxz     :     0.002377
      dyz     :     0.006114
      dx2y2   :     0.007661
      dxy     :     0.006722
 13 H s       :     0.843627  s :     0.843627
      pz      :     0.075345  p :     0.151839
      px      :     0.039013
      py      :     0.037481
      dz2     :     0.009427  d :     0.028233
      dxz     :     0.009068
      dyz     :     0.009276
      dx2y2   :     0.000383
      dxy     :     0.000080
 14 H s       :     0.842397  s :     0.842397
      pz      :     0.043992  p :     0.152945
      px      :     0.046810
      py      :     0.062144
      dz2     :     0.005089  d :     0.028181
      dxz     :     0.002405
      dyz     :     0.006154
      dx2y2   :     0.007777
      dxy     :     0.006755
 15 H s       :     0.846246  s :     0.846246
      pz      :     0.043447  p :     0.152604
      px      :     0.046212
      py      :     0.062946
      dz2     :     0.004852  d :     0.028116
      dxz     :     0.002251
      dyz     :     0.006256
      dx2y2   :     0.007892
      dxy     :     0.006864
 16 H s       :     0.843483  s :     0.843483
      pz      :     0.075737  p :     0.151429
      px      :     0.038304
      py      :     0.037388
      dz2     :     0.009562  d :     0.028362
      dxz     :     0.009018
      dyz     :     0.009302
      dx2y2   :     0.000413
      dxy     :     0.000068
 17 H s       :     0.847281  s :     0.847281
      pz      :     0.082888  p :     0.162013
      px      :     0.038706
      py      :     0.040419
      dz2     :     0.010571  d :     0.029220
      dxz     :     0.008393
      dyz     :     0.009959
      dx2y2   :     0.000244
      dxy     :     0.000054
 18 H s       :     0.924569  s :     0.924569
      pz      :     0.073048  p :     0.205942
      px      :     0.034466
      py      :     0.098428
      dz2     :     0.004243  d :     0.024282
      dxz     :     0.001591
      dyz     :     0.007202
      dx2y2   :     0.006765
      dxy     :     0.004481


                      *****************************
                      * MAYER POPULATION ANALYSIS *
                      *****************************

  NA   - Mulliken gross atomic population
  ZA   - Total nuclear charge
  QA   - Mulliken gross atomic charge
  VA   - Mayer's total valence
  BVA  - Mayer's bonded valence
  FA   - Mayer's free valence

  ATOM       NA         ZA         QA         VA         BVA        FA
  0 C      6.0710     6.0000    -0.0710     3.8532     3.8532     0.0000
  1 C      6.2038     6.0000    -0.2038     3.8475     3.8475    -0.0000
  2 C      6.2040     6.0000    -0.2040     3.8684     3.8684     0.0000
  3 C      6.1889     6.0000    -0.1889     3.8554     3.8554    -0.0000
  4 C      6.2032     6.0000    -0.2032     3.8711     3.8711     0.0000
  5 C      6.1825     6.0000    -0.1825     3.8375     3.8375    -0.0000
  6 S     16.2071    16.0000    -0.2071     2.0222     2.0222     0.0000
  7 H      0.8873     1.0000     0.1127     0.9791     0.9791     0.0000
  8 H      0.9091     1.0000     0.0909     0.9841     0.9841     0.0000
  9 H      0.8890     1.0000     0.1110     0.9792     0.9792    -0.0000
 10 H      0.9099     1.0000     0.0901     0.9846     0.9846     0.0000
 11 H      0.9102     1.0000     0.0898     0.9842     0.9842    -0.0000
 12 H      0.8878     1.0000     0.1122     0.9794     0.9794     0.0000
 13 H      0.8950     1.0000     0.1050     0.9846     0.9846    -0.0000
 14 H      0.8747     1.0000     0.1253     0.9810     0.9810    -0.0000
 15 H      0.8888     1.0000     0.1112     0.9833     0.9833     0.0000
 16 H      0.8969     1.0000     0.1031     0.9893     0.9893    -0.0000
 17 H      0.8759     1.0000     0.1241     0.9853     0.9853    -0.0000
 18 H      0.9149     1.0000     0.0851     1.0199     1.0199     0.0000

  Mayer bond orders larger than 0.1
B(  0-C ,  1-C ) :   0.9449 B(  0-C ,  5-C ) :   0.9369 B(  0-C ,  6-S ) :   0.9974 
B(  0-C , 17-H ) :   0.9755 B(  1-C ,  2-C ) :   0.9478 B(  1-C , 13-H ) :   0.9784 
B(  1-C , 14-H ) :   0.9898 B(  2-C ,  3-C ) :   0.9458 B(  2-C ,  7-H ) :   0.9934 
B(  2-C ,  8-H ) :   0.9838 B(  3-C ,  4-C ) :   0.9475 B(  3-C ,  9-H ) :   0.9946 
B(  3-C , 10-H ) :   0.9839 B(  4-C ,  5-C ) :   0.9464 B(  4-C , 11-H ) :   0.9836 
B(  4-C , 12-H ) :   0.9933 B(  5-C , 15-H ) :   0.9928 B(  5-C , 16-H ) :   0.9774 
B(  6-S , 18-H ) :   1.0138 

-------
TIMINGS
-------

Total SCF time: 0 days 0 hours 0 min 21 sec 

Total time                  ....      21.324 sec
Sum of individual times     ....      20.997 sec  ( 98.5%)

Fock matrix formation       ....      20.161 sec  ( 94.5%)
Diagonalization             ....       0.134 sec  (  0.6%)
Density matrix formation    ....       0.018 sec  (  0.1%)
Population analysis         ....       0.056 sec  (  0.3%)
Initial guess               ....       0.314 sec  (  1.5%)
Orbital Transformation      ....       0.000 sec  (  0.0%)
Orbital Orthonormalization  ....       0.000 sec  (  0.0%)
DIIS solution               ....       0.000 sec  (  0.0%)
SOSCF solution              ....       0.137 sec  (  0.6%)


           ************************************************************
           *        Program running with 8 parallel MPI-processes     *
           *              working on a common directory               *
           ************************************************************


------------------------------------------------------------------------------- 
                              ORCA-MATRIX DRIVEN CI                            
------------------------------------------------------------------------------- 


Wavefunction type
-----------------
Correlation treatment                      ...      CCSD     
Single excitations                         ... ON
Orbital optimization                       ... OFF
Calculation of Z vector                    ... OFF
Calculation of Brueckner orbitals          ... OFF
Perturbative triple excitations            ... ON
Calculation of F12 correction              ... OFF
Frozen core treatment                      ... chemical core (22 el)
Reference Wavefunction                     ... RHF
  Internal Orbitals:    11 ...   31 ( 21 MO's/ 42 electrons)
  Virtual  Orbitals:    32 ...  381 (350 MO's              )
Number of AO's                             ...    382
Number of electrons                        ...     64
Number of correlated electrons             ...     42

Algorithmic settings
--------------------
Integral transformation                    ... All integrals via the RI transformation
K(C) Formation                             ... RI-DLPNO
   PNO-Integral Storage                    ... ON DISK
   PNO occupation number cut-off           ... 1.000e-07
   Singles PNO occupation number cut-off   ... 3.000e-09
   PNO Mulliken prescreening cut-off       ... 1.000e-03
   Domain cut-off (Mulliken population)    ... 1.000e-03
   PNO Normalization                       ...    1
Maximum number of iterations               ...        50
Convergence tolerance (max. residuum)      ... 1.000e-05
Level shift for amplitude update           ... 2.000e-01
Maximum number of DIIS vectors             ...         7
DIIS turned on at iteration                ...         0
Damping before turning on DIIS             ...     0.500
Damping after turning on DIIS              ...     0.000
Pair specific amplitude update             ... OFF
Natural orbital iterations                 ... OFF
Perturbative natural orbital generation    ... OFF
Printlevel                                 ... 2

Singles Fock matrix elements calculated using PNOs.

Memory handling:
----------------
Maximum memory for working arrays          ...   8000 MB
Data storage in matrix containers          ... UNCOMPRESSED
Data type for integral storage             ... DOUBLE
In-Core Storage of quantities:
   Amplitudes+Sigma Vector      ... NO
   J+K operators                ... NO
   DIIS vectors                 ... NO
   3-external integrals         ... NO
   4-external integrals         ... NO

Localization treatment:
-----------------------
Localization option                        ...    6
Localization threshhold                    ... -1.0e+00
Using relative localization threshhold     ... 1.0e-08
Neglect threshold for strong pairs         ... 1.000e-05 Eh
Prescreening threshold for very weak pairs ... 1.000e-07 Eh

Initializing the integral package          ... done
Localizing the valence orbitals
------------------------------------------------------------------------------
                           ORCA ORBITAL LOCALIZATION
------------------------------------------------------------------------------

Input orbitals are from                  ... cyclohexanethiol_eq.proc0.gbw
Output orbitals are to                   ... cyclohexanethiol_eq.proc0.loc
Max. number of iterations                ... 128
Localizations seeded randomly            ... off
Convergence tolerance                    ... 1.000e-06
Using relative localization threshhold   ... 1.000e-08
Treshold for strong local MOs            ... 9.500e-01
Treshold for bond MOs                    ... 8.500e-01
Operator                                 ... 0
Orbital range for localization           ... 11 to 31
Localization criterion                   ... FOSTER-BOYS (AUGMENTED HESSIAN)
Doing the dipole integrals     ... o.k.
Initial value of the localization sum :   250.643491
ITERATION   0 : L=  316.2768676915 DL=  6.56e+01 (AVERGE_DL)=    0.5590526723 
ITERATION   1 : L=  324.8176249401 DL=  8.54e+00 (AVERGE_DL)=    0.2016687200 
ITERATION   2 : L=  324.9492155272 DL=  1.32e-01 (AVERGE_DL)=    0.0250324159 
ITERATION   3 : L=  324.9499707841 DL=  7.55e-04 (AVERGE_DL)=    0.0018964338 
ITERATION   4 : L=  324.9499836842 DL=  1.29e-05 (AVERGE_DL)=    0.0002478491 
ITERATION   5 : L=  324.9499839046 DL=  2.20e-07 (AVERGE_DL)=    0.0000323997 
LOCALIZATION SUM CONVERGED

------------------------------------------------------
AUGMENTED HESSIAN OPTIMIZATION OF FOSTER-BOYS ORBITALS
------------------------------------------------------

Spin operator:           0
Orbital window:          11 to 31
Number of iterations:    128
Gradient tolerance:      1.000e-06
Number of pairs:         210
Davidson threshold:      2000
Diagonalization method:  LAPACK
Iter:    0   L: 324.9499839046   Grad. norm: 1.216770e-03
   *** Likely close to a maximum now. ***
       Augmented Hessian eigenvalues:  1.54e-08 -7.24e+00 -1.42e+01 -1.76e+01 ... 
Iter:    1   L: 324.9499839123   Grad. norm: 4.020247e-09
LOCALIZATION HAS CONVERGED.

Eigenvalues of the Hessian:
  0 -7.235e+00
  1 -1.425e+01
  2 -1.757e+01
  3 -1.781e+01
  4 -1.788e+01
  5 -1.792e+01
  6 -1.793e+01
  7 -1.805e+01
  8 -1.812e+01
  9 -1.844e+01
    ...


------------------------------------------------------------------------------- 
                    LOCALIZED MOLECULAR ORBITAL COMPOSITIONS                   
------------------------------------------------------------------------------- 

The Mulliken populations for each LMO on each atom are computed
The LMO`s will be ordered according to atom index and type
  (A) Strongly localized MO`s have populations of >=0.950 on one atom
  (B) Two center bond orbitals have populations of >=0.850 on two atoms
  (C) Other MO`s are considered to be `delocalized`

FOUND  -   2 strongly local MO`s
       -  19 two center bond MO`s
       -   0 significantly delocalized MO`s

Rather strongly localized orbitals:
MO  12:   6S  -   0.999505
MO  11:   6S  -   1.002878
Bond-like localized orbitals:
MO  31:  18H  -   0.459581  and   6S  -   0.551226
MO  30:  17H  -   0.451004  and   0C  -   0.574198
MO  29:  16H  -   0.462850  and   5C  -   0.561055
MO  28:  15H  -   0.460088  and   5C  -   0.572863
MO  27:  14H  -   0.451656  and   1C  -   0.582479
MO  26:  13H  -   0.463647  and   1C  -   0.562077
MO  25:  12H  -   0.461048  and   4C  -   0.572209
MO  24:  11H  -   0.473484  and   4C  -   0.553802
MO  23:  10H  -   0.472965  and   3C  -   0.554370
MO  22:   9H  -   0.461753  and   3C  -   0.572610
MO  21:   8H  -   0.472811  and   2C  -   0.554712
MO  20:   7H  -   0.460808  and   2C  -   0.572733
MO  19:   6S  -   0.569313  and   0C  -   0.464517
MO  18:   5C  -   0.520460  and   4C  -   0.509783
MO  17:   5C  -   0.500254  and   0C  -   0.530184
MO  16:   4C  -   0.519305  and   3C  -   0.512592
MO  15:   3C  -   0.513587  and   2C  -   0.518349
MO  14:   2C  -   0.510681  and   1C  -   0.521420
MO  13:   1C  -   0.493734  and   0C  -   0.533511
Localized MO's were stored in: cyclohexanethiol_eq.proc0.loc

Localizing the core orbitals
------------------------------------------------------------------------------
                           ORCA ORBITAL LOCALIZATION
------------------------------------------------------------------------------

Input orbitals are from                  ... cyclohexanethiol_eq.proc0.loc
Output orbitals are to                   ... cyclohexanethiol_eq.proc0.loc
Max. number of iterations                ... 128
Localizations seeded randomly            ... off
Convergence tolerance                    ... 1.000e-06
Using relative localization threshhold   ... 1.000e-08
Treshold for strong local MOs            ... 9.500e-01
Treshold for bond MOs                    ... 8.500e-01
Operator                                 ... 0
Orbital range for localization           ... 0 to 10
Localization criterion                   ... FOSTER-BOYS (AUGMENTED HESSIAN)
Doing the dipole integrals     ... o.k.
Initial value of the localization sum :   165.693471
ITERATION   0 : L=  165.8459940780 DL=  1.53e-01 (AVERGE_DL)=    0.0526606336 
ITERATION   1 : L=  165.8987926782 DL=  5.28e-02 (AVERGE_DL)=    0.0309834560 
ITERATION   2 : L=  165.9001406472 DL=  1.35e-03 (AVERGE_DL)=    0.0049506088 
ITERATION   3 : L=  165.9001876211 DL=  4.70e-05 (AVERGE_DL)=    0.0009241598 
ITERATION   4 : L=  165.9001904237 DL=  2.80e-06 (AVERGE_DL)=    0.0002257343 
ITERATION   5 : L=  165.9001906054 DL=  1.82e-07 (AVERGE_DL)=    0.0000574713 
LOCALIZATION SUM CONVERGED

------------------------------------------------------
AUGMENTED HESSIAN OPTIMIZATION OF FOSTER-BOYS ORBITALS
------------------------------------------------------

Spin operator:           0
Orbital window:          0 to 10
Number of iterations:    128
Gradient tolerance:      1.000e-06
Number of pairs:         55
Davidson threshold:      2000
Diagonalization method:  LAPACK
Iter:    0   L: 165.9001906054   Grad. norm: 3.822817e-04
   *** Detected a saddle point. ***
       Augmented Hessian eigenvalues:  4.89e-05  2.85e-05 -4.65e-05 -1.07e-04 ... 
Iter:    1   L: 165.9001966109   Grad. norm: 3.438969e-04
Iter:    2   L: 165.9002027667   Grad. norm: 2.876521e-04
Iter:    3   L: 165.9002087354   Grad. norm: 2.005704e-04
Iter:    4   L: 165.9002126705   Grad. norm: 9.916582e-05
Iter:    5   L: 165.9002137293   Grad. norm: 2.055304e-05
   *** Likely close to a maximum now. ***
       Augmented Hessian eigenvalues:  1.88e-09 -3.82e-05 -1.57e-04 -1.60e-04 ... 
Iter:    6   L: 165.9002137302   Grad. norm: 5.964645e-09
LOCALIZATION HAS CONVERGED.

Eigenvalues of the Hessian:
  0 -3.812e-05
  1 -1.569e-04
  2 -1.595e-04
  3 -1.373e-01
  4 -1.379e-01
  5 -1.384e-01
  6 -4.134e-01
  7 -5.497e-01
  8 -5.514e-01
  9 -5.529e-01
    ...


------------------------------------------------------------------------------- 
                    LOCALIZED MOLECULAR ORBITAL COMPOSITIONS                   
------------------------------------------------------------------------------- 

The Mulliken populations for each LMO on each atom are computed
The LMO`s will be ordered according to atom index and type
  (A) Strongly localized MO`s have populations of >=0.950 on one atom
  (B) Two center bond orbitals have populations of >=0.850 on two atoms
  (C) Other MO`s are considered to be `delocalized`

FOUND  -  11 strongly local MO`s
       -   0 two center bond MO`s
       -   0 significantly delocalized MO`s

Rather strongly localized orbitals:
MO  10:   6S  -   1.000214
MO   9:   6S  -   0.998727
MO   8:   6S  -   0.999815
MO   7:   6S  -   0.999999
MO   6:   6S  -   1.000181
MO   5:   5C  -   1.001509
MO   4:   4C  -   1.001517
MO   3:   3C  -   1.001480
MO   2:   2C  -   1.001520
MO   1:   1C  -   1.001541
MO   0:   0C  -   1.001130
Localized MO's were stored in: cyclohexanethiol_eq.proc0.loc

Warning: internal orbitals are localized - no re-canonicalization of internal orbitals

--------------------------
CLOSED-SHELL FOCK OPERATOR
--------------------------

RI-JK section for the Fock operator:
  RHF full Fock operator         ... done
  RHF frozen core Fock operator  ... done
Time needed for Fock operator              ...            3.245 sec
Reference energy                           ...   -631.831304387

--------------
DLPNO SETTINGS (2015 fully linear scaling implementation)
--------------

TCutMKN:           1.000e-03
TCutPAO:           1.000e-03
TCutPNO:           1.000e-07
TCutPNOSingles:    3.000e-09
TCutEN:            9.700e-01
TCutPAOExt:        1.000e-01
TCutPairs:         1.000e-05
TCutPre:           1.000e-07
TCutOSV:           1.000e-06
TCutDOij:          1.000e-05
TCutDO:            5.000e-03
TCutC:             1.000e-04
TCutCPAO:          1.000e-03
TCutCMO:           1.000e-03
TScaleDOMP2PreScr: 2.000e+00
TScaleMKNMP2PreScr:1.000e+01
TScalePNOMP2PreScr:1.000e+00
PAO overlap thresh 1.000e-08
Using PNOs for Singles Fock computation
Use new domains
Use fully linear algorithm
TCutTNO:           1.000e-09
TCutMP2Pairs:      1.000e-06
TCutDOStrong:      2.000e-03
TCutMKNStrong:     1.000e-02
TCutMKNWeak:       1.000e-01
TCutDOWeak:        4.000e-03
NTCutTNO:          1

--------------------------
Calculating differential overlap integrals ... ok
--------------------------
ELECTRON PAIR PRESCREENING
--------------------------

Dipole-based pair screening          .... used

   TCutDOij = 1.000000e-05
   TCutPre  = 1.000000e-07
   .... Finished loop over pairs
Total time spent in the prescreening                  ...     0.000 sec
sum of pair energies estimated for screened out pairs ...       0.000000000000 Eh
Thresholds for map construction and integral transformation for crude MP2:
   TCutMKN                    ...     1.0e-02
   TCutDO                     ...     1.0e-02
   TCutPairs                  ...     1.0e-05
   TCutPNO_CrudeMP2           ...     1.0e-07
   TCutPNOSingles_CrudeMP2    ...     3.0e-09
--------------------------------
LOCAL RI TRANSFORMATION (IAVPAO)
--------------------------------

Orbital window:      11 to 31
Number of PAOs:     382
Basis functions:    382 (144 shells)
Aux. functions:     968 (290 shells)

Processing maps (0.0 sec)
Average map sizes:
   Aux shells -> MOs              21.0
   Aux shells -> PAOs            382.0
[...]
   TCutMKN   ...     1.0e-01
   TCutDO    ...     2.0e-02
   TCutCMO   ...     1.0e-03
   TCutCPAO  ...     1.0e-03

--------------------------------
LOCAL RI TRANSFORMATION (IAVPAO)
--------------------------------

Orbital window:      11 to 31
Number of PAOs:     382
Basis functions:    382 (144 shells)
Aux. functions:     968 (290 shells)

Processing maps (0.0 sec)
Average map sizes:
   Aux shells -> MOs              21.0
   Aux shells -> PAOs            382.0
   MOs        -> AO shells       139.4
   PAOs       -> AO shells       144.0

Calculating integrals (5.5 sec, 59.256 MB)
Sorting integrals (0.1 sec, 59.245 MB)
Total time for the integral transformation: 5.6 sec
--------------------------------
INITIAL GUESS AND PNO GENERATION
--------------------------------

PNO truncation parameters                   .... 
    ScaleTCutPNO       =        1.000e-02
    PAOOverlapThresh   =        1.000e-08

    TCutPairs          =        1.000e-05
    TCutPNO            =        1.000e-07
    TCutPNOSingles     =        3.000e-09
    TCutMP2Pairs       =        1.000e-06
    TCutMKN            =        1.000e-03
    TCutDO             =        5.000e-03

Pair selection                          .... not used
Type of local MP2 treatment                 .... full local PMP2
Strategy for PNO selection                  .... occupation number selection
Pair density normalization                  .... MP2 norm
Spin component scaling                      .... not used

PASS-1: Formation of initial guess LMP2 amplitudes
Initial amplitudes guess done. Entering LMP2 iteration loop:
   Max. no of iterations          ...  50
   Energy convergence tolerance   ...    1.0e-07
   Residual convergence tolerance ...    5.0e-07
   Fock matrix cutoff             ...    1.0e-05 Eh
   DIIS convergence acceleration parameters:
        Max # vectors in DIIS     ... 7
        Start iteration of DIIS   ... 0
        Levelshift                ... 2.000e-01
        Damping factor 1          ... 5.000e-01
        Damping factor 2          ... 1.000e+00
   L-MP2 PNO cut-off              ...   1.0e-09
   L-MP2 PNO cut-off (core)       ...   1.0e-11
                           *** Turning on DIIS ***
LMP2-Iter=   0:  ELMP2= -1.201633711756  DE=   2.1e-02 RMAX=   5.1e-03
LMP2-Iter=   1:  ELMP2= -1.213255991589  DE=   1.2e-02 RMAX=   2.6e-03
LMP2-Iter=   2:  ELMP2= -1.215111460666  DE=   1.9e-03 RMAX=   4.4e-04
LMP2-Iter=   3:  ELMP2= -1.215284522271  DE=   1.7e-04 RMAX=   1.9e-04
LMP2-Iter=   4:  ELMP2= -1.215290268966  DE=   5.7e-06 RMAX=   2.2e-05
LMP2-Iter=   5:  ELMP2= -1.215288838824  DE=   1.4e-06 RMAX=   9.4e-06
LMP2-Iter=   6:  ELMP2= -1.215288631057  DE=   2.1e-07 RMAX=   9.9e-07
LMP2-Iter=   7:  ELMP2= -1.215288622548  DE=   8.5e-09 RMAX=   2.8e-07
LMP2-Iter=   8:  ELMP2= -1.215288626369  DE=   3.8e-09 RMAX=   3.0e-08 => CONVERGED
PASS-2: Formation of Pair natural orbitals
   .... Finished loop over pairs

 PNO Occupation Number Statistics: 
  | Av. % of trace(Dij) retained        ...  99.518463054724
  | sigma^2 in % of trace(Dij) retained ...   3.58e-01
  | Av. % of trace(Di) retained         ...  99.999722560003
  | sigma^2 in % of trace(Di) retained  ...   5.86e-09
 Distributions of % trace(Dij) recovered:
  |       >= 99.9  ...    64 ( 27.7 % of all pairs)
  |   [90.0, 99.0) ...    36 ( 15.6 % of all pairs)
  |   [99.0, 99.9) ...   131 ( 56.7 % of all pairs)
 Distributions of % trace(Di) recovered :
  |       >= 99.9  ...    21 (100.0 % of all I-pairs )

Making pair pair interaction lists          ... done

                       ===========================
                        231 OF  231 PAIRS ARE KEPT
                       ===========================

Total time spent in the initial guess                 ...    19.728 sec
L-MP2 correlation energy (all non-screened pairs)     ...      -1.215288626369 Eh
L-MP2 PNO error correction                            ...      -0.000030264972 Eh
                                                          --------------------
Initial total L-MP2 energy (non-screened pairs)       ...      -1.215318891341 Eh

Initial PNO correlation energy                        ...      -1.214046734850 Eh
sum of pair energies estimated for screened out pairs ...       0.000000000000 Eh
sum of MP2 pair energies for pairs that were not kept ...       0.000000000000 Eh
sum of PNO error estimates for the kept pairs         ...      -0.001272156491 Eh
                                                          --------------------
sum of all corrections                                         -0.001272156491
Initial total correlation energy                               -1.215318891341
Thresholds for map construction and integral transformation for fine MP2 and CCSD(T) calculation:
   TCutMKN   ...     1.0e-03
   TCutDO    ...     5.0e-03
   TCutPairs ...     1.0e-05
   TCutCMO   ...     1.0e-03
   TCutCPAO  ...     1.0e-03

Time for aux screen maps:            0.005
Time for maps after fine MP2:            0.017
-----------------------------
LOCAL RI TRANSFORMATION (IJV)
-----------------------------

Orbital window:      11 to 31
Basis functions:    382 (144 shells)
Aux. functions:     968 (290 shells)

Processing maps (0.0 sec)
Average map sizes:
   Aux shells -> MOs(i)           21.0
   Aux shells -> MOs(j)           21.0
   MOs        -> AO shells       139.4

Calculating integrals (1.0 sec, 3.268 MB)
Sorting integrals (0.0 sec, 3.257 MB)
Total time for the integral transformation: 1.0 sec
--------------------------------
LOCAL RI TRANSFORMATION (VABPAO)
--------------------------------

Number of PAOs:     382
Basis functions:    382 (144 shells)
Aux. functions:     968 (290 shells)

Processing maps (0.0 sec)
Average map sizes:
   Aux shells -> PAOs            382.0
   PAOs       -> AO shells       144.0

Calculating integrals (2.9 sec, 2025.135 MB)
Finished


-------------------------------------
Pair Pair Term precalculation with     
RI-(ij|mn) and (im|jn) transformation  
ON THE FLY                             
-------------------------------------

   IBatch   1 (of   2)              ... done (   87.930 sec)
   IBatch   2 (of   2)              ... done (   37.105 sec)
Total EXT                           ...         125.240 sec

---------------------
RI-PNO TRANSFORMATION
---------------------

Total Number of PNOs                   ...  9753
Average number of PNOs per pair        ...    42
Maximal number of PNOs per pair        ...    72
   #pairs with  1 -  5 PNOs   :    0
   #pairs with  6 - 10 PNOs   :    6
   #pairs with 11 - 15 PNOs   :   10
   #pairs with 16 - 20 PNOs   :   19
   #pairs with 21 - 25 PNOs   :    3
   #pairs with 26 - 30 PNOs   :   42
   #pairs with 31 - 35 PNOs   :   13
   #pairs with 36 - 40 PNOs   :   12
   #pairs with 41 - 45 PNOs   :    4
   #pairs with 46 - 50 PNOs   :   38
   #pairs with 51 - 55 PNOs   :   34
   #pairs with 56 - 60 PNOs   :    5
   #pairs with 61 - 65 PNOs   :    8
   #pairs with 66 - 70 PNOs   :   31
   #pairs with 71 - 75 PNOs   :    6

Generation of (ij|ab)[P] integrals            ... on
Generation of (ia|bc)[P],(ja|bc)[P] integrals ... on
Storage of 3 and 4 external integrals         ... on
Generation of ALL (ka|bc)[P] integrals        ... on
Keep RI integrals in memory                   ... off

Ibatch:  1 (of  1)
Starting 2-4 index PNO integral generation ... done

Timings:
Total PNO integral transformation time     ...         42.821 sec
Size of the 3-external file                ...       204 MB
Size of the 4-external file                ...      1503 MB
Size of the IKJL file                      ...         0 MB
Size of the all 3-external file            ...      2148 MB
Size of the 1-external file                ...         4 MB

Making pair/pair overlap matrices          ... done (    5.404 sec)
Size of the pair overlap file              ... 519 MB
Redoing the guess amplitudes               ... done (    0.195 sec)

-------------------------
FINAL STARTUP INFORMATION
-------------------------

E(0)                                       ...   -631.831304387
E(L-MP2)                                   ...     -1.215318891
E(L-MP2) including corrections             ...     -1.215318891
Initial E(tot)                             ...   -633.046623279
<T|T>                                      ...      0.367911142
Number of pairs included                   ... 231
Total number of pairs                      ... 231

------------------------------------------------
                  RHF COUPLED CLUSTER ITERATIONS
------------------------------------------------

Number of PNO amplitudes to be optimized   ...       483487
Number of non-PNO amplitudes               ...     28297500
Untruncated number of regular amplitudes   ...     28297500

Iter       E(tot)           E(Corr)          Delta-E          Residual     Time
  0   -633.011335944     -1.178759400      0.036559491      0.012870163   14.50
                           *** Turning on DIIS ***
  1   -633.077229543     -1.244652999     -0.065893599      0.007191735   14.89
  2   -633.111302075     -1.278725531     -0.034072532      0.002380954   14.67
  3   -633.117326152     -1.284749609     -0.006024078      0.001329801   14.68
  4   -633.118489949     -1.285913406     -0.001163797      0.000375630   14.72
  5   -633.118699550     -1.286123006     -0.000209601      0.000158496   14.58
  6   -633.118741714     -1.286165170     -0.000042164      0.000062247   19.02
  7   -633.118747710     -1.286171166     -0.000005996      0.000033606   13.14
  8   -633.118748766     -1.286172222     -0.000001056      0.000013619   14.44
  9   -633.118748605     -1.286172061      0.000000161      0.000005421   15.64
               --- The Coupled-Cluster iterations have converged ---

----------------------
COUPLED CLUSTER ENERGY
----------------------

E(0)                                       ...   -631.831304387
E(CORR)(strong-pairs)                      ...     -1.286172061
E(CORR)(weak-pairs)                        ...     -0.001272156
E(CORR)(corrected)                         ...     -1.287444217
E(TOT)                                     ...   -633.118748605
Singles Norm <S|S>**1/2                    ...      0.057884902  
T1 diagnostic                              ...      0.008931834  

------------------
LARGEST AMPLITUDES
------------------
  19-> 32  19-> 32       0.047229
  31-> 32  31-> 32       0.037620
  12-> 32  12-> 32       0.033075
  30-> 38  30-> 38       0.033057
  16-> 42  16-> 42       0.031460
  11-> 32  11-> 32       0.031415
  15-> 42  15-> 42       0.031389
  31-> 34  31-> 34       0.030595
  14-> 42  14-> 42       0.029513
  21-> 38  21-> 38       0.028982
  26-> 32  26-> 32       0.028506
  24-> 38  24-> 38       0.028438
  24-> 32  24-> 32       0.028418
  21-> 32  21-> 32       0.028393
  23-> 32  23-> 32       0.028295
  30-> 32  30-> 32       0.028128


-------------------------------------------
DLPNO BASED TRIPLES CORRECTION
-------------------------------------------

Singles multiplier          ...  1.000000
TCutTNO                     ... 1.000e-09
TCutMP2Pairs                ... 1.000e-06
TCutDOStrong                ... 1.000e-02
TCutMKNStrong               ... 1.000e-02
TCutDOWeak                  ... 2.000e-02
TCutMKNWeak                 ... 1.000e-01

Fragment selection                          .... not used
Number of Triples that are to be computed   ...      1750

 . . . . . . . . .
10% done  
20% done  
30% done  
40% done  
50% done  
60% done  
70% done  
80% done  
90% done               (    255.442 sec)
Triples timings:
Total time for T0               ...   273.656 sec
Total time for Iterative (T)    ...     0.000 sec
Total time of overall (T)       ...   286.599 sec

Triples List generation         ...     0.000 sec
TNO generation                  ...    18.165 sec
Pair density generation         ...     0.017 sec
Look up tables                  ...     0.000 sec
Generating 3-index integrals    ...   178.076 sec
  Make 4-ind.int. from 3-ind.int...    24.139 sec
  Projecting amplitudes (D + S) ...    21.530 sec
  Downprojecting integrals      ...     0.004 sec
  Energy contr. (sum over a,b,c)...     8.822 sec
Fitting ET(->0)                 ...     0.000 sec

Everything after 3-index        ...    77.366 sec

Timing details:
 TNO integrals                  ...   200.142 sec
   Reading 3-index integrals    ...     0.448 sec
   Sorting integrals            ...    25.147 sec
       Sorting integrals 1      ...     0.002 sec
       Sorting integrals 2      ...    14.878 sec
       Sorting integrals 3      ...     0.660 sec
       Sorting integrals 4      ...     0.038 sec
       Sorting integrals 5      ...     0.232 sec
       Sorting integrals 6      ...     9.338 sec
   Calculating local VM**-1/2   ...     0.682 sec
   Orthogonal. integrals        ...     1.142 sec
   Multipl. 3-index integrals   ...   172.723 sec
   All concerning IRIab (w/TNO) ...    12.341 sec

 Calculate W0/W1                ...    22.862 sec
 W 3-ext contribution           ...    12.360 sec
 W 3-int contribution           ...     3.384 sec
 Sorting W                      ...     6.807 sec

 V exchange contribution        ...     2.802 sec

 Timings for Triples without generation
     of 3-index integrals       ...    77.363 sec
       0 weak pairs             ...    77.363 sec
       1 weak pair              ...     0.000 sec
       2 weak pairs             ...     0.000 sec
       3 weak pairs             ...     0.000 sec
  Extra time for extrapolation  ...     0.000 sec

Number of Triples   (0, 1, 2, 3 weak pairs; overall):   1750       0       0       0  (  1750)
Number of Atoms     (0, 1, 2, 3 weak pairs; overall):   18.3     0.0     0.0     0.0  (    19)
Number of PAOs      (0, 1, 2, 3 weak pairs; overall):  372.0     0.0     0.0     0.0  (   382)
Number of AuxFcns   (0, 1, 2, 3 weak pairs; overall):  441.4     0.0     0.0     0.0  (   968)
Number of TNOs      (0, 1, 2, 3 weak pairs         ):  103.3     0.0     0.0     0.0
Aver. Number of NTNO, Atoms, PAOs, AuxFcns / Triples:   1750   103.3    18.3   372.0   441.4

Triples Correction (T)                     ...     -0.053647429
Final correlation energy                   ...     -1.341091647
E(CCSD)                                    ...   -633.118748605
E(CCSD(T))                                 ...   -633.172396034


Maximum memory used throughout the entire calculation: 7962.7 MB


------------------------------------------------------------------------------- 
                                     TIMINGS                                   
------------------------------------------------------------------------------- 


Total execution time                   ...      661.745 sec

Localization of occupied MO's          ...        0.708 sec (  0.1%)
Fock Matrix Formation                  ...        3.245 sec (  0.5%)
Global overlap, Fock, MKN matrices     ...        0.213 sec (  0.0%)
Differential overlap integrals         ...        0.152 sec (  0.0%)
Organizing maps                        ...        0.051 sec (  0.0%)
RI 3-index integral generations        ...       15.001 sec (  2.3%)
RI-PNO integral transformation         ...      180.749 sec ( 27.3%)
Initial Guess                          ...       22.821 sec (  3.4%)
DIIS Solver                            ...        1.992 sec (  0.3%)
State Vector Update                    ...        0.046 sec (  0.0%)
Sigma-vector construction              ...      149.883 sec ( 22.6%)
  <D|H|D>(0-ext)                       ...        3.590 sec (  2.4% of sigma)
  <D|H|D>(2-ext Fock)                  ...        0.015 sec (  0.0% of sigma)
  <D|H|D>(2-ext)                       ...       20.159 sec ( 13.4% of sigma)
  <D|H|D>(4-ext)                       ...       15.789 sec ( 10.5% of sigma)
  <D|H|D>(4-ext-corr)                  ...       76.892 sec ( 51.3% of sigma)
  CCSD doubles correction              ...        0.234 sec (  0.2% of sigma)
  <S|H|S>                              ...        0.610 sec (  0.4% of sigma)
  <S|H|D>(1-ext)                       ...        0.448 sec (  0.3% of sigma)
  <D|H|S>(1-ext)                       ...        0.013 sec (  0.0% of sigma)
  <S|H|D>(3-ext)                       ...        0.597 sec (  0.4% of sigma)
  Fock-dressing                        ...       18.487 sec ( 12.3% of sigma)
  Singles amplitudes                   ...        0.591 sec (  0.4% of sigma)
  (ik|jl)-dressing                     ...        2.688 sec (  1.8% of sigma)
  (ij|ab),(ia|jb)-dressing             ...        2.869 sec (  1.9% of sigma)
  Pair energies                        ...        0.009 sec (  0.0% of sigma)
Total Time for computing (T)           ...      286.685 sec ( 43.3% of ALL)


-------------------------   --------------------
FINAL SINGLE POINT ENERGY      -633.172396033737
-------------------------   --------------------


                            ***************************************
                            *     ORCA property calculations      *
                            ***************************************

                                    ---------------------
                                    Active property flags
                                    ---------------------
   (+) Dipole Moment


------------------------------------------------------------------------------
                       ORCA ELECTRIC PROPERTIES CALCULATION
------------------------------------------------------------------------------

Dipole Moment Calculation                       ... on
Quadrupole Moment Calculation                   ... off
Polarizability Calculation                      ... off
GBWName                                         ... cyclohexanethiol_eq.gbw
Electron density file                           ... cyclohexanethiol_eq.scfp.tmp
The origin for moment calculation is the CENTER OF MASS  = ( 0.143451, -0.018070 -0.011119)

-------------
DIPOLE MOMENT
-------------
                                X             Y             Z
Electronic contribution:      8.48344      -0.87830      -0.45347
Nuclear contribution   :     -9.18099       1.15659       0.71148
                        -----------------------------------------
Total Dipole Moment    :     -0.69755       0.27829       0.25801
                        -----------------------------------------
Magnitude (a.u.)       :      0.79409
Magnitude (Debye)      :      2.01843



--------------------
Rotational spectrum 
--------------------
 
Rotational constants in cm-1:     0.140193     0.045995     0.037027 
Rotational constants in MHz :  4202.869630  1378.901693  1110.055717 

 Dipole components along the rotational axes: 
x,y,z [a.u.] :    -0.702222    -0.269062     0.255099 
x,y,z [Debye]:    -1.784906    -0.683901     0.648409 

 

Timings for individual modules:

Sum of individual times         ...      686.696 sec (=  11.445 min)
GTO integral calculation        ...        0.876 sec (=   0.015 min)   0.1 %
SCF iterations                  ...       21.436 sec (=   0.357 min)   3.1 %
MDCI module                     ...      664.384 sec (=  11.073 min)  96.8 %
                             ****ORCA TERMINATED NORMALLY****
TOTAL RUN TIME: 0 days 0 hours 11 minutes 27 seconds 957 msec
cyclohexanethiol_eq.gbw -> /home1/pantazis/klk/xyz/Cyclohexanes/cyclohexanethiol_eq.gbw
cyclohexanethiol_eq.job -> /home1/pantazis/klk/xyz/Cyclohexanes/cyclohexanethiol_eq.job
cyclohexanethiol_eq.loc -> /home1/pantazis/klk/xyz/Cyclohexanes/cyclohexanethiol_eq.loc
cyclohexanethiol_eq.nodes -> /home1/pantazis/klk/xyz/Cyclohexanes/cyclohexanethiol_eq.nodes
cyclohexanethiol_eq.prop -> /home1/pantazis/klk/xyz/Cyclohexanes/cyclohexanethiol_eq.prop
cyclohexanethiol_eq_property.txt -> /home1/pantazis/klk/xyz/Cyclohexanes/cyclohexanethiol_eq_property.txt
cyclohexanethiol_eq.xyz -> /home1/pantazis/klk/xyz/Cyclohexanes/cyclohexanethiol_eq.xyz
cp: cannot stat cyclohexanethiol_eq.asa.inp: No such file or directory
