! Job execution by suborca V 6.07 on ZEUS !
Job started from zeus1, running /scratch/pantazis/cyclohexane_twb__ybDFDQ/orca/orca copied from /opt/orca on zeussn125 in /scratch/pantazis/cyclohexane_twb__ybDFDQ
Job execution start: Thu Jun 27 11:30:39 CEST 2019
Shared library path: /scratch/pantazis/cyclohexane_twb__ybDFDQ/orca:/opt/openmpi_1.10.2/lib:/opt/intel/mkl/lib/intel64:/opt/intel/lib/intel64:
PBS Job ID is: 158030.icqc
izeussn125
izeussn125
izeussn125
izeussn125
izeussn125
izeussn125
izeussn125
izeussn125

                                 *****************
                                 * O   R   C   A *
                                 *****************

           --- An Ab Initio, DFT and Semiempirical electronic structure package ---

                  #######################################################
                  #                        -***-                        #
                  #          Department of theory and spectroscopy      #
                  #               Directorship: Frank Neese             #
                  #        Max Planck Institute fuer Kohlenforschung    #
                  #                Kaiser Wilhelm Platz 1               #
                  #                 D-45470 Muelheim/Ruhr               #
                  #                      Germany                        #
                  #                                                     #
                  #                  All rights reserved                #
                  #                        -***-                        #
                  #######################################################


                         Program Version 4.1.x  -  STABLE  -
                                (SVN: $Rev: 14094$)
                ($Date: 2019-06-14 15:01:15 +0200 (Fri, 14 Jun 2019) $)

                         (BUILD: $Sun Jun 23 06:18:31 CEST 2019$)


 With contributions from (in alphabetic order):
   Daniel Aravena         : Magnetic Properties
   Michael Atanasov       : Ab Initio Ligand Field Theory
   Alexander A. Auer      : GIAO ZORA
   Ute Becker             : Parallelization
   Giovanni Bistoni       : ED, Open-shell LED
   Martin Brehm           : Molecular dynamics
   Dmytro Bykov           : SCF Hessian
   Vijay G. Chilkuri      : MRCI spin determinant printing
   Dipayan Datta          : RHF DLPNO-CCSD density
   Achintya Kumar Dutta   : EOM-CC, STEOM-CC
   Dmitry Ganyushin       : Spin-Orbit,Spin-Spin,Magnetic field MRCI
   Miquel Garcia          : C-PCM Hessian
   Yang Guo               : DLPNO-NEVPT2, CIM, IAO-localization
   Andreas Hansen         : Spin unrestricted coupled pair/coupled cluster methods
   Benjamin Helmich-Paris : CASSCF linear response (MC-RPA)
   Lee Huntington         : MR-EOM, pCC
   Robert Izsak           : Overlap fitted RIJCOSX, COSX-SCS-MP3, EOM
   Christian Kollmar      : KDIIS, OOCD, Brueckner-CCSD(T), CCSD density
   Simone Kossmann        : Meta GGA functionals, TD-DFT gradient, OOMP2, MP2 Hessian
   Martin Krupicka        : AUTO-CI
   Lucas Lang             : DCDCAS
   Dagmar Lenk            : GEPOL surface, SMD
   Dimitrios Liakos       : Extrapolation schemes; parallel MDCI
   Dimitrios Manganas     : ROCIS; embedding schemes
   Dimitrios Pantazis     : SARC Basis sets
   Taras Petrenko         : DFT Hessian,TD-DFT gradient, ASA, ECA, R-Raman, ABS, FL, XAS/XES, NRVS
   Peter Pinski           : DLPNO-MP2, DLPNO-MP2 Gradient
   Christoph Reimann      : Effective Core Potentials
   Marius Retegan         : Local ZFS, SOC
   Christoph Riplinger    : Optimizer, TS searches, QM/MM, DLPNO-CCSD(T), (RO)-DLPNO pert. Triples
   Tobias Risthaus        : Range-separated hybrids, TD-DFT gradient, RPA, STAB
   Michael Roemelt        : Restricted open shell CIS
   Masaaki Saitow         : Open-shell DLPNO
   Barbara Sandhoefer     : DKH picture change effects
   Avijit Sen             : IP-ROCIS
   Kantharuban Sivalingam : CASSCF convergence, NEVPT2, FIC-MRCI
   Bernardo de Souza      : ESD, SOC TD-DFT
   Georgi Stoychev        : AutoAux, RI-MP2 NMR
   Willem Van den Heuvel  : Paramagnetic NMR
   Boris Wezisla          : Elementary symmetry handling
   Frank Wennmohs         : Technical directorship


 We gratefully acknowledge several colleagues who have allowed us to
 interface, adapt or use parts of their codes:
   Stefan Grimme, W. Hujo, H. Kruse,             : VdW corrections, initial TS optimization,
                  C. Bannwarth                     DFT functionals, gCP, sTDA/sTD-DF
   Ed Valeev                                     : LibInt (2-el integral package), F12 methods
   Garnet Chan, S. Sharma, J. Yang, R. Olivares  : DMRG
   Ulf Ekstrom                                   : XCFun DFT Library
   Mihaly Kallay                                 : mrcc  (arbitrary order and MRCC methods)
   Andreas Klamt, Michael Diedenhofen            : otool_cosmo (COSMO solvation model)
   Jiri Pittner, Ondrej Demel                    : Mk-CCSD
   Frank Weinhold                                : gennbo (NPA and NBO analysis)
   Christopher J. Cramer and Donald G. Truhlar   : smd solvation model
   Lars Goerigk                                  : TD-DFT with DH, B97 family of functionals
   V. Asgeirsson, H. Jonsson                     : NEB implementation
   FAccTs GmbH                                   : IRC, NEB, NEB-TS, Multilevel


 Your calculation uses the libint2 library for the computation of 2-el integrals
 For citations please refer to: http://libint.valeyev.net

 This ORCA versions uses:
   CBLAS   interface :  Fast vector & matrix operations
   LAPACKE interface :  Fast linear algebra routines
   SCALAPACK package :  Parallel linear algebra routines




***************************************
The coordinates will be read from file: cyclohexane_twb.xyz
***************************************


----- Orbital basis set information -----
Your calculation utilizes the basis: cc-pVTZ 
       H, B-Ne : Obtained from the ccRepo (grant-hill.group.shef.ac.uk/ccrepo) Feb. 2017
                 T. H. Dunning, Jr., J. Chem. Phys. 90, 1007 (1989)
            He : Obtained from the ccRepo (grant-hill.group.shef.ac.uk/ccrepo) Feb. 2017
                 D. E. Woon, T. H. Dunning, Jr., J. Chem. Phys. 100, 2975 (1994)
  Li-Be, Na-Mg : Obtained from the ccRepo (grant-hill.group.shef.ac.uk/ccrepo) Feb. 2017
                 B. P. Prascher, D. E. Woon, K. A. Peterson, T. H. Dunning, Jr., A. K. Wilson, Theor. Chem. Acc. 128, 69 (2011)
         Al-Ar : Obtained from the ccRepo (grant-hill.group.shef.ac.uk/ccrepo) Feb. 2017
                 D. E. Woon, T. H. Dunning, Jr., J. Chem. Phys. 98, 1358 (1993)
            Ca : Obtained from the Peterson Research Group Website (tyr0.chem.wsu.edu/~kipeters) Feb. 2017
                 J. Koput, K. A. Peterson, J. Phys. Chem. 106, 9595 (2002)
         Sc-Zn : Obtained from the ccRepo (grant-hill.group.shef.ac.uk/ccrepo) Feb. 2017
                 N. B. Balabanov, K. A. Peterson, J. Chem. Phys. 123, 064107 (2005)
                 N. B. Balabanov, K. A. Peterson, J. Chem. Phys. 125, 074110 (2006)
         Ga-Kr : Obtained from the ccRepo (grant-hill.group.shef.ac.uk/ccrepo) Feb. 2017
                 A. K. Wilson, D. E. Woon, K. A. Peterson, T. H. Dunning, Jr., J. Chem. Phys. 110, 7667 (1999)
             Y : Obtained from the ccRepo (grant-hill.group.shef.ac.uk/ccrepo) Feb. 2017
                 K. A. Peterson, D. Figgen, M. Dolg, H. Stoll, J. Chem. Phys. 126, 124101 (2007)
        Ag, Au : Obtained from the Peterson Research Group Website (tyr0.chem.wsu.edu/~kipeters) Feb. 2017
                 K. A. Peterson, C. Puzzarini, Theor. Chem. Acc. 114, 283 (2005)

----- AuxC basis set information -----
Your calculation utilizes the auxiliary basis: cc-pVTZ/C 
  Obtained from the EMSL Basis Set Exchange (bse.pnl.gov) Feb. 2017
  H-He, B-F, Al-Ar, Ga-Kr : F. Weigend, A. Kohn, C. Hattig, J. Chem. Phys. 116, 3175 (2002)
             Li-Be, Na-Mg : C. Haettig, Phys. Chem. Chem. Phys. 7, 59 (2005)
                       Ne : C. Haettig, Phys. Chem. Chem. Phys. 7, 59 (2005)
                            F. Weigend, A. Kohn, C. Hattig, J. Chem. Phys. 116, 3175 (2002)
                    Sc-Zn : J. G. Hill, J. A. Platts, J. Chem. Phys. 128, 044104 (2008)

----- AuxJK basis set information -----
Your calculation utilizes the auxiliary basis: cc-pVTZ/JK 
  H, B-F, Al-Cl, Ga-Br : Obtained from the TURBOMOLE 7.0 basis set library

================================================================================
                                        WARNINGS
                       Please study these warnings very carefully!
================================================================================


WARNING: MDCI localization with Augmented Hessian Foster-Boys
  ===> : Switching off randomization!

WARNING: Post HF methods need fully converged wavefunctions
  ===> : Setting SCFConvForced true
         You can overwrite this default with %scf ConvForced false 


INFO   : the flag for use of LIBINT has been found!

================================================================================
                                       INPUT FILE
================================================================================
NAME = cyclohexane_twb.inp
|  1> ! RHF DLPNO-CCSD(T) cc-pVTZ RIJK cc-pVTZ/JK cc-pVTZ/C
|  2> ! KDIIS SOSCF TightSCF TightPNO
|  3> 
|  4> %pal nprocs 8 end
|  5> 
|  6> %maxcore 8000
|  7> 
|  8> %scf maxiter 300
|  9>      shift shift 0.2 erroff 0.1 end
| 10> end
| 11> 
| 12> * xyzfile 0 1 cyclohexane_twb.xyz 
| 13> 
| 14> 
| 15>                          ****END OF INPUT****
================================================================================

                       ****************************
                       * Single Point Calculation *
                       ****************************

---------------------------------
CARTESIAN COORDINATES (ANGSTROEM)
---------------------------------
  C      1.528920   -0.000010    0.000040
  C      0.666100   -1.228750    0.381620
  C     -0.666130   -1.228710   -0.381660
  C     -1.528910   -0.000000    0.000040
  C     -0.666100    1.228760    0.381630
  C      0.666110    1.228730   -0.381670
  H     -0.455760   -1.216770   -1.459750
  H     -1.222420   -2.154000   -0.191140
  H     -2.187650   -0.255070    0.839630
  H     -1.222400    2.154020    0.191040
  H      1.222370   -2.154030    0.191030
  H      0.455740    1.216740   -1.459750
  H      2.187820   -0.255050   -0.839440
  H      2.187650    0.255070    0.839640
  H     -0.455710    1.216890    1.459710
  H     -2.187790    0.255040   -0.839460
  H      1.222420    2.154000   -0.191170
  H      0.455730   -1.216900    1.459710

----------------------------
CARTESIAN COORDINATES (A.U.)
----------------------------
  NO LB      ZA    FRAG     MASS         X           Y           Z
   0 C     6.0000    0    12.011    2.889240   -0.000019    0.000076
   1 C     6.0000    0    12.011    1.258747   -2.322001    0.721157
   2 C     6.0000    0    12.011   -1.258803   -2.321925   -0.721233
   3 C     6.0000    0    12.011   -2.889221   -0.000000    0.000076
   4 C     6.0000    0    12.011   -1.258747    2.322020    0.721176
   5 C     6.0000    0    12.011    1.258765    2.321963   -0.721252
   6 H     1.0000    0     1.008   -0.861262   -2.299362   -2.758528
   7 H     1.0000    0     1.008   -2.310039   -4.070470   -0.361202
   8 H     1.0000    0     1.008   -4.134059   -0.482012    1.586671
   9 H     1.0000    0     1.008   -2.310001    4.070508    0.361013
  10 H     1.0000    0     1.008    2.309945   -4.070527    0.360994
  11 H     1.0000    0     1.008    0.861224    2.299305   -2.758528
  12 H     1.0000    0     1.008    4.134381   -0.481975   -1.586312
  13 H     1.0000    0     1.008    4.134059    0.482012    1.586690
  14 H     1.0000    0     1.008   -0.861167    2.299589    2.758452
  15 H     1.0000    0     1.008   -4.134324    0.481956   -1.586350
  16 H     1.0000    0     1.008    2.310039    4.070470   -0.361259
  17 H     1.0000    0     1.008    0.861205   -2.299608    2.758452

--------------------------------
INTERNAL COORDINATES (ANGSTROEM)
--------------------------------
 C      0   0   0     0.000000000000     0.00000000     0.00000000
 C      1   0   0     1.549149326695     0.00000000     0.00000000
 C      2   1   0     1.535393478200   111.14910128     0.00000000
 C      3   2   1     1.549132816288   111.14813430   296.52014581
 C      4   3   2     1.549162083773   112.30997534    30.60432207
 C      5   4   3     1.535386067085   111.14815905    30.59580938
 H      3   2   1     1.098488119462   108.76723122    57.60485714
 H      3   2   1     1.096320217181   110.72368788   173.78781237
 H      4   3   2     1.097228536176   109.78715445   268.79913823
 H      5   4   3     1.096312138809   110.11991640   153.67507247
 H      2   1   3     1.096313796046   110.12107420   123.07981636
 H      6   5   4     1.098478849774   108.76813596    57.60184784
 H      1   2   3     1.097233467408   109.78866502   268.78778457
 H      1   2   3     1.097232509225   109.28632481   152.68405763
 H      5   4   3     1.098481376902   109.86753086   270.16021589
 H      4   3   2     1.097236759319   109.28587819   152.69576742
 H      6   5   4     1.096310010444   110.72531278   173.78821005
 H      2   1   3     1.098487144895   109.86768911   239.56356161

---------------------------
INTERNAL COORDINATES (A.U.)
---------------------------
 C      0   0   0     0.000000000000     0.00000000     0.00000000
 C      1   0   0     2.927467968002     0.00000000     0.00000000
 C      2   1   0     2.901473181607   111.14910128     0.00000000
 C      3   2   1     2.927436767854   111.14813430   296.52014581
 C      4   3   2     2.927492075386   112.30997534    30.60432207
 C      5   4   3     2.901459176630   111.14815905    30.59580938
 H      3   2   1     2.075841707150   108.76723122    57.60485714
 H      3   2   1     2.071744965553   110.72368788   173.78781237
 H      4   3   2     2.073461439697   109.78715445   268.79913823
 H      5   4   3     2.071729699643   110.11991640   153.67507247
 H      2   1   3     2.071732831366   110.12107420   123.07981636
 H      6   5   4     2.075824189977   108.76813596    57.60184784
 H      1   2   3     2.073470758374   109.78866502   268.78778457
 H      1   2   3     2.073468947670   109.28632481   152.68405763
 H      5   4   3     2.075828965557   109.86753086   270.16021589
 H      4   3   2     2.073476979183   109.28587819   152.69576742
 H      6   5   4     2.071725677616   110.72531278   173.78821005
 H      2   1   3     2.075839865485   109.86768911   239.56356161

---------------------
BASIS SET INFORMATION
---------------------
There are 2 groups of distinct atoms

 Group   1 Type C   : 18s5p2d1f contracted to 4s3p2d1f pattern {8811/311/11/1}
 Group   2 Type H   : 5s2p1d contracted to 3s2p1d pattern {311/11/1}

Atom   0C    basis set group =>   1
Atom   1C    basis set group =>   1
Atom   2C    basis set group =>   1
Atom   3C    basis set group =>   1
Atom   4C    basis set group =>   1
Atom   5C    basis set group =>   1
Atom   6H    basis set group =>   2
Atom   7H    basis set group =>   2
Atom   8H    basis set group =>   2
Atom   9H    basis set group =>   2
Atom  10H    basis set group =>   2
Atom  11H    basis set group =>   2
Atom  12H    basis set group =>   2
Atom  13H    basis set group =>   2
Atom  14H    basis set group =>   2
Atom  15H    basis set group =>   2
Atom  16H    basis set group =>   2
Atom  17H    basis set group =>   2
-------------------------------
AUXILIARY BASIS SET INFORMATION
-------------------------------
There are 2 groups of distinct atoms

 Group   1 Type C   : 8s6p5d3f1g contracted to 8s6p5d3f1g pattern {11111111/111111/11111/111/1}
 Group   2 Type H   : 4s3p2d1f contracted to 4s3p2d1f pattern {1111/111/11/1}

Atom   0C    basis set group =>   1
Atom   1C    basis set group =>   1
Atom   2C    basis set group =>   1
Atom   3C    basis set group =>   1
Atom   4C    basis set group =>   1
Atom   5C    basis set group =>   1
Atom   6H    basis set group =>   2
Atom   7H    basis set group =>   2
Atom   8H    basis set group =>   2
Atom   9H    basis set group =>   2
Atom  10H    basis set group =>   2
Atom  11H    basis set group =>   2
Atom  12H    basis set group =>   2
Atom  13H    basis set group =>   2
Atom  14H    basis set group =>   2
Atom  15H    basis set group =>   2
Atom  16H    basis set group =>   2
Atom  17H    basis set group =>   2
-------------------------------
AUXILIARY BASIS SET INFORMATION
-------------------------------
There are 2 groups of distinct atoms

 Group   1 Type C   : 10s7p5d2f1g contracted to 10s7p5d2f1g pattern {1111111111/1111111/11111/11/1}
 Group   2 Type H   : 4s3p2d1f contracted to 4s3p2d1f pattern {1111/111/11/1}

Atom   0C    basis set group =>   1
Atom   1C    basis set group =>   1
Atom   2C    basis set group =>   1
Atom   3C    basis set group =>   1
Atom   4C    basis set group =>   1
Atom   5C    basis set group =>   1
Atom   6H    basis set group =>   2
Atom   7H    basis set group =>   2
Atom   8H    basis set group =>   2
Atom   9H    basis set group =>   2
Atom  10H    basis set group =>   2
Atom  11H    basis set group =>   2
Atom  12H    basis set group =>   2
Atom  13H    basis set group =>   2
Atom  14H    basis set group =>   2
Atom  15H    basis set group =>   2
Atom  16H    basis set group =>   2
Atom  17H    basis set group =>   2


           ************************************************************
           *        Program running with 8 parallel MPI-processes     *
           *              working on a common directory               *
           ************************************************************
------------------------------------------------------------------------------
                           ORCA GTO INTEGRAL CALCULATION
                           -- RI-GTO INTEGRALS CHOSEN --
------------------------------------------------------------------------------

                         BASIS SET STATISTICS AND STARTUP INFO

Gaussian basis set:
 # of primitive gaussian shells          ...  252
 # of primitive gaussian functions       ...  492
 # of contracted shells                  ...  132
 # of contracted basis functions         ...  348
 Highest angular momentum                ...    3
 Maximum contraction depth               ...    8
Auxiliary gaussian basis set:
 # of primitive gaussian shells          ...  270
 # of primitive gaussian functions       ...  834
 # of contracted shells                  ...  270
 # of contracted aux-basis functions     ...  834
 Highest angular momentum                ...    4
 Maximum contraction depth               ...    1
Ratio of auxiliary to basis functions    ...  2.40
Integral package used                  ... LIBINT
 One Electron integrals                  ... done
 Ordering auxiliary basis shells         ... done
 Integral threshhold             Thresh  ...  2.500e-11
 Primitive cut-off               TCut    ...  2.500e-12
 Pre-screening matrix                    ... done
 Shell pair data                         ... 
 Ordering of the shell pairs             ... done (   0.002 sec) 8542 of 8778 pairs
 Determination of significant pairs      ... done (   0.000 sec)
 Creation of shell pair data             ... done (   0.002 sec)
 Storage of shell pair data              ... done (   0.002 sec)
 Shell pair data done in (   0.005 sec)
 Computing two index integrals           ... done
 Cholesky decomposition of the V-matrix  ... done


Timings:
 Total evaluation time                   ...   0.480 sec (  0.008 min)
 One electron matrix time                ...   0.099 sec (  0.002 min) = 20.6%
 Schwartz matrix evaluation time         ...   0.216 sec (  0.004 min) = 44.9%
 Two index repulsion integral time       ...   0.064 sec (  0.001 min) = 13.3%
 Cholesky decomposition of V             ...   0.071 sec (  0.001 min) = 14.7%
 Three index repulsion integral time     ...   0.000 sec (  0.000 min) =  0.0%



           ************************************************************
           *        Program running with 8 parallel MPI-processes     *
           *              working on a common directory               *
           ************************************************************
-------------------------------------------------------------------------------
                                 ORCA SCF
-------------------------------------------------------------------------------

------------
SCF SETTINGS
------------
Hamiltonian:
 Ab initio Hamiltonian  Method          .... Hartree-Fock(GTOs)
 RI-approximation to the Coulomb term is turned on
   Number of auxiliary basis functions  .... 834
   RI-JK (J+K treated both via RI)      .... on


General Settings:
 Integral files         IntName         .... cyclohexane_twb
 Hartree-Fock type      HFTyp           .... RHF
 Total Charge           Charge          ....    0
 Multiplicity           Mult            ....    1
 Number of Electrons    NEL             ....   48
 Basis Dimension        Dim             ....  348
 Nuclear Repulsion      ENuc            ....    254.9544591610 Eh

Convergence Acceleration:
 DIIS                   CNVDIIS         .... off
 Newton-Raphson         CNVNR           .... off
 SOSCF                  CNVSOSCF        .... on
   Start iteration      SOSCFMaxIt      ....   150
   Startup grad/error   SOSCFStart      ....  0.003300
 Level Shifting         CNVShift        .... on
   Level shift para.    LevelShift      ....    0.2000
   Turn off err/grad.   ShiftErr        ....    0.1000
 Zerner damping         CNVZerner       .... off
 Static damping         CNVDamp         .... off
 Fernandez-Rico         CNVRico         .... off

SCF Procedure:
 Maximum # iterations   MaxIter         ....   300
 SCF integral mode      SCFMode         .... Direct
   Integral package                     .... LIBINT
 Reset frequency        DirectResetFreq ....    20
 Integral Threshold     Thresh          ....  2.500e-11 Eh
 Primitive CutOff       TCut            ....  2.500e-12 Eh

Convergence Tolerance:
 Convergence Check Mode ConvCheckMode   .... Total+1el-Energy
 Convergence forced     ConvForced      .... 1
 Energy Change          TolE            ....  1.000e-08 Eh
 1-El. energy change                    ....  1.000e-05 Eh
 Orbital Gradient       TolG            ....  1.000e-05
 Orbital Rotation angle TolX            ....  1.000e-05


Diagonalization of the overlap matrix:
Smallest eigenvalue                        ... 1.531e-04
Time for diagonalization                   ...    0.023 sec
Threshold for overlap eigenvalues          ... 1.000e-08
Number of eigenvalues below threshold      ... 0
Time for construction of square roots      ...    0.032 sec
Total time needed                          ...    0.055 sec

-------------------
DFT GRID GENERATION
-------------------

General Integration Accuracy     IntAcc      ...  4.340
Radial Grid Type                 RadialGrid  ... Gauss-Chebyshev
Angular Grid (max. acc.)         AngularGrid ... Lebedev-110
Angular grid pruning method      GridPruning ... 3 (G Style)
Weight generation scheme         WeightScheme... Becke
Basis function cutoff            BFCut       ...    1.0000e-11
Integration weight cutoff        WCut        ...    1.0000e-14
Grids for H and He will be reduced by one unit

# of grid points (after initial pruning)     ...  19464 (   0.0 sec)
# of grid points (after weights+screening)   ...  17838 (   0.0 sec)
nearest neighbour list constructed           ...    0.0 sec
Grid point re-assignment to atoms done       ...    0.0 sec
Grid point division into batches done        ...    0.0 sec
Reduced shell lists constructed in    0.1 sec

Total number of grid points                  ...    17838
Total number of batches                      ...      282
Average number of points per batch           ...       63
Average number of grid points per atom       ...      991
Average number of shells per batch           ...   117.51 (89.03%)
Average number of basis functions per batch  ...   308.22 (88.57%)
Average number of large shells per batch     ...    98.92 (84.18%)
Average number of large basis fcns per batch ...   255.68 (82.95%)
Average number of aux-shells per batch       ...   117.51 (43.52%)
Average number of aux functions per batch    ...   308.22 (36.96%)
Maximum spatial batch extension              ...   2.57,  2.40,  2.60 au
Average spatial batch extension              ...   0.20,  0.20,  0.19 au

Time for grid setup =    0.130 sec

------------------------------
INITIAL GUESS: MODEL POTENTIAL
------------------------------
Loading Hartree-Fock densities                     ... done
Calculating cut-offs                               ... done
Setting up the integral package                    ... done
Initializing the effective Hamiltonian             ... done
Starting the Coulomb interaction                   ... done (   0.1 sec)
Reading the grid                                   ... done
Mapping shells                                     ... done
Starting the XC term evaluation                    ... done (   0.1 sec)
Transforming the Hamiltonian                       ... done (   0.0 sec)
Diagonalizing the Hamiltonian                      ... done (   0.0 sec)
Back transforming the eigenvectors                 ... done (   0.0 sec)
Now organizing SCF variables                       ... done
                      ------------------
                      INITIAL GUESS DONE (   0.4 sec)
                      ------------------
--------------
SCF ITERATIONS
--------------
ITER       Energy         Delta-E        Max-DP      RMS-DP      [F,P]   Gradient Norm
                             ****Turning on KDIIS(Cayley)****
  0   -233.9148653516   0.000000000000 0.00989621  0.00025360  0.0979875   0.148466397
  1   -234.0194653482  -0.104599996610 0.01780283  0.00028532  0.0896128   0.128137585
  2   -234.1026813087  -0.083215960424 0.02909688  0.00048889  0.0720644   0.104208768
  3   -234.2057556786  -0.103074369961 0.04420249  0.00079934  0.0432442   0.064517260
  4   -234.2738006689  -0.068044990248 0.00294706  0.00010019  0.0037174   0.003431925
                      *** Initiating the SOSCF procedure ***
                           *** Shutting down KDIIS ***
                      *** Re-Reading the Fockian *** 
                      *** Removing any level shift *** 
ITER      Energy       Delta-E        Grad      Rot      Max-DP    RMS-DP
  5   -234.27417711  -0.0003764407  0.000540  0.000540  0.001408  0.000038
  6   -234.27418186  -0.0000047504  0.000407  0.000556  0.000591  0.000013
  7   -234.27418695  -0.0000050871  0.000293  0.000201  0.000259  0.000004
  8   -234.27419021  -0.0000032668  0.000020  0.000020  0.000048  0.000001
  9   -234.27419024  -0.0000000241  0.000007  0.000008  0.000016  0.000001
                  ***Gradient check signals convergence***
              ***Rediagonalizing the Fockian in SOSCF/NRSCF***

               *****************************************************
               *                     SUCCESS                       *
               *           SCF CONVERGED AFTER  10 CYCLES          *
               *****************************************************


----------------
TOTAL SCF ENERGY
----------------

Total Energy       :         -234.27419024 Eh           -6374.92481 eV

Components:
Nuclear Repulsion  :          254.95445916 Eh            6937.66354 eV
Electronic Energy  :         -489.22864940 Eh          -13312.58835 eV
One Electron Energy:         -820.49021543 Eh          -22326.67383 eV
Two Electron Energy:          331.26156603 Eh            9014.08548 eV

Virial components:
Potential Energy   :         -468.12437984 Eh          -12738.31198 eV
Kinetic Energy     :          233.85018960 Eh            6363.38717 eV
Virial Ratio       :            2.00181313


---------------
SCF CONVERGENCE
---------------

  Last Energy change         ...   -2.4042e-09  Tolerance :   1.0000e-08
  Last MAX-Density change    ...    2.4824e-06  Tolerance :   1.0000e-07
  Last RMS-Density change    ...    1.0873e-07  Tolerance :   5.0000e-09
  Last Orbital Gradient      ...    1.8083e-06  Tolerance :   1.0000e-05
  Last Orbital Rotation      ...    1.6939e-06  Tolerance :   1.0000e-05

             **** THE GBW FILE WAS UPDATED (cyclohexane_twb.gbw) ****
             **** DENSITY FILE WAS UPDATED (cyclohexane_twb.scfp.tmp) ****
             **** ENERGY FILE WAS UPDATED (cyclohexane_twb.en.tmp) ****
----------------
ORBITAL ENERGIES
----------------

  NO   OCC          E(Eh)            E(eV) 
   0   2.0000     -11.214652      -305.1662 
   1   2.0000     -11.214527      -305.1628 
   2   2.0000     -11.214151      -305.1526 
   3   2.0000     -11.213840      -305.1441 
   4   2.0000     -11.213546      -305.1361 
   5   2.0000     -11.213379      -305.1315 
   6   2.0000      -1.103997       -30.0413 
   7   2.0000      -0.992555       -27.0088 
   8   2.0000      -0.990651       -26.9570 
   9   2.0000      -0.834717       -22.7138 
  10   2.0000      -0.825540       -22.4641 
  11   2.0000      -0.720339       -19.6014 
  12   2.0000      -0.649020       -17.6607 
  13   2.0000      -0.641999       -17.4697 
  14   2.0000      -0.589893       -16.0518 
  15   2.0000      -0.552928       -15.0459 
  16   2.0000      -0.520491       -14.1633 
  17   2.0000      -0.509997       -13.8777 
  18   2.0000      -0.502449       -13.6723 
  19   2.0000      -0.498104       -13.5541 
  20   2.0000      -0.488979       -13.3058 
  21   2.0000      -0.427671       -11.6375 
  22   2.0000      -0.426025       -11.5927 
  23   2.0000      -0.424163       -11.5421 
  24   0.0000       0.136746         3.7211 
  25   0.0000       0.157228         4.2784 
  26   0.0000       0.168521         4.5857 
  27   0.0000       0.172043         4.6815 
  28   0.0000       0.199113         5.4181 
  29   0.0000       0.205593         5.5945 
  30   0.0000       0.209835         5.7099 
  31   0.0000       0.218141         5.9359 
  32   0.0000       0.231825         6.3083 
  33   0.0000       0.247170         6.7258 
  34   0.0000       0.258632         7.0377 
  35   0.0000       0.266329         7.2472 
  36   0.0000       0.302737         8.2379 
  37   0.0000       0.345909         9.4127 
  38   0.0000       0.346282         9.4228 
  39   0.0000       0.375716        10.2238 
  40   0.0000       0.392988        10.6937 
  41   0.0000       0.398673        10.8484 
  42   0.0000       0.412158        11.2154 
  43   0.0000       0.412371        11.2212 
  44   0.0000       0.427083        11.6215 
  45   0.0000       0.432521        11.7695 
  46   0.0000       0.447092        12.1660 
  47   0.0000       0.471861        12.8400 
  48   0.0000       0.481891        13.1129 
  49   0.0000       0.504259        13.7216 
  50   0.0000       0.544893        14.8273 
  51   0.0000       0.579897        15.7798 
  52   0.0000       0.584698        15.9104 
  53   0.0000       0.585741        15.9388 
  54   0.0000       0.590331        16.0637 
  55   0.0000       0.607426        16.5289 
  56   0.0000       0.616470        16.7750 
  57   0.0000       0.618526        16.8310 
  58   0.0000       0.620570        16.8866 
  59   0.0000       0.631611        17.1870 
  60   0.0000       0.643913        17.5218 
  61   0.0000       0.659036        17.9333 
  62   0.0000       0.667385        18.1605 
  63   0.0000       0.677154        18.4263 
  64   0.0000       0.680172        18.5084 
  65   0.0000       0.684449        18.6248 
  66   0.0000       0.690890        18.8001 
  67   0.0000       0.717648        19.5282 
  68   0.0000       0.723373        19.6840 
  69   0.0000       0.730762        19.8850 
  70   0.0000       0.740964        20.1627 
  71   0.0000       0.755358        20.5543 
  72   0.0000       0.791220        21.5302 
  73   0.0000       0.840212        22.8633 
  74   0.0000       0.841401        22.8957 
  75   0.0000       0.908940        24.7335 
  76   0.0000       0.925163        25.1750 
  77   0.0000       0.968736        26.3606 
  78   0.0000       0.993799        27.0426 
  79   0.0000       0.995989        27.1022 
  80   0.0000       1.011622        27.5276 
  81   0.0000       1.012982        27.5646 
  82   0.0000       1.074634        29.2423 
  83   0.0000       1.089663        29.6513 
  84   0.0000       1.119120        30.4528 
  85   0.0000       1.131646        30.7937 
  86   0.0000       1.156378        31.4667 
  87   0.0000       1.156838        31.4792 
  88   0.0000       1.164747        31.6944 
  89   0.0000       1.198611        32.6159 
  90   0.0000       1.225437        33.3458 
  91   0.0000       1.238766        33.7085 
  92   0.0000       1.244104        33.8538 
  93   0.0000       1.246915        33.9303 
  94   0.0000       1.262595        34.3570 
  95   0.0000       1.270632        34.5757 
  96   0.0000       1.288342        35.0576 
  97   0.0000       1.291468        35.1426 
  98   0.0000       1.299611        35.3642 
  99   0.0000       1.300704        35.3939 
 100   0.0000       1.338095        36.4114 
 101   0.0000       1.340228        36.4695 
 102   0.0000       1.347555        36.6688 
 103   0.0000       1.348455        36.6933 
 104   0.0000       1.390733        37.8438 
 105   0.0000       1.395549        37.9748 
 106   0.0000       1.401735        38.1431 
 107   0.0000       1.438300        39.1381 
 108   0.0000       1.446041        39.3488 
 109   0.0000       1.462716        39.8025 
 110   0.0000       1.466192        39.8971 
 111   0.0000       1.467816        39.9413 
 112   0.0000       1.469585        39.9895 
 113   0.0000       1.487257        40.4703 
 114   0.0000       1.495934        40.7064 
 115   0.0000       1.519308        41.3425 
 116   0.0000       1.549816        42.1726 
 117   0.0000       1.563309        42.5398 
 118   0.0000       1.564334        42.5677 
 119   0.0000       1.578407        42.9506 
 120   0.0000       1.579317        42.9754 
 121   0.0000       1.598424        43.4953 
 122   0.0000       1.607676        43.7471 
 123   0.0000       1.630011        44.3548 
 124   0.0000       1.662584        45.2412 
 125   0.0000       1.682471        45.7824 
 126   0.0000       1.684864        45.8475 
 127   0.0000       1.715391        46.6782 
 128   0.0000       1.722500        46.8716 
 129   0.0000       1.726837        46.9896 
 130   0.0000       1.732025        47.1308 
 131   0.0000       1.757249        47.8172 
 132   0.0000       1.767552        48.0975 
 133   0.0000       1.807188        49.1761 
 134   0.0000       1.829416        49.7810 
 135   0.0000       1.832175        49.8560 
 136   0.0000       1.900992        51.7286 
 137   0.0000       1.906183        51.8699 
 138   0.0000       1.933354        52.6092 
 139   0.0000       1.938248        52.7424 
 140   0.0000       1.982320        53.9417 
 141   0.0000       2.006325        54.5949 
 142   0.0000       2.022197        55.0268 
 143   0.0000       2.130559        57.9755 
 144   0.0000       2.559086        69.6363 
 145   0.0000       2.569259        69.9131 
 146   0.0000       2.609436        71.0064 
 147   0.0000       2.635928        71.7272 
 148   0.0000       2.674184        72.7683 
 149   0.0000       2.686541        73.1045 
 150   0.0000       2.696789        73.3834 
 151   0.0000       2.716573        73.9217 
 152   0.0000       2.726924        74.2034 
 153   0.0000       2.754291        74.9481 
 154   0.0000       2.811469        76.5040 
 155   0.0000       2.828050        76.9551 
 156   0.0000       2.838942        77.2515 
 157   0.0000       2.843798        77.3837 
 158   0.0000       2.870775        78.1178 
 159   0.0000       2.896873        78.8279 
 160   0.0000       2.900047        78.9143 
 161   0.0000       2.925816        79.6155 
 162   0.0000       2.943869        80.1067 
 163   0.0000       2.945505        80.1513 
 164   0.0000       2.945726        80.1573 
 165   0.0000       2.956010        80.4371 
 166   0.0000       2.959663        80.5365 
 167   0.0000       2.984428        81.2104 
 168   0.0000       2.986870        81.2769 
 169   0.0000       3.048150        82.9444 
 170   0.0000       3.055275        83.1383 
 171   0.0000       3.068898        83.5090 
 172   0.0000       3.075130        83.6785 
 173   0.0000       3.075801        83.6968 
 174   0.0000       3.126160        85.0671 
 175   0.0000       3.148861        85.6849 
 176   0.0000       3.155496        85.8654 
 177   0.0000       3.186022        86.6961 
 178   0.0000       3.233317        87.9830 
 179   0.0000       3.243062        88.2482 
 180   0.0000       3.262296        88.7716 
 181   0.0000       3.262355        88.7732 
 182   0.0000       3.265475        88.8581 
 183   0.0000       3.290656        89.5433 
 184   0.0000       3.327886        90.5564 
 185   0.0000       3.350633        91.1754 
 186   0.0000       3.355166        91.2987 
 187   0.0000       3.368331        91.6569 
 188   0.0000       3.380529        91.9889 
 189   0.0000       3.393616        92.3450 
 190   0.0000       3.399389        92.5021 
 191   0.0000       3.407140        92.7130 
 192   0.0000       3.430436        93.3469 
 193   0.0000       3.434773        93.4649 
 194   0.0000       3.441598        93.6507 
 195   0.0000       3.465025        94.2881 
 196   0.0000       3.476021        94.5873 
 197   0.0000       3.489369        94.9506 
 198   0.0000       3.492703        95.0413 
 199   0.0000       3.498842        95.2083 
 200   0.0000       3.503397        95.3323 
 201   0.0000       3.528366        96.0117 
 202   0.0000       3.536508        96.2333 
 203   0.0000       3.538856        96.2972 
 204   0.0000       3.541967        96.3818 
 205   0.0000       3.554405        96.7203 
 206   0.0000       3.581275        97.4515 
 207   0.0000       3.585319        97.5615 
 208   0.0000       3.595074        97.8269 
 209   0.0000       3.622942        98.5853 
 210   0.0000       3.662973        99.6746 
 211   0.0000       3.665388        99.7403 
 212   0.0000       3.695180       100.5510 
 213   0.0000       3.719503       101.2128 
 214   0.0000       3.739377       101.7536 
 215   0.0000       3.759282       102.2953 
 216   0.0000       3.778122       102.8079 
 217   0.0000       3.789809       103.1259 
 218   0.0000       3.822392       104.0126 
 219   0.0000       3.826240       104.1173 
 220   0.0000       3.839396       104.4753 
 221   0.0000       3.863471       105.1304 
 222   0.0000       3.891022       105.8801 
 223   0.0000       3.903779       106.2272 
 224   0.0000       3.909176       106.3741 
 225   0.0000       3.931589       106.9840 
 226   0.0000       3.941089       107.2425 
 227   0.0000       3.973667       108.1290 
 228   0.0000       3.974386       108.1485 
 229   0.0000       4.007580       109.0518 
 230   0.0000       4.017839       109.3310 
 231   0.0000       4.023904       109.4960 
 232   0.0000       4.032340       109.7256 
 233   0.0000       4.055327       110.3510 
 234   0.0000       4.077009       110.9410 
 235   0.0000       4.082387       111.0874 
 236   0.0000       4.096887       111.4820 
 237   0.0000       4.099701       111.5585 
 238   0.0000       4.100981       111.5934 
 239   0.0000       4.107594       111.7733 
 240   0.0000       4.156783       113.1118 
 241   0.0000       4.163558       113.2962 
 242   0.0000       4.165200       113.3409 
 243   0.0000       4.195391       114.1624 
 244   0.0000       4.205094       114.4264 
 245   0.0000       4.212986       114.6412 
 246   0.0000       4.252900       115.7273 
 247   0.0000       4.270497       116.2061 
 248   0.0000       4.272730       116.2669 
 249   0.0000       4.304003       117.1179 
 250   0.0000       4.306560       117.1875 
 251   0.0000       4.338211       118.0487 
 252   0.0000       4.343457       118.1915 
 253   0.0000       4.345129       118.2370 
 254   0.0000       4.352684       118.4425 
 255   0.0000       4.368222       118.8654 
 256   0.0000       4.379601       119.1750 
 257   0.0000       4.383200       119.2729 
 258   0.0000       4.423975       120.3825 
 259   0.0000       4.443144       120.9041 
 260   0.0000       4.455552       121.2417 
 261   0.0000       4.468142       121.5843 
 262   0.0000       4.491573       122.2219 
 263   0.0000       4.498412       122.4080 
 264   0.0000       4.501978       122.5051 
 265   0.0000       4.504437       122.5720 
 266   0.0000       4.552638       123.8836 
 267   0.0000       4.552758       123.8868 
 268   0.0000       4.577080       124.5487 
 269   0.0000       4.581036       124.6563 
 270   0.0000       4.594955       125.0351 
 271   0.0000       4.609649       125.4349 
 272   0.0000       4.620449       125.7288 
 273   0.0000       4.626333       125.8889 
 274   0.0000       4.626490       125.8932 
 275   0.0000       4.635140       126.1286 
 276   0.0000       4.649402       126.5167 
 277   0.0000       4.662608       126.8760 
 278   0.0000       4.681543       127.3913 
 279   0.0000       4.691371       127.6587 
 280   0.0000       4.738953       128.9535 
 281   0.0000       4.751931       129.3066 
 282   0.0000       4.755823       129.4125 
 283   0.0000       4.825424       131.3065 
 284   0.0000       4.845288       131.8470 
 285   0.0000       4.887519       132.9962 
 286   0.0000       4.889799       133.0582 
 287   0.0000       4.906587       133.5150 
 288   0.0000       4.916498       133.7847 
 289   0.0000       4.960896       134.9929 
 290   0.0000       5.017265       136.5267 
 291   0.0000       5.047964       137.3621 
 292   0.0000       5.065541       137.8404 
 293   0.0000       5.078818       138.2017 
 294   0.0000       5.147260       140.0641 
 295   0.0000       5.183978       141.0632 
 296   0.0000       5.193488       141.3220 
 297   0.0000       5.199135       141.4756 
 298   0.0000       5.219271       142.0236 
 299   0.0000       5.235798       142.4733 
 300   0.0000       5.247189       142.7833 
 301   0.0000       5.279710       143.6682 
 302   0.0000       5.304670       144.3474 
 303   0.0000       5.329108       145.0124 
 304   0.0000       5.343885       145.4145 
 305   0.0000       5.345372       145.4550 
 306   0.0000       5.367293       146.0515 
 307   0.0000       5.383746       146.4992 
 308   0.0000       5.390290       146.6773 
 309   0.0000       5.395622       146.8223 
 310   0.0000       5.453009       148.3839 
 311   0.0000       5.475219       148.9883 
 312   0.0000       5.505175       149.8034 
 313   0.0000       5.511674       149.9803 
 314   0.0000       5.521835       150.2568 
 315   0.0000       5.554628       151.1491 
 316   0.0000       5.625679       153.0825 
 317   0.0000       5.629411       153.1841 
 318   0.0000       5.634161       153.3133 
 319   0.0000       5.648415       153.7012 
 320   0.0000       5.672696       154.3619 
 321   0.0000       5.680699       154.5797 
 322   0.0000       5.717347       155.5769 
 323   0.0000       5.731695       155.9674 
 324   0.0000       5.763077       156.8213 
 325   0.0000       5.817770       158.3096 
 326   0.0000       5.859036       159.4325 
 327   0.0000       5.887076       160.1955 
 328   0.0000       5.902511       160.6155 
 329   0.0000       5.909641       160.8095 
 330   0.0000       5.929365       161.3462 
 331   0.0000       6.012597       163.6111 
 332   0.0000       6.034830       164.2161 
 333   0.0000       6.044470       164.4784 
 334   0.0000       6.102703       166.0630 
 335   0.0000       6.211193       169.0152 
 336   0.0000       6.324329       172.0937 
 337   0.0000       6.377535       173.5415 
 338   0.0000       6.425633       174.8504 
 339   0.0000       6.428556       174.9299 
 340   0.0000       6.515764       177.3029 
 341   0.0000       6.517901       177.3611 
 342   0.0000      12.151826       330.6680 
 343   0.0000      12.334503       335.6389 
 344   0.0000      12.987161       353.3986 
 345   0.0000      13.337962       362.9444 
 346   0.0000      13.427931       365.3926 
 347   0.0000      13.736565       373.7909 

                    ********************************
                    * MULLIKEN POPULATION ANALYSIS *
                    ********************************

-----------------------
MULLIKEN ATOMIC CHARGES
-----------------------
   0 C :   -0.206074
   1 C :   -0.189075
   2 C :   -0.189064
   3 C :   -0.206070
   4 C :   -0.189075
   5 C :   -0.189075
   6 H :    0.085438
   7 H :    0.108539
   8 H :    0.098126
   9 H :    0.108542
  10 H :    0.108540
  11 H :    0.085442
  12 H :    0.098128
  13 H :    0.098123
  14 H :    0.085444
  15 H :    0.098124
  16 H :    0.108545
  17 H :    0.085441
Sum of atomic charges:    0.0000000

--------------------------------
MULLIKEN REDUCED ORBITAL CHARGES
--------------------------------
  0 C s       :     3.230776  s :     3.230776
      pz      :     1.011680  p :     2.858073
      px      :     0.959566
      py      :     0.886827
      dz2     :     0.015343  d :     0.110738
      dxz     :     0.033267
      dyz     :     0.016491
      dx2y2   :     0.020649
      dxy     :     0.024988
      f0      :     0.000451  f :     0.006488
      f+1     :     0.001307
      f-1     :     0.000722
      f+2     :     0.000294
      f-2     :     0.001273
      f+3     :     0.001222
      f-3     :     0.001218
  1 C s       :     3.211490  s :     3.211490
      pz      :     0.978442  p :     2.857665
      px      :     0.913825
      py      :     0.965398
      dz2     :     0.034292  d :     0.113333
      dxz     :     0.017725
      dyz     :     0.008949
      dx2y2   :     0.021307
      dxy     :     0.031060
      f0      :     0.001225  f :     0.006587
      f+1     :     0.000989
      f-1     :     0.000346
      f+2     :     0.000785
      f-2     :     0.000734
      f+3     :     0.001466
      f-3     :     0.001041
  2 C s       :     3.211481  s :     3.211481
      pz      :     0.978436  p :     2.857662
      px      :     0.913827
      py      :     0.965399
      dz2     :     0.034293  d :     0.113334
      dxz     :     0.017725
      dyz     :     0.008949
      dx2y2   :     0.021307
      dxy     :     0.031060
      f0      :     0.001225  f :     0.006587
      f+1     :     0.000989
      f-1     :     0.000346
      f+2     :     0.000785
      f-2     :     0.000734
      f+3     :     0.001466
      f-3     :     0.001041
  3 C s       :     3.230773  s :     3.230773
      pz      :     1.011680  p :     2.858070
      px      :     0.959566
      py      :     0.886825
      dz2     :     0.015344  d :     0.110739
      dxz     :     0.033267
      dyz     :     0.016491
      dx2y2   :     0.020649
      dxy     :     0.024988
      f0      :     0.000451  f :     0.006488
      f+1     :     0.001307
      f-1     :     0.000722
      f+2     :     0.000294
      f-2     :     0.001273
      f+3     :     0.001222
      f-3     :     0.001218
  4 C s       :     3.211490  s :     3.211490
      pz      :     0.978444  p :     2.857666
      px      :     0.913826
      py      :     0.965397
      dz2     :     0.034292  d :     0.113333
      dxz     :     0.017725
      dyz     :     0.008949
      dx2y2   :     0.021305
      dxy     :     0.031061
      f0      :     0.001225  f :     0.006587
      f+1     :     0.000989
      f-1     :     0.000346
      f+2     :     0.000785
      f-2     :     0.000734
      f+3     :     0.001466
      f-3     :     0.001041
  5 C s       :     3.211484  s :     3.211484
      pz      :     0.978438  p :     2.857671
      px      :     0.913828
      py      :     0.965405
      dz2     :     0.034293  d :     0.113333
      dxz     :     0.017725
      dyz     :     0.008948
      dx2y2   :     0.021305
      dxy     :     0.031062
      f0      :     0.001225  f :     0.006587
      f+1     :     0.000989
      f-1     :     0.000346
      f+2     :     0.000785
      f-2     :     0.000734
      f+3     :     0.001466
      f-3     :     0.001041
  6 H s       :     0.884026  s :     0.884026
      pz      :     0.011666  p :     0.028107
      px      :     0.008491
      py      :     0.007949
      dz2     :     0.000746  d :     0.002429
      dxz     :     0.000889
      dyz     :     0.000701
      dx2y2   :     0.000011
      dxy     :     0.000082
  7 H s       :     0.860341  s :     0.860341
      pz      :     0.007445  p :     0.028678
      px      :     0.009719
      py      :     0.011513
      dz2     :     0.000291  d :     0.002442
      dxz     :     0.000195
      dyz     :     0.000423
      dx2y2   :     0.000880
      dxy     :     0.000653
  8 H s       :     0.871321  s :     0.871321
      pz      :     0.008155  p :     0.028126
      px      :     0.010961
      py      :     0.009009
      dz2     :     0.000591  d :     0.002427
      dxz     :     0.000609
      dyz     :     0.000472
      dx2y2   :     0.000253
      dxy     :     0.000502
  9 H s       :     0.860338  s :     0.860338
      pz      :     0.007445  p :     0.028678
      px      :     0.009720
      py      :     0.011513
      dz2     :     0.000291  d :     0.002442
      dxz     :     0.000195
      dyz     :     0.000423
      dx2y2   :     0.000880
      dxy     :     0.000653
 10 H s       :     0.860339  s :     0.860339
      pz      :     0.007445  p :     0.028678
      px      :     0.009719
      py      :     0.011513
      dz2     :     0.000291  d :     0.002442
      dxz     :     0.000195
      dyz     :     0.000423
      dx2y2   :     0.000880
      dxy     :     0.000653
 11 H s       :     0.884022  s :     0.884022
      pz      :     0.011666  p :     0.028107
      px      :     0.008492
      py      :     0.007950
      dz2     :     0.000746  d :     0.002429
      dxz     :     0.000889
      dyz     :     0.000701
      dx2y2   :     0.000011
      dxy     :     0.000082
 12 H s       :     0.871319  s :     0.871319
      pz      :     0.008155  p :     0.028126
      px      :     0.010963
      py      :     0.009009
      dz2     :     0.000591  d :     0.002427
      dxz     :     0.000608
      dyz     :     0.000472
      dx2y2   :     0.000253
      dxy     :     0.000503
 13 H s       :     0.871324  s :     0.871324
      pz      :     0.008155  p :     0.028126
      px      :     0.010961
      py      :     0.009009
      dz2     :     0.000591  d :     0.002427
      dxz     :     0.000609
      dyz     :     0.000472
      dx2y2   :     0.000253
      dxy     :     0.000502
 14 H s       :     0.884020  s :     0.884020
      pz      :     0.011666  p :     0.028107
      px      :     0.008492
      py      :     0.007950
      dz2     :     0.000746  d :     0.002429
      dxz     :     0.000889
      dyz     :     0.000701
      dx2y2   :     0.000011
      dxy     :     0.000082
 15 H s       :     0.871323  s :     0.871323
      pz      :     0.008155  p :     0.028126
      px      :     0.010962
      py      :     0.009009
      dz2     :     0.000591  d :     0.002427
      dxz     :     0.000609
      dyz     :     0.000472
      dx2y2   :     0.000253
      dxy     :     0.000503
 16 H s       :     0.860334  s :     0.860334
      pz      :     0.007445  p :     0.028678
      px      :     0.009720
      py      :     0.011513
      dz2     :     0.000291  d :     0.002442
      dxz     :     0.000195
      dyz     :     0.000423
      dx2y2   :     0.000880
      dxy     :     0.000653
 17 H s       :     0.884024  s :     0.884024
      pz      :     0.011666  p :     0.028107
      px      :     0.008491
      py      :     0.007950
      dz2     :     0.000746  d :     0.002429
      dxz     :     0.000889
      dyz     :     0.000701
      dx2y2   :     0.000011
      dxy     :     0.000082


                     *******************************
                     * LOEWDIN POPULATION ANALYSIS *
                     *******************************

----------------------
LOEWDIN ATOMIC CHARGES
----------------------
   0 C :    0.063018
   1 C :    0.057238
   2 C :    0.057233
   3 C :    0.063010
   4 C :    0.057245
   5 C :    0.057247
   6 H :   -0.029246
   7 H :   -0.029508
   8 H :   -0.029988
   9 H :   -0.029514
  10 H :   -0.029513
  11 H :   -0.029252
  12 H :   -0.029988
  13 H :   -0.029988
  14 H :   -0.029248
  15 H :   -0.029984
  16 H :   -0.029515
  17 H :   -0.029246

-------------------------------
LOEWDIN REDUCED ORBITAL CHARGES
-------------------------------
  0 C s       :     2.663880  s :     2.663880
      pz      :     0.973935  p :     2.824367
      px      :     0.934527
      py      :     0.915905
      dz2     :     0.053526  d :     0.409577
      dxz     :     0.113664
      dyz     :     0.061873
      dx2y2   :     0.081983
      dxy     :     0.098530
      f0      :     0.003183  f :     0.039158
      f+1     :     0.005750
      f-1     :     0.006113
      f+2     :     0.004202
      f-2     :     0.005217
      f+3     :     0.005778
      f-3     :     0.008915
  1 C s       :     2.660799  s :     2.660799
      pz      :     0.958963  p :     2.823606
      px      :     0.924701
      py      :     0.939942
      dz2     :     0.119130  d :     0.418544
      dxz     :     0.070177
      dyz     :     0.034874
      dx2y2   :     0.079958
      dxy     :     0.114406
      f0      :     0.005399  f :     0.039812
      f+1     :     0.005951
      f-1     :     0.003237
      f+2     :     0.005902
      f-2     :     0.006026
      f+3     :     0.006766
      f-3     :     0.006531
  2 C s       :     2.660798  s :     2.660798
      pz      :     0.958960  p :     2.823605
      px      :     0.924701
      py      :     0.939943
      dz2     :     0.119135  d :     0.418552
      dxz     :     0.070179
      dyz     :     0.034874
      dx2y2   :     0.079958
      dxy     :     0.114406
      f0      :     0.005399  f :     0.039813
      f+1     :     0.005951
      f-1     :     0.003238
      f+2     :     0.005903
      f-2     :     0.006026
      f+3     :     0.006766
      f-3     :     0.006531
  3 C s       :     2.663875  s :     2.663875
      pz      :     0.973931  p :     2.824367
      px      :     0.934527
      py      :     0.915909
      dz2     :     0.053528  d :     0.409588
      dxz     :     0.113665
      dyz     :     0.061875
      dx2y2   :     0.081987
      dxy     :     0.098532
      f0      :     0.003183  f :     0.039160
      f+1     :     0.005750
      f-1     :     0.006113
      f+2     :     0.004202
      f-2     :     0.005218
      f+3     :     0.005779
      f-3     :     0.008916
  4 C s       :     2.660799  s :     2.660799
      pz      :     0.958965  p :     2.823604
      px      :     0.924702
      py      :     0.939937
      dz2     :     0.119129  d :     0.418540
      dxz     :     0.070178
      dyz     :     0.034874
      dx2y2   :     0.079953
      dxy     :     0.114407
      f0      :     0.005399  f :     0.039812
      f+1     :     0.005951
      f-1     :     0.003237
      f+2     :     0.005902
      f-2     :     0.006026
      f+3     :     0.006766
      f-3     :     0.006530
  5 C s       :     2.660800  s :     2.660800
      pz      :     0.958965  p :     2.823604
      px      :     0.924701
      py      :     0.939938
      dz2     :     0.119134  d :     0.418539
      dxz     :     0.070177
      dyz     :     0.034870
      dx2y2   :     0.079950
      dxy     :     0.114407
      f0      :     0.005399  f :     0.039811
      f+1     :     0.005951
      f-1     :     0.003238
      f+2     :     0.005902
      f-2     :     0.006026
      f+3     :     0.006766
      f-3     :     0.006530
  6 H s       :     0.847995  s :     0.847995
      pz      :     0.073420  p :     0.153122
      px      :     0.040451
      py      :     0.039252
      dz2     :     0.009578  d :     0.028130
      dxz     :     0.009131
      dyz     :     0.008549
      dx2y2   :     0.000153
      dxy     :     0.000718
  7 H s       :     0.847891  s :     0.847891
      pz      :     0.040774  p :     0.153580
      px      :     0.048567
      py      :     0.064239
      dz2     :     0.003250  d :     0.028037
      dxz     :     0.002710
      dyz     :     0.006117
      dx2y2   :     0.008435
      dxy     :     0.007526
  8 H s       :     0.848289  s :     0.848289
      pz      :     0.059610  p :     0.153609
      px      :     0.052507
      py      :     0.041492
      dz2     :     0.008082  d :     0.028089
      dxz     :     0.007352
      dyz     :     0.005264
      dx2y2   :     0.003160
      dxy     :     0.004232
  9 H s       :     0.847892  s :     0.847892
      pz      :     0.040775  p :     0.153584
      px      :     0.048569
      py      :     0.064239
      dz2     :     0.003251  d :     0.028038
      dxz     :     0.002710
      dyz     :     0.006116
      dx2y2   :     0.008435
      dxy     :     0.007526
 10 H s       :     0.847892  s :     0.847892
      pz      :     0.040776  p :     0.153584
      px      :     0.048568
      py      :     0.064240
      dz2     :     0.003251  d :     0.028038
      dxz     :     0.002710
      dyz     :     0.006117
      dx2y2   :     0.008435
      dxy     :     0.007526
 11 H s       :     0.847995  s :     0.847995
      pz      :     0.073421  p :     0.153126
      px      :     0.040452
      py      :     0.039254
      dz2     :     0.009578  d :     0.028130
      dxz     :     0.009131
      dyz     :     0.008549
      dx2y2   :     0.000153
      dxy     :     0.000718
 12 H s       :     0.848293  s :     0.848293
      pz      :     0.059604  p :     0.153607
      px      :     0.052513
      py      :     0.041490
      dz2     :     0.008081  d :     0.028089
      dxz     :     0.007351
      dyz     :     0.005262
      dx2y2   :     0.003161
      dxy     :     0.004233
 13 H s       :     0.848291  s :     0.848291
      pz      :     0.059610  p :     0.153608
      px      :     0.052506
      py      :     0.041492
      dz2     :     0.008082  d :     0.028089
      dxz     :     0.007352
      dyz     :     0.005264
      dx2y2   :     0.003160
      dxy     :     0.004232
 14 H s       :     0.847994  s :     0.847994
      pz      :     0.073420  p :     0.153124
      px      :     0.040451
      py      :     0.039252
      dz2     :     0.009578  d :     0.028130
      dxz     :     0.009131
      dyz     :     0.008549
      dx2y2   :     0.000153
      dxy     :     0.000718
 15 H s       :     0.848290  s :     0.848290
      pz      :     0.059604  p :     0.153605
      px      :     0.052511
      py      :     0.041490
      dz2     :     0.008081  d :     0.028088
      dxz     :     0.007351
      dyz     :     0.005262
      dx2y2   :     0.003161
      dxy     :     0.004233
 16 H s       :     0.847893  s :     0.847893
      pz      :     0.040775  p :     0.153585
      px      :     0.048570
      py      :     0.064241
      dz2     :     0.003250  d :     0.028038
      dxz     :     0.002710
      dyz     :     0.006117
      dx2y2   :     0.008435
      dxy     :     0.007526
 17 H s       :     0.847994  s :     0.847994
      pz      :     0.073420  p :     0.153122
      px      :     0.040451
      py      :     0.039252
      dz2     :     0.009578  d :     0.028130
      dxz     :     0.009131
      dyz     :     0.008549
      dx2y2   :     0.000153
      dxy     :     0.000718


                      *****************************
                      * MAYER POPULATION ANALYSIS *
                      *****************************

  NA   - Mulliken gross atomic population
  ZA   - Total nuclear charge
  QA   - Mulliken gross atomic charge
  VA   - Mayer's total valence
  BVA  - Mayer's bonded valence
  FA   - Mayer's free valence

  ATOM       NA         ZA         QA         VA         BVA        FA
  0 C      6.2061     6.0000    -0.2061     3.8499     3.8499     0.0000
  1 C      6.1891     6.0000    -0.1891     3.8535     3.8535     0.0000
  2 C      6.1891     6.0000    -0.1891     3.8535     3.8535    -0.0000
  3 C      6.2061     6.0000    -0.2061     3.8499     3.8499    -0.0000
  4 C      6.1891     6.0000    -0.1891     3.8535     3.8535     0.0000
  5 C      6.1891     6.0000    -0.1891     3.8535     3.8535    -0.0000
  6 H      0.9146     1.0000     0.0854     0.9816     0.9816    -0.0000
  7 H      0.8915     1.0000     0.1085     0.9784     0.9784     0.0000
  8 H      0.9019     1.0000     0.0981     0.9816     0.9816    -0.0000
  9 H      0.8915     1.0000     0.1085     0.9784     0.9784     0.0000
 10 H      0.8915     1.0000     0.1085     0.9784     0.9784     0.0000
 11 H      0.9146     1.0000     0.0854     0.9816     0.9816    -0.0000
 12 H      0.9019     1.0000     0.0981     0.9816     0.9816     0.0000
 13 H      0.9019     1.0000     0.0981     0.9816     0.9816    -0.0000
 14 H      0.9146     1.0000     0.0854     0.9816     0.9816    -0.0000
 15 H      0.9019     1.0000     0.0981     0.9816     0.9816     0.0000
 16 H      0.8915     1.0000     0.1085     0.9784     0.9784     0.0000
 17 H      0.9146     1.0000     0.0854     0.9816     0.9816     0.0000

  Mayer bond orders larger than 0.1
B(  0-C ,  1-C ) :   0.9378 B(  0-C ,  5-C ) :   0.9378 B(  0-C , 12-H ) :   0.9941 
B(  0-C , 13-H ) :   0.9941 B(  1-C ,  2-C ) :   0.9466 B(  1-C , 10-H ) :   0.9949 
B(  1-C , 17-H ) :   0.9872 B(  2-C ,  3-C ) :   0.9378 B(  2-C ,  6-H ) :   0.9872 
B(  2-C ,  7-H ) :   0.9949 B(  3-C ,  4-C ) :   0.9378 B(  3-C ,  8-H ) :   0.9941 
B(  3-C , 15-H ) :   0.9941 B(  4-C ,  5-C ) :   0.9466 B(  4-C ,  9-H ) :   0.9949 
B(  4-C , 14-H ) :   0.9872 B(  5-C , 11-H ) :   0.9872 B(  5-C , 16-H ) :   0.9949 


-------
TIMINGS
-------

Total SCF time: 0 days 0 hours 0 min 12 sec 

Total time                  ....      12.050 sec
Sum of individual times     ....      11.788 sec  ( 97.8%)

Fock matrix formation       ....      11.120 sec  ( 92.3%)
Diagonalization             ....       0.108 sec  (  0.9%)
Density matrix formation    ....       0.013 sec  (  0.1%)
Population analysis         ....       0.074 sec  (  0.6%)
Initial guess               ....       0.263 sec  (  2.2%)
Orbital Transformation      ....       0.000 sec  (  0.0%)
Orbital Orthonormalization  ....       0.000 sec  (  0.0%)
DIIS solution               ....       0.000 sec  (  0.0%)
SOSCF solution              ....       0.080 sec  (  0.7%)


           ************************************************************
           *        Program running with 8 parallel MPI-processes     *
           *              working on a common directory               *
           ************************************************************


------------------------------------------------------------------------------- 
                              ORCA-MATRIX DRIVEN CI                            
------------------------------------------------------------------------------- 


Wavefunction type
-----------------
Correlation treatment                      ...      CCSD     
Single excitations                         ... ON
Orbital optimization                       ... OFF
Calculation of Z vector                    ... OFF
Calculation of Brueckner orbitals          ... OFF
Perturbative triple excitations            ... ON
Calculation of F12 correction              ... OFF
Frozen core treatment                      ... chemical core (12 el)
Reference Wavefunction                     ... RHF
  Internal Orbitals:     6 ...   23 ( 18 MO's/ 36 electrons)
  Virtual  Orbitals:    24 ...  347 (324 MO's              )
Number of AO's                             ...    348
Number of electrons                        ...     48
Number of correlated electrons             ...     36

Algorithmic settings
--------------------
Integral transformation                    ... All integrals via the RI transformation
K(C) Formation                             ... RI-DLPNO
   PNO-Integral Storage                    ... ON DISK
   PNO occupation number cut-off           ... 1.000e-07
   Singles PNO occupation number cut-off   ... 3.000e-09
   PNO Mulliken prescreening cut-off       ... 1.000e-03
   Domain cut-off (Mulliken population)    ... 1.000e-03
   PNO Normalization                       ...    1
Maximum number of iterations               ...        50
Convergence tolerance (max. residuum)      ... 1.000e-05
Level shift for amplitude update           ... 2.000e-01
Maximum number of DIIS vectors             ...         7
DIIS turned on at iteration                ...         0
Damping before turning on DIIS             ...     0.500
Damping after turning on DIIS              ...     0.000
Pair specific amplitude update             ... OFF
Natural orbital iterations                 ... OFF
Perturbative natural orbital generation    ... OFF
Printlevel                                 ... 2

Singles Fock matrix elements calculated using PNOs.

Memory handling:
----------------
Maximum memory for working arrays          ...   8000 MB
Data storage in matrix containers          ... UNCOMPRESSED
Data type for integral storage             ... DOUBLE
In-Core Storage of quantities:
   Amplitudes+Sigma Vector      ... NO
   J+K operators                ... NO
   DIIS vectors                 ... NO
   3-external integrals         ... NO
   4-external integrals         ... NO

Localization treatment:
-----------------------
Localization option                        ...    6
Localization threshhold                    ... -1.0e+00
Using relative localization threshhold     ... 1.0e-08
Neglect threshold for strong pairs         ... 1.000e-05 Eh
Prescreening threshold for very weak pairs ... 1.000e-07 Eh

Initializing the integral package          ... done
Localizing the valence orbitals
------------------------------------------------------------------------------
                           ORCA ORBITAL LOCALIZATION
------------------------------------------------------------------------------

Input orbitals are from                  ... cyclohexane_twb.proc0.gbw
Output orbitals are to                   ... cyclohexane_twb.proc0.loc
Max. number of iterations                ... 128
Localizations seeded randomly            ... off
Convergence tolerance                    ... 1.000e-06
Using relative localization threshhold   ... 1.000e-08
Treshold for strong local MOs            ... 9.500e-01
Treshold for bond MOs                    ... 8.500e-01
Operator                                 ... 0
Orbital range for localization           ... 6 to 23
Localization criterion                   ... FOSTER-BOYS (AUGMENTED HESSIAN)
Doing the dipole integrals     ... o.k.
Initial value of the localization sum :   134.403805
ITERATION   0 : L=  197.9478808348 DL=  6.35e+01 (AVERGE_DL)=    0.6444538427 
ITERATION   1 : L=  203.7095262070 DL=  5.76e+00 (AVERGE_DL)=    0.1940562106 
ITERATION   2 : L=  203.7627130115 DL=  5.32e-02 (AVERGE_DL)=    0.0186447358 
ITERATION   3 : L=  203.7627491759 DL=  3.62e-05 (AVERGE_DL)=    0.0004861775 
ITERATION   4 : L=  203.7627492553 DL=  7.94e-08 (AVERGE_DL)=    0.0000227860 
LOCALIZATION SUM CONVERGED

------------------------------------------------------
AUGMENTED HESSIAN OPTIMIZATION OF FOSTER-BOYS ORBITALS
------------------------------------------------------

Spin operator:           0
Orbital window:          6 to 23
Number of iterations:    128
Gradient tolerance:      1.000e-06
Number of pairs:         153
Davidson threshold:      2000
Diagonalization method:  LAPACK
Iter:    0   L: 203.7627492553   Grad. norm: 7.908927e-04
   *** Likely close to a maximum now. ***
       Augmented Hessian eigenvalues:  4.76e-09 -1.78e+01 -1.79e+01 -1.79e+01 ... 
Iter:    1   L: 203.7627492577   Grad. norm: 1.452290e-10
LOCALIZATION HAS CONVERGED.

Eigenvalues of the Hessian:
  0 -1.784e+01
  1 -1.786e+01
  2 -1.788e+01
  3 -1.796e+01
  4 -1.796e+01
  5 -1.807e+01
  6 -1.839e+01
  7 -1.855e+01
  8 -1.867e+01
  9 -1.871e+01
    ...


------------------------------------------------------------------------------- 
                    LOCALIZED MOLECULAR ORBITAL COMPOSITIONS                   
------------------------------------------------------------------------------- 

The Mulliken populations for each LMO on each atom are computed
The LMO`s will be ordered according to atom index and type
  (A) Strongly localized MO`s have populations of >=0.950 on one atom
  (B) Two center bond orbitals have populations of >=0.850 on two atoms
  (C) Other MO`s are considered to be `delocalized`

FOUND  -   0 strongly local MO`s
       -  18 two center bond MO`s
       -   0 significantly delocalized MO`s

Bond-like localized orbitals:
MO  23:  17H  -   0.477140  and   1C  -   0.552714
MO  22:  16H  -   0.463793  and   5C  -   0.570056
MO  21:  15H  -   0.469729  and   3C  -   0.564458
MO  20:  14H  -   0.477137  and   4C  -   0.552716
MO  19:  13H  -   0.469730  and   0C  -   0.564457
MO  18:  12H  -   0.469727  and   0C  -   0.564459
MO  17:  11H  -   0.477139  and   5C  -   0.552714
MO  16:  10H  -   0.463796  and   1C  -   0.570055
MO  15:   9H  -   0.463795  and   4C  -   0.570056
MO  14:   8H  -   0.469728  and   3C  -   0.564459
MO  13:   7H  -   0.463796  and   2C  -   0.570054
MO  12:   6H  -   0.477141  and   2C  -   0.552713
MO  11:   5C  -   0.515654  and   4C  -   0.515652
MO  10:   5C  -   0.516538  and   0C  -   0.517017
MO   9:   4C  -   0.516540  and   3C  -   0.517015
MO   8:   3C  -   0.517014  and   2C  -   0.516540
MO   7:   2C  -   0.515652  and   1C  -   0.515654
MO   6:   1C  -   0.516541  and   0C  -   0.517013
Localized MO's were stored in: cyclohexane_twb.proc0.loc

Localizing the core orbitals
------------------------------------------------------------------------------
                           ORCA ORBITAL LOCALIZATION
------------------------------------------------------------------------------

Input orbitals are from                  ... cyclohexane_twb.proc0.loc
Output orbitals are to                   ... cyclohexane_twb.proc0.loc
Max. number of iterations                ... 128
Localizations seeded randomly            ... off
Convergence tolerance                    ... 1.000e-06
Using relative localization threshhold   ... 1.000e-08
Treshold for strong local MOs            ... 9.500e-01
Treshold for bond MOs                    ... 8.500e-01
Operator                                 ... 0
Orbital range for localization           ... 0 to 5
Localization criterion                   ... FOSTER-BOYS (AUGMENTED HESSIAN)
Doing the dipole integrals     ... o.k.
Initial value of the localization sum :    46.680101
ITERATION   0 : L=   46.6801018446 DL=  1.18e-06 (AVERGE_DL)=    0.0002800503 
ITERATION   1 : L=   46.6801018446 DL=  0.00e+00 (AVERGE_DL)=    0.0000000000 
LOCALIZATION SUM CONVERGED

------------------------------------------------------
AUGMENTED HESSIAN OPTIMIZATION OF FOSTER-BOYS ORBITALS
------------------------------------------------------

Spin operator:           0
Orbital window:          0 to 5
Number of iterations:    128
Gradient tolerance:      1.000e-06
Number of pairs:         15
Davidson threshold:      2000
Diagonalization method:  LAPACK
Iter:    0   L: 46.6801018446   Grad. norm: 8.084519e-07
   *** Likely close to a maximum now. ***
       Augmented Hessian eigenvalues:  5.80e-15 -3.37e+01 -3.37e+01 -3.43e+01 ... 
Iter:    1   L: 46.6801018446   Grad. norm: 3.546368e-21
LOCALIZATION HAS CONVERGED.

Eigenvalues of the Hessian:
  0 -3.367e+01
  1 -3.367e+01
  2 -3.428e+01
  3 -3.428e+01
  4 -3.428e+01
  5 -3.428e+01
  6 -9.247e+01
  7 -9.247e+01
  8 -9.247e+01
  9 -9.247e+01
    ...


------------------------------------------------------------------------------- 
                    LOCALIZED MOLECULAR ORBITAL COMPOSITIONS                   
------------------------------------------------------------------------------- 

The Mulliken populations for each LMO on each atom are computed
The LMO`s will be ordered according to atom index and type
  (A) Strongly localized MO`s have populations of >=0.950 on one atom
  (B) Two center bond orbitals have populations of >=0.850 on two atoms
  (C) Other MO`s are considered to be `delocalized`

FOUND  -   6 strongly local MO`s
       -   0 two center bond MO`s
       -   0 significantly delocalized MO`s

Rather strongly localized orbitals:
MO   5:   5C  -   1.001624
MO   4:   4C  -   1.001624
MO   3:   3C  -   1.001121
MO   2:   2C  -   1.001624
MO   1:   1C  -   1.001624
MO   0:   0C  -   1.001121
Localized MO's were stored in: cyclohexane_twb.proc0.loc

Warning: internal orbitals are localized - no re-canonicalization of internal orbitals

--------------------------
CLOSED-SHELL FOCK OPERATOR
--------------------------

RI-JK section for the Fock operator:
  RHF full Fock operator         ... done
  RHF frozen core Fock operator  ... done
Time needed for Fock operator              ...            2.087 sec
Reference energy                           ...   -234.274190240

--------------
DLPNO SETTINGS (2015 fully linear scaling implementation)
--------------

TCutMKN:           1.000e-03
TCutPAO:           1.000e-03
TCutPNO:           1.000e-07
TCutPNOSingles:    3.000e-09
TCutEN:            9.700e-01
TCutPAOExt:        1.000e-01
TCutPairs:         1.000e-05
TCutPre:           1.000e-07
TCutOSV:           1.000e-06
TCutDOij:          1.000e-05
TCutDO:            5.000e-03
TCutC:             1.000e-04
TCutCPAO:          1.000e-03
TCutCMO:           1.000e-03
TScaleDOMP2PreScr: 2.000e+00
TScaleMKNMP2PreScr:1.000e+01
TScalePNOMP2PreScr:1.000e+00
PAO overlap thresh 1.000e-08
Using PNOs for Singles Fock computation
Use new domains
Use fully linear algorithm
TCutTNO:           1.000e-09
TCutMP2Pairs:      1.000e-06
TCutDOStrong:      2.000e-03
TCutMKNStrong:     1.000e-02
TCutMKNWeak:       1.000e-01
TCutDOWeak:        4.000e-03
NTCutTNO:          1

--------------------------
Calculating differential overlap integrals ... ok
--------------------------
ELECTRON PAIR PRESCREENING
--------------------------

Dipole-based pair screening          .... used

   TCutDOij = 1.000000e-05
   TCutPre  = 1.000000e-07
   .... Finished loop over pairs
Total time spent in the prescreening                  ...     0.000 sec
sum of pair energies estimated for screened out pairs ...       0.000000000000 Eh
Thresholds for map construction and integral transformation for crude MP2:
   TCutMKN                    ...     1.0e-02
   TCutDO                     ...     1.0e-02
   TCutPairs                  ...     1.0e-05
   TCutPNO_CrudeMP2           ...     1.0e-07
   TCutPNOSingles_CrudeMP2    ...     3.0e-09
--------------------------------
LOCAL RI TRANSFORMATION (IAVPAO)
--------------------------------

Orbital window:       6 to 23
Number of PAOs:     348
Basis functions:    348 (132 shells)
Aux. functions:     846 (258 shells)

Processing maps (0.0 sec)
Average map sizes:
   Aux shells -> MOs              18.0
   Aux shells -> PAOs            348.0
   MOs        -> AO shells       130.7
   PAOs       -> AO shells       132.0

Calculating integrals (0.7 sec, 40.440 MB)
Sorting integrals (0.1 sec, 40.431 MB)
Total time for the integral transformation: 0.8 sec
--------------------------------
INITIAL GUESS AND PNO GENERATION
--------------------------------

PNO truncation parameters                   .... 
    PAOOverlapThresh   =        1.000e-08

    TCutPairs          =        1.000e-05
    TCutPNO            =        1.000e-07
    TCutPNOSingles     =        3.000e-09
    TCutMP2Pairs       =        1.000e-06
    TCutMKN            =        1.000e-02
    TCutDO             =        1.000e-02

Pair selection                          .... not used
Type of local MP2 treatment                 .... semi-local MP2
Strategy for PNO selection                  .... occupation number selection
Pair density normalization                  .... MP2 norm
Spin component scaling                      .... not used

   .... Finished loop over pairs
Making pair pair interaction lists          ... done

                       ===========================
                        171 OF  171 PAIRS ARE KEPT CCSD PAIRS
                          0 OF  171 PAIRS ARE KEPT MP2 PAIRS FOR (T)
                          0 OF  171 PAIRS ARE SKIPPED
                       ===========================

Total time spent in the initial guess                 ...     1.890 sec
SL-MP2 correlation energy (all non-screened pairs)    ...      -1.017006073349 Eh

Initial PNO correlation energy                        ...      -1.015915827175 Eh
sum of pair energies prescreened and skipped MP2 pairs...       0.000000000000 Eh
sum of pair energies of crude MP2 skipped pairs only  ...       0.000000000000 Eh
sum of MP2 pair energies for pairs that were not kept ...       0.000000000000 Eh
sum of PNO error estimates for the kept pairs         ...      -0.001090246174 Eh
                                                          --------------------
sum of all corrections                                         -0.001090246174
Initial total correlation energy                               -1.017006073349
Thresholds for map construction and integral transformation for fine MP2 and CCSD(T) calculation:
   TCutMKN   ...     1.0e-03
   TCutDO    ...     5.0e-03
   TCutPairs ...     1.0e-05
   TCutCMO   ...     1.0e-03
   TCutCPAO  ...     1.0e-03

Thresholds for map construction and integral transformation for strong Triples:
   TCutMKN   ...     1.0e-02
   TCutDO    ...     1.0e-02
   TCutCMO   ...     1.0e-03
   TCutCPAO  ...     1.0e-03

Thresholds for map construction and integral transformation for weak Triples:
   TCutMKN   ...     1.0e-01
   TCutDO    ...     2.0e-02
   TCutCMO   ...     1.0e-03
   TCutCPAO  ...     1.0e-03

--------------------------------
LOCAL RI TRANSFORMATION (IAVPAO)
--------------------------------

Orbital window:       6 to 23
Number of PAOs:     348
Basis functions:    348 (132 shells)
Aux. functions:     846 (258 shells)

Processing maps (0.0 sec)
Average map sizes:
   Aux shells -> MOs              18.0
   Aux shells -> PAOs            348.0
   MOs        -> AO shells       130.7
   PAOs       -> AO shells       132.0

Calculating integrals (0.7 sec, 40.440 MB)
Sorting integrals (0.1 sec, 40.431 MB)
Total time for the integral transformation: 0.8 sec
--------------------------------
INITIAL GUESS AND PNO GENERATION
--------------------------------

PNO truncation parameters                   .... 
    ScaleTCutPNO       =        1.000e-02
    PAOOverlapThresh   =        1.000e-08

    TCutPairs          =        1.000e-05
    TCutPNO            =        1.000e-07
    TCutPNOSingles     =        3.000e-09
    TCutMP2Pairs       =        1.000e-06
    TCutMKN            =        1.000e-03
    TCutDO             =        5.000e-03

Pair selection                          .... not used
Type of local MP2 treatment                 .... full local PMP2
Strategy for PNO selection                  .... occupation number selection
Pair density normalization                  .... MP2 norm
Spin component scaling                      .... not used

PASS-1: Formation of initial guess LMP2 amplitudes
Initial amplitudes guess done. Entering LMP2 iteration loop:
   Max. no of iterations          ...  50
   Energy convergence tolerance   ...    1.0e-07
   Residual convergence tolerance ...    5.0e-07
   Fock matrix cutoff             ...    1.0e-05 Eh
   DIIS convergence acceleration parameters:
        Max # vectors in DIIS     ... 7
        Start iteration of DIIS   ... 0
        Levelshift                ... 2.000e-01
        Damping factor 1          ... 5.000e-01
        Damping factor 2          ... 1.000e+00
   L-MP2 PNO cut-off              ...   1.0e-09
   L-MP2 PNO cut-off (core)       ...   1.0e-11
                           *** Turning on DIIS ***
LMP2-Iter=   0:  ELMP2= -1.033711868142  DE=   1.6e-02 RMAX=   2.9e-03
LMP2-Iter=   1:  ELMP2= -1.042430626989  DE=   8.7e-03 RMAX=   1.1e-03
LMP2-Iter=   2:  ELMP2= -1.043690989532  DE=   1.3e-03 RMAX=   1.6e-04
LMP2-Iter=   3:  ELMP2= -1.043793900230  DE=   1.0e-04 RMAX=   4.4e-05
LMP2-Iter=   4:  ELMP2= -1.043795961973  DE=   2.1e-06 RMAX=   4.3e-06
LMP2-Iter=   5:  ELMP2= -1.043795242193  DE=   7.2e-07 RMAX=   1.1e-06
LMP2-Iter=   6:  ELMP2= -1.043795183726  DE=   5.8e-08 RMAX=   9.9e-08 => CONVERGED
PASS-2: Formation of Pair natural orbitals
   .... Finished loop over pairs

 PNO Occupation Number Statistics: 
  | Av. % of trace(Dij) retained        ...  99.673687760697
  | sigma^2 in % of trace(Dij) retained ...   1.26e-01
  | Av. % of trace(Di) retained         ...  99.999691251251
  | sigma^2 in % of trace(Di) retained  ...   3.09e-09
 Distributions of % trace(Dij) recovered:
  |       >= 99.9  ...    54 ( 31.6 % of all pairs)
  |   [90.0, 99.0) ...     6 (  3.5 % of all pairs)
  |   [99.0, 99.9) ...   111 ( 64.9 % of all pairs)
 Distributions of % trace(Di) recovered :
  |       >= 99.9  ...    18 (100.0 % of all I-pairs )

Making pair pair interaction lists          ... done

                       ===========================
                        171 OF  171 PAIRS ARE KEPT
                       ===========================

Total time spent in the initial guess                 ...    12.196 sec
L-MP2 correlation energy (all non-screened pairs)     ...      -1.043795183726 Eh
L-MP2 PNO error correction                            ...      -0.000023744016 Eh
                                                          --------------------
Initial total L-MP2 energy (non-screened pairs)       ...      -1.043818927742 Eh

Initial PNO correlation energy                        ...      -1.042762501211 Eh
sum of pair energies estimated for screened out pairs ...       0.000000000000 Eh
sum of MP2 pair energies for pairs that were not kept ...       0.000000000000 Eh
sum of PNO error estimates for the kept pairs         ...      -0.001056426531 Eh
                                                          --------------------
sum of all corrections                                         -0.001056426531
Initial total correlation energy                               -1.043818927742
Thresholds for map construction and integral transformation for fine MP2 and CCSD(T) calculation:
   TCutMKN   ...     1.0e-03
   TCutDO    ...     5.0e-03
   TCutPairs ...     1.0e-05
   TCutCMO   ...     1.0e-03
   TCutCPAO  ...     1.0e-03

Time for aux screen maps:            0.004
Time for maps after fine MP2:            0.012
-----------------------------
LOCAL RI TRANSFORMATION (IJV)
-----------------------------

Orbital window:       6 to 23
Basis functions:    348 (132 shells)
Aux. functions:     846 (258 shells)

Processing maps (0.0 sec)
Average map sizes:
   Aux shells -> MOs(i)           18.0
   Aux shells -> MOs(j)           18.0
   MOs        -> AO shells       130.7

Calculating integrals (0.7 sec, 2.101 MB)
Sorting integrals (0.0 sec, 2.091 MB)
Total time for the integral transformation: 0.7 sec
--------------------------------
LOCAL RI TRANSFORMATION (VABPAO)
--------------------------------

Number of PAOs:     348
Basis functions:    348 (132 shells)
Aux. functions:     846 (258 shells)

Processing maps (0.0 sec)
Average map sizes:
   Aux shells -> PAOs            348.0
   PAOs       -> AO shells       132.0

Calculating integrals (2.1 sec, 1471.871 MB)
Finished


-------------------------------------
Pair Pair Term precalculation with     
RI-(ij|mn) and (im|jn) transformation  
ON THE FLY                             
-------------------------------------

   IBatch   1 (of   1)              ... done (   94.783 sec)
Total EXT                           ...          94.796 sec

---------------------
RI-PNO TRANSFORMATION
---------------------

Total Number of PNOs                   ...  7866
Average number of PNOs per pair        ...    46
Maximal number of PNOs per pair        ...    71
   #pairs with  1 -  5 PNOs   :    0
   #pairs with  6 - 10 PNOs   :    0
   #pairs with 11 - 15 PNOs   :    4
   #pairs with 16 - 20 PNOs   :    0
   #pairs with 21 - 25 PNOs   :   12
   #pairs with 26 - 30 PNOs   :   30
   #pairs with 31 - 35 PNOs   :    8
   #pairs with 36 - 40 PNOs   :    9
   #pairs with 41 - 45 PNOs   :   12
   #pairs with 46 - 50 PNOs   :   16
   #pairs with 51 - 55 PNOs   :   38
   #pairs with 61 - 65 PNOs   :    6
   #pairs with 66 - 70 PNOs   :   32
   #pairs with 71 - 75 PNOs   :    4

Generation of (ij|ab)[P] integrals            ... on
Generation of (ia|bc)[P],(ja|bc)[P] integrals ... on
Storage of 3 and 4 external integrals         ... on
Generation of ALL (ka|bc)[P] integrals        ... on
Keep RI integrals in memory                   ... off

Ibatch:  1 (of  1)
Starting 2-4 index PNO integral generation ... done

Timings:
Total PNO integral transformation time     ...         29.819 sec
Size of the 3-external file                ...       174 MB
Size of the 4-external file                ...      1294 MB
Size of the IKJL file                      ...         0 MB
Size of the all 3-external file            ...      1567 MB
Size of the 1-external file                ...         3 MB

Making pair/pair overlap matrices          ... done (    4.848 sec)
Size of the pair overlap file              ... 348 MB
Redoing the guess amplitudes               ... done (    2.892 sec)

-------------------------
FINAL STARTUP INFORMATION
-------------------------

E(0)                                       ...   -234.274190240
E(L-MP2)                                   ...     -1.043818928
E(L-MP2) including corrections             ...     -1.043818928
Initial E(tot)                             ...   -235.318009168
<T|T>                                      ...      0.303617355
Number of pairs included                   ... 171
Total number of pairs                      ... 171

------------------------------------------------
                  RHF COUPLED CLUSTER ITERATIONS
------------------------------------------------

Number of PNO amplitudes to be optimized   ...       404192
Number of non-PNO amplitudes               ...     17950896
Untruncated number of regular amplitudes   ...     17950896

Iter       E(tot)           E(Corr)          Delta-E          Residual     Time
  0   -235.291245633     -1.015998966      0.027819962      0.010996602   11.32
                           *** Turning on DIIS ***
  1   -235.345536033     -1.070289366     -0.054290400      0.004993602   11.35
  2   -235.373631339     -1.098384672     -0.028095306      0.001349568   11.03
  3   -235.378563770     -1.103317103     -0.004932431      0.000368237   11.27
  4   -235.379438717     -1.104192050     -0.000874946      0.000096925   11.34
  5   -235.379585457     -1.104338790     -0.000146740      0.000024743   11.77
  6   -235.379609641     -1.104362974     -0.000024184      0.000007840   11.50
               --- The Coupled-Cluster iterations have converged ---

----------------------
COUPLED CLUSTER ENERGY
----------------------

E(0)                                       ...   -234.274190240
E(CORR)(strong-pairs)                      ...     -1.104362974
E(CORR)(weak-pairs)                        ...     -0.001056427
E(CORR)(corrected)                         ...     -1.105419400
E(TOT)                                     ...   -235.379609641
Singles Norm <S|S>**1/2                    ...      0.048945620  
T1 diagnostic                              ...      0.008157603  

------------------
LARGEST AMPLITUDES
------------------
  14-> 30  14-> 30       0.031364
  19-> 30  19-> 30       0.031360
  21-> 30  21-> 30       0.031360
  18-> 30  18-> 30       0.031358
  11-> 34  11-> 34       0.031143
   7-> 34   7-> 34       0.031142
  10-> 34  10-> 34       0.030619
   8-> 34   8-> 34       0.030617
   6-> 34   6-> 34       0.030616
   9-> 34   9-> 34       0.030616
  23-> 24  23-> 24       0.028842
  12-> 24  12-> 24       0.028842
  20-> 24  20-> 24       0.028842
  17-> 24  17-> 24       0.028842
  21-> 24  21-> 24       0.027909
  19-> 24  19-> 24       0.027908


-------------------------------------------
DLPNO BASED TRIPLES CORRECTION
-------------------------------------------

Singles multiplier          ...  1.000000
TCutTNO                     ... 1.000e-09
TCutMP2Pairs                ... 1.000e-06
TCutDOStrong                ... 1.000e-02
TCutMKNStrong               ... 1.000e-02
TCutDOWeak                  ... 2.000e-02
TCutMKNWeak                 ... 1.000e-01

Fragment selection                          .... not used
Number of Triples that are to be computed   ...      1122

 . . . . . . . . .
10% done  
20% done  
30% done  
40% done  
50% done  
60% done  
70% done  
80% done  
90% done               (    155.256 sec)
Triples timings:
Total time for T0               ...   164.691 sec
Total time for Iterative (T)    ...     0.000 sec
Total time of overall (T)       ...   172.414 sec

Triples List generation         ...     0.000 sec
TNO generation                  ...     9.405 sec
Pair density generation         ...     0.019 sec
Look up tables                  ...     0.000 sec
Generating 3-index integrals    ...   104.225 sec
  Make 4-ind.int. from 3-ind.int...    17.174 sec
  Projecting amplitudes (D + S) ...    10.686 sec
  Downprojecting integrals      ...     0.003 sec
  Energy contr. (sum over a,b,c)...     6.484 sec
Fitting ET(->0)                 ...     0.000 sec

Everything after 3-index        ...    51.031 sec

Timing details:
 TNO integrals                  ...   119.951 sec
   Reading 3-index integrals    ...     0.323 sec
   Sorting integrals            ...    14.947 sec
       Sorting integrals 1      ...     0.001 sec
       Sorting integrals 2      ...     8.143 sec
       Sorting integrals 3      ...     0.483 sec
       Sorting integrals 4      ...     0.027 sec
       Sorting integrals 5      ...     0.148 sec
       Sorting integrals 6      ...     6.145 sec
   Calculating local VM**-1/2   ...     0.483 sec
   Orthogonal. integrals        ...     0.872 sec
   Multipl. 3-index integrals   ...   103.326 sec
   All concerning IRIab (w/TNO) ...     9.230 sec

 Calculate W0/W1                ...    16.678 sec
 W 3-ext contribution           ...     9.202 sec
 W 3-int contribution           ...     2.280 sec
 Sorting W                      ...     4.966 sec

 V exchange contribution        ...     2.150 sec

 Timings for Triples without generation
     of 3-index integrals       ...    51.029 sec
       0 weak pairs             ...    51.029 sec
       1 weak pair              ...     0.000 sec
       2 weak pairs             ...     0.000 sec
       3 weak pairs             ...     0.000 sec
  Extra time for extrapolation  ...     0.000 sec

Number of Triples   (0, 1, 2, 3 weak pairs; overall):   1122       0       0       0  (  1122)
Number of Atoms     (0, 1, 2, 3 weak pairs; overall):   17.4     0.0     0.0     0.0  (    18)
Number of PAOs      (0, 1, 2, 3 weak pairs; overall):  339.9     0.0     0.0     0.0  (   348)
Number of AuxFcns   (0, 1, 2, 3 weak pairs; overall):  449.6     0.0     0.0     0.0  (   846)
Number of TNOs      (0, 1, 2, 3 weak pairs         ):  110.3     0.0     0.0     0.0
Aver. Number of NTNO, Atoms, PAOs, AuxFcns / Triples:   1122   110.3    17.4   339.9   449.6

Triples Correction (T)                     ...     -0.043761998
Final correlation energy                   ...     -1.149181398
E(CCSD)                                    ...   -235.379609641
E(CCSD(T))                                 ...   -235.423371638


Maximum memory used throughout the entire calculation: 7867.9 MB


------------------------------------------------------------------------------- 
                                     TIMINGS                                   
------------------------------------------------------------------------------- 


Total execution time                   ...      444.637 sec

Localization of occupied MO's          ...        0.561 sec (  0.1%)
Fock Matrix Formation                  ...        2.087 sec (  0.5%)
Global overlap, Fock, MKN matrices     ...        0.193 sec (  0.0%)
Differential overlap integrals         ...        0.113 sec (  0.0%)
Organizing maps                        ...        0.037 sec (  0.0%)
RI 3-index integral generations        ...        4.293 sec (  1.0%)
RI-PNO integral transformation         ...      138.476 sec ( 31.1%)
Initial Guess                          ...       14.130 sec (  3.2%)
DIIS Solver                            ...        1.068 sec (  0.2%)
State Vector Update                    ...        0.019 sec (  0.0%)
Sigma-vector construction              ...       79.431 sec ( 17.9%)
  <D|H|D>(0-ext)                       ...        1.616 sec (  2.0% of sigma)
  <D|H|D>(2-ext Fock)                  ...        0.008 sec (  0.0% of sigma)
  <D|H|D>(2-ext)                       ...        8.319 sec ( 10.5% of sigma)
  <D|H|D>(4-ext)                       ...       10.073 sec ( 12.7% of sigma)
  <D|H|D>(4-ext-corr)                  ...       42.178 sec ( 53.1% of sigma)
  CCSD doubles correction              ...        0.110 sec (  0.1% of sigma)
  <S|H|S>                              ...        0.642 sec (  0.8% of sigma)
  <S|H|D>(1-ext)                       ...        0.207 sec (  0.3% of sigma)
  <D|H|S>(1-ext)                       ...        0.007 sec (  0.0% of sigma)
  <S|H|D>(3-ext)                       ...        0.319 sec (  0.4% of sigma)
  Fock-dressing                        ...        8.706 sec ( 11.0% of sigma)
  Singles amplitudes                   ...        0.276 sec (  0.3% of sigma)
  (ik|jl)-dressing                     ...        1.316 sec (  1.7% of sigma)
  (ij|ab),(ia|jb)-dressing             ...        1.787 sec (  2.2% of sigma)
  Pair energies                        ...        0.025 sec (  0.0% of sigma)
Total Time for computing (T)           ...      172.455 sec ( 38.8% of ALL)


-------------------------   --------------------
FINAL SINGLE POINT ENERGY      -235.423371638362
-------------------------   --------------------


                            ***************************************
                            *     ORCA property calculations      *
                            ***************************************

                                    ---------------------
                                    Active property flags
                                    ---------------------
   (+) Dipole Moment


------------------------------------------------------------------------------
                       ORCA ELECTRIC PROPERTIES CALCULATION
------------------------------------------------------------------------------

Dipole Moment Calculation                       ... on
Quadrupole Moment Calculation                   ... off
Polarizability Calculation                      ... off
GBWName                                         ... cyclohexane_twb.gbw
Electron density file                           ... cyclohexane_twb.scfp.tmp
The origin for moment calculation is the CENTER OF MASS  = (-0.000003,  0.000004  0.000001)

-------------
DIPOLE MOMENT
-------------
                                X             Y             Z
Electronic contribution:     -0.00002       0.00008      -0.00004
Nuclear contribution   :      0.00002      -0.00008       0.00004
                        -----------------------------------------
Total Dipole Moment    :     -0.00000       0.00000      -0.00000
                        -----------------------------------------
Magnitude (a.u.)       :      0.00000
Magnitude (Debye)      :      0.00001



--------------------
Rotational spectrum 
--------------------
 
Rotational constants in cm-1:     0.145256     0.137941     0.083824 
Rotational constants in MHz :  4354.661850  4135.370656  2512.985405 

 Dipole components along the rotational axes: 
x,y,z [a.u.] :    -0.000002     0.000001    -0.000001 
x,y,z [Debye]:    -0.000004     0.000003    -0.000003 

 

Timings for individual modules:

Sum of individual times         ...      463.186 sec (=   7.720 min)
GTO integral calculation        ...        0.586 sec (=   0.010 min)   0.1 %
SCF iterations                  ...       12.148 sec (=   0.202 min)   2.6 %
MDCI module                     ...      450.453 sec (=   7.508 min)  97.3 %
                             ****ORCA TERMINATED NORMALLY****
TOTAL RUN TIME: 0 days 0 hours 7 minutes 43 seconds 918 msec
cyclohexane_twb.gbw -> /home1/pantazis/klk/xyz_1/hydrocarbons_xyz/cyclohexane_twb.gbw
cyclohexane_twb.job -> /home1/pantazis/klk/xyz_1/hydrocarbons_xyz/cyclohexane_twb.job
cyclohexane_twb.loc -> /home1/pantazis/klk/xyz_1/hydrocarbons_xyz/cyclohexane_twb.loc
cyclohexane_twb.nodes -> /home1/pantazis/klk/xyz_1/hydrocarbons_xyz/cyclohexane_twb.nodes
cyclohexane_twb.prop -> /home1/pantazis/klk/xyz_1/hydrocarbons_xyz/cyclohexane_twb.prop
cyclohexane_twb_property.txt -> /home1/pantazis/klk/xyz_1/hydrocarbons_xyz/cyclohexane_twb_property.txt
cyclohexane_twb.xyz -> /home1/pantazis/klk/xyz_1/hydrocarbons_xyz/cyclohexane_twb.xyz
cp: cannot stat cyclohexane_twb.asa.inp: No such file or directory
