! Job execution by suborca V 6.07 on ZEUS !
Job started from zeus1, running /scratch/pantazis/cyclohexylphosphine_ax__iKYxTG/orca/orca copied from /opt/orca on zeussn143 in /scratch/pantazis/cyclohexylphosphine_ax__iKYxTG
Job execution start: Fri Jun 28 09:44:12 CEST 2019
Shared library path: /scratch/pantazis/cyclohexylphosphine_ax__iKYxTG/orca:/opt/openmpi_1.10.2/lib:/opt/intel/mkl/lib/intel64:/opt/intel/lib/intel64:
PBS Job ID is: 158367.icqc
izeussn143
izeussn143
izeussn143
izeussn143
izeussn143
izeussn143
izeussn143
izeussn143

                                 *****************
                                 * O   R   C   A *
                                 *****************

           --- An Ab Initio, DFT and Semiempirical electronic structure package ---

                  #######################################################
                  #                        -***-                        #
                  #          Department of theory and spectroscopy      #
                  #               Directorship: Frank Neese             #
                  #        Max Planck Institute fuer Kohlenforschung    #
                  #                Kaiser Wilhelm Platz 1               #
                  #                 D-45470 Muelheim/Ruhr               #
                  #                      Germany                        #
                  #                                                     #
                  #                  All rights reserved                #
                  #                        -***-                        #
                  #######################################################


                         Program Version 4.1.x  -  STABLE  -
                                (SVN: $Rev: 14094$)
                ($Date: 2019-06-14 15:01:15 +0200 (Fri, 14 Jun 2019) $)

                         (BUILD: $Sun Jun 23 06:18:31 CEST 2019$)


 With contributions from (in alphabetic order):
   Daniel Aravena         : Magnetic Properties
   Michael Atanasov       : Ab Initio Ligand Field Theory
   Alexander A. Auer      : GIAO ZORA
   Ute Becker             : Parallelization
   Giovanni Bistoni       : ED, Open-shell LED
   Martin Brehm           : Molecular dynamics
   Dmytro Bykov           : SCF Hessian
   Vijay G. Chilkuri      : MRCI spin determinant printing
   Dipayan Datta          : RHF DLPNO-CCSD density
   Achintya Kumar Dutta   : EOM-CC, STEOM-CC
   Dmitry Ganyushin       : Spin-Orbit,Spin-Spin,Magnetic field MRCI
   Miquel Garcia          : C-PCM Hessian
   Yang Guo               : DLPNO-NEVPT2, CIM, IAO-localization
   Andreas Hansen         : Spin unrestricted coupled pair/coupled cluster methods
   Benjamin Helmich-Paris : CASSCF linear response (MC-RPA)
   Lee Huntington         : MR-EOM, pCC
   Robert Izsak           : Overlap fitted RIJCOSX, COSX-SCS-MP3, EOM
   Christian Kollmar      : KDIIS, OOCD, Brueckner-CCSD(T), CCSD density
   Simone Kossmann        : Meta GGA functionals, TD-DFT gradient, OOMP2, MP2 Hessian
   Martin Krupicka        : AUTO-CI
   Lucas Lang             : DCDCAS
   Dagmar Lenk            : GEPOL surface, SMD
   Dimitrios Liakos       : Extrapolation schemes; parallel MDCI
   Dimitrios Manganas     : ROCIS; embedding schemes
   Dimitrios Pantazis     : SARC Basis sets
   Taras Petrenko         : DFT Hessian,TD-DFT gradient, ASA, ECA, R-Raman, ABS, FL, XAS/XES, NRVS
   Peter Pinski           : DLPNO-MP2, DLPNO-MP2 Gradient
   Christoph Reimann      : Effective Core Potentials
   Marius Retegan         : Local ZFS, SOC
   Christoph Riplinger    : Optimizer, TS searches, QM/MM, DLPNO-CCSD(T), (RO)-DLPNO pert. Triples
   Tobias Risthaus        : Range-separated hybrids, TD-DFT gradient, RPA, STAB
   Michael Roemelt        : Restricted open shell CIS
   Masaaki Saitow         : Open-shell DLPNO
   Barbara Sandhoefer     : DKH picture change effects
   Avijit Sen             : IP-ROCIS
   Kantharuban Sivalingam : CASSCF convergence, NEVPT2, FIC-MRCI
   Bernardo de Souza      : ESD, SOC TD-DFT
   Georgi Stoychev        : AutoAux, RI-MP2 NMR
   Willem Van den Heuvel  : Paramagnetic NMR
   Boris Wezisla          : Elementary symmetry handling
   Frank Wennmohs         : Technical directorship


 We gratefully acknowledge several colleagues who have allowed us to
 interface, adapt or use parts of their codes:
   Stefan Grimme, W. Hujo, H. Kruse,             : VdW corrections, initial TS optimization,
                  C. Bannwarth                     DFT functionals, gCP, sTDA/sTD-DF
   Ed Valeev                                     : LibInt (2-el integral package), F12 methods
   Garnet Chan, S. Sharma, J. Yang, R. Olivares  : DMRG
   Ulf Ekstrom                                   : XCFun DFT Library
   Mihaly Kallay                                 : mrcc  (arbitrary order and MRCC methods)
   Andreas Klamt, Michael Diedenhofen            : otool_cosmo (COSMO solvation model)
   Jiri Pittner, Ondrej Demel                    : Mk-CCSD
   Frank Weinhold                                : gennbo (NPA and NBO analysis)
   Christopher J. Cramer and Donald G. Truhlar   : smd solvation model
   Lars Goerigk                                  : TD-DFT with DH, B97 family of functionals
   V. Asgeirsson, H. Jonsson                     : NEB implementation
   FAccTs GmbH                                   : IRC, NEB, NEB-TS, Multilevel


 Your calculation uses the libint2 library for the computation of 2-el integrals
 For citations please refer to: http://libint.valeyev.net

 This ORCA versions uses:
   CBLAS   interface :  Fast vector & matrix operations
   LAPACKE interface :  Fast linear algebra routines
   SCALAPACK package :  Parallel linear algebra routines




***************************************
The coordinates will be read from file: cyclohexylphosphine_ax.xyz
***************************************


----- Orbital basis set information -----
Your calculation utilizes the basis: cc-pVTZ 
       H, B-Ne : Obtained from the ccRepo (grant-hill.group.shef.ac.uk/ccrepo) Feb. 2017
                 T. H. Dunning, Jr., J. Chem. Phys. 90, 1007 (1989)
            He : Obtained from the ccRepo (grant-hill.group.shef.ac.uk/ccrepo) Feb. 2017
                 D. E. Woon, T. H. Dunning, Jr., J. Chem. Phys. 100, 2975 (1994)
  Li-Be, Na-Mg : Obtained from the ccRepo (grant-hill.group.shef.ac.uk/ccrepo) Feb. 2017
                 B. P. Prascher, D. E. Woon, K. A. Peterson, T. H. Dunning, Jr., A. K. Wilson, Theor. Chem. Acc. 128, 69 (2011)
         Al-Ar : Obtained from the ccRepo (grant-hill.group.shef.ac.uk/ccrepo) Feb. 2017
                 D. E. Woon, T. H. Dunning, Jr., J. Chem. Phys. 98, 1358 (1993)
            Ca : Obtained from the Peterson Research Group Website (tyr0.chem.wsu.edu/~kipeters) Feb. 2017
                 J. Koput, K. A. Peterson, J. Phys. Chem. 106, 9595 (2002)
         Sc-Zn : Obtained from the ccRepo (grant-hill.group.shef.ac.uk/ccrepo) Feb. 2017
                 N. B. Balabanov, K. A. Peterson, J. Chem. Phys. 123, 064107 (2005)
                 N. B. Balabanov, K. A. Peterson, J. Chem. Phys. 125, 074110 (2006)
         Ga-Kr : Obtained from the ccRepo (grant-hill.group.shef.ac.uk/ccrepo) Feb. 2017
                 A. K. Wilson, D. E. Woon, K. A. Peterson, T. H. Dunning, Jr., J. Chem. Phys. 110, 7667 (1999)
             Y : Obtained from the ccRepo (grant-hill.group.shef.ac.uk/ccrepo) Feb. 2017
                 K. A. Peterson, D. Figgen, M. Dolg, H. Stoll, J. Chem. Phys. 126, 124101 (2007)
        Ag, Au : Obtained from the Peterson Research Group Website (tyr0.chem.wsu.edu/~kipeters) Feb. 2017
                 K. A. Peterson, C. Puzzarini, Theor. Chem. Acc. 114, 283 (2005)

----- AuxC basis set information -----
Your calculation utilizes the auxiliary basis: cc-pVTZ/C 
  Obtained from the EMSL Basis Set Exchange (bse.pnl.gov) Feb. 2017
  H-He, B-F, Al-Ar, Ga-Kr : F. Weigend, A. Kohn, C. Hattig, J. Chem. Phys. 116, 3175 (2002)
             Li-Be, Na-Mg : C. Haettig, Phys. Chem. Chem. Phys. 7, 59 (2005)
                       Ne : C. Haettig, Phys. Chem. Chem. Phys. 7, 59 (2005)
                            F. Weigend, A. Kohn, C. Hattig, J. Chem. Phys. 116, 3175 (2002)
                    Sc-Zn : J. G. Hill, J. A. Platts, J. Chem. Phys. 128, 044104 (2008)

----- AuxJK basis set information -----
Your calculation utilizes the auxiliary basis: cc-pVTZ/JK 
  H, B-F, Al-Cl, Ga-Br : Obtained from the TURBOMOLE 7.0 basis set library

================================================================================
                                        WARNINGS
                       Please study these warnings very carefully!
================================================================================


WARNING: MDCI localization with Augmented Hessian Foster-Boys
  ===> : Switching off randomization!

WARNING: Post HF methods need fully converged wavefunctions
  ===> : Setting SCFConvForced true
         You can overwrite this default with %scf ConvForced false 


INFO   : the flag for use of LIBINT has been found!

================================================================================
                                       INPUT FILE
================================================================================
NAME = cyclohexylphosphine_ax.inp
|  1> ! RHF DLPNO-CCSD(T) cc-pVTZ RIJK cc-pVTZ/JK cc-pVTZ/C
|  2> ! KDIIS SOSCF TightSCF TightPNO
|  3> 
|  4> %pal nprocs 8 end
|  5> 
|  6> %maxcore 8000
|  7> 
|  8> %scf maxiter 300
|  9>      shift shift 0.2 erroff 0.1 end
| 10> end
| 11> 
| 12> * xyzfile 0 1 cyclohexylphosphine_ax.xyz 
| 13> 
| 14> 
| 15>                          ****END OF INPUT****
================================================================================

                       ****************************
                       * Single Point Calculation *
                       ****************************

---------------------------------
CARTESIAN COORDINATES (ANGSTROEM)
---------------------------------
  C     -0.678370    0.000020    0.810470
  C      0.201460   -1.269460    0.760700
  C      1.199910   -1.269610   -0.409820
  C      2.066050   -0.000010   -0.408020
  C      1.199930    1.269600   -0.409810
  C      0.201480    1.269460    0.760700
  P     -1.963310   -0.000020   -0.593790
  H      1.834210   -2.162730   -0.351060
  H      0.656050   -1.335440   -1.361540
  H      2.739960   -0.000010   -1.273540
  H      2.706370   -0.000010    0.486880
  H      0.656050    1.335450   -1.361540
  H      1.834240    2.162720   -0.351060
  H      0.765570   -1.322550    1.704110
  H     -0.425540   -2.169600    0.728960
  H     -0.425490    2.169630    0.728980
  H      0.765580    1.322500    1.704110
  H     -1.234090    0.000020    1.754450
  H     -2.783060   -1.038290   -0.063490
  H     -2.782870    1.038560   -0.063780

----------------------------
CARTESIAN COORDINATES (A.U.)
----------------------------
  NO LB      ZA    FRAG     MASS         X           Y           Z
   0 C     6.0000    0    12.011   -1.281934    0.000038    1.531566
   1 C     6.0000    0    12.011    0.380704   -2.398932    1.437515
   2 C     6.0000    0    12.011    2.267501   -2.399215   -0.774448
   3 C     6.0000    0    12.011    3.904269   -0.000019   -0.771046
   4 C     6.0000    0    12.011    2.267539    2.399196   -0.774429
   5 C     6.0000    0    12.011    0.380742    2.398932    1.437515
   6 P    15.0000    0    30.974   -3.710118   -0.000038   -1.122100
   7 H     1.0000    0     1.008    3.466155   -4.086967   -0.663407
   8 H     1.0000    0     1.008    1.239755   -2.523616   -2.572938
   9 H     1.0000    0     1.008    5.177774   -0.000019   -2.406642
  10 H     1.0000    0     1.008    5.114298   -0.000019    0.920070
  11 H     1.0000    0     1.008    1.239755    2.523635   -2.572938
  12 H     1.0000    0     1.008    3.466211    4.086949   -0.663407
  13 H     1.0000    0     1.008    1.446718   -2.499257    3.220301
  14 H     1.0000    0     1.008   -0.804154   -4.099950    1.377535
  15 H     1.0000    0     1.008   -0.804060    4.100007    1.377573
  16 H     1.0000    0     1.008    1.446737    2.499163    3.220301
  17 H     1.0000    0     1.008   -2.332092    0.000038    3.315430
  18 H     1.0000    0     1.008   -5.259221   -1.962084   -0.119979
  19 H     1.0000    0     1.008   -5.258862    1.962594   -0.120527

--------------------------------
INTERNAL COORDINATES (ANGSTROEM)
--------------------------------
 C      0   0   0     0.000000000000     0.00000000     0.00000000
 C      1   0   0     1.545366413573     0.00000000     0.00000000
 C      2   1   0     1.538512104405   113.20762975     0.00000000
 C      3   2   1     1.536907902120   111.39297829    54.12232698
 C      4   3   2     1.536904880141   111.39593179   305.05966882
 C      5   4   3     1.538504495346   111.39324921    54.94019001
 P      1   2   3     1.903422431516   111.13471879    71.97396491
 H      3   2   1     1.097019854880   109.54606971   176.40626015
 H      3   2   1     1.098129430850   109.75341533   293.00085219
 H      4   3   2     1.096941000464   110.20018732   182.42199422
 H      4   3   2     1.100388891438   109.20141709    65.75573962
 H      5   4   3     1.098149201976   109.24773780   293.52419152
 H      5   4   3     1.097025101354   110.28111546   176.80051602
 H      2   1   3     1.100482198084   107.68977257   120.11204693
 H      2   1   3     1.097446329986   110.45309959   235.61005665
 H      6   5   4     1.097453219140   110.40730467   181.46118644
 H      6   5   4     1.100474661089   108.63615543    65.44677507
 H      1   2   3     1.095409950110   108.45662664   189.39421248
 H      7   1   2     1.425206211536    96.53396615    71.10926706
 H      7   1   2     1.425214934703    96.53562717   165.44967757

---------------------------
INTERNAL COORDINATES (A.U.)
---------------------------
 C      0   0   0     0.000000000000     0.00000000     0.00000000
 C      1   0   0     2.920319298213     0.00000000     0.00000000
 C      2   1   0     2.907366531048   113.20762975     0.00000000
 C      3   2   1     2.904335028067   111.39297829    54.12232698
 C      4   3   2     2.904329317353   111.39593179   305.05966882
 C      5   4   3     2.907352152011   111.39324921    54.94019001
 P      1   2   3     3.596947112729   111.13471879    71.97396491
 H      3   2   1     2.073067089196   109.54606971   176.40626015
 H      3   2   1     2.075163883906   109.75341533   293.00085219
 H      4   3   2     2.072918075947   110.20018732   182.42199422
 H      4   3   2     2.079433645627   109.20141709    65.75573962
 H      5   4   3     2.075201245918   109.24773780   293.52419152
 H      5   4   3     2.073077003596   110.28111546   176.80051602
 H      2   1   3     2.079609969635   107.68977257   120.11204693
 H      2   1   3     2.073873010351   110.45309959   235.61005665
 H      6   5   4     2.073886028964   110.40730467   181.46118644
 H      6   5   4     2.079595726779   108.63615543    65.44677507
 H      1   2   3     2.070024810080   108.45662664   189.39421248
 H      7   1   2     2.693249424166    96.53396615    71.10926706
 H      7   1   2     2.693265908563    96.53562717   165.44967757

---------------------
BASIS SET INFORMATION
---------------------
There are 3 groups of distinct atoms

 Group   1 Type C   : 18s5p2d1f contracted to 4s3p2d1f pattern {8811/311/11/1}
 Group   2 Type P   : 41s16p2d1f contracted to 5s4p2d1f pattern {13131311/7711/11/1}
 Group   3 Type H   : 5s2p1d contracted to 3s2p1d pattern {311/11/1}

Atom   0C    basis set group =>   1
Atom   1C    basis set group =>   1
Atom   2C    basis set group =>   1
Atom   3C    basis set group =>   1
Atom   4C    basis set group =>   1
Atom   5C    basis set group =>   1
Atom   6P    basis set group =>   2
Atom   7H    basis set group =>   3
Atom   8H    basis set group =>   3
Atom   9H    basis set group =>   3
Atom  10H    basis set group =>   3
Atom  11H    basis set group =>   3
Atom  12H    basis set group =>   3
Atom  13H    basis set group =>   3
Atom  14H    basis set group =>   3
Atom  15H    basis set group =>   3
Atom  16H    basis set group =>   3
Atom  17H    basis set group =>   3
Atom  18H    basis set group =>   3
Atom  19H    basis set group =>   3
-------------------------------
AUXILIARY BASIS SET INFORMATION
-------------------------------
There are 3 groups of distinct atoms

 Group   1 Type C   : 8s6p5d3f1g contracted to 8s6p5d3f1g pattern {11111111/111111/11111/111/1}
 Group   2 Type P   : 10s8p7d5f2g contracted to 10s8p7d5f2g pattern {1111111111/11111111/1111111/11111/11}
 Group   3 Type H   : 4s3p2d1f contracted to 4s3p2d1f pattern {1111/111/11/1}

Atom   0C    basis set group =>   1
Atom   1C    basis set group =>   1
Atom   2C    basis set group =>   1
Atom   3C    basis set group =>   1
Atom   4C    basis set group =>   1
Atom   5C    basis set group =>   1
Atom   6P    basis set group =>   2
Atom   7H    basis set group =>   3
Atom   8H    basis set group =>   3
Atom   9H    basis set group =>   3
Atom  10H    basis set group =>   3
Atom  11H    basis set group =>   3
Atom  12H    basis set group =>   3
Atom  13H    basis set group =>   3
Atom  14H    basis set group =>   3
Atom  15H    basis set group =>   3
Atom  16H    basis set group =>   3
Atom  17H    basis set group =>   3
Atom  18H    basis set group =>   3
Atom  19H    basis set group =>   3
-------------------------------
AUXILIARY BASIS SET INFORMATION
-------------------------------
There are 3 groups of distinct atoms

 Group   1 Type C   : 10s7p5d2f1g contracted to 10s7p5d2f1g pattern {1111111111/1111111/11111/11/1}
 Group   2 Type P   : 13s11p9d3f1g contracted to 13s11p9d3f1g pattern {1111111111111/11111111111/111111111/111/1}
 Group   3 Type H   : 4s3p2d1f contracted to 4s3p2d1f pattern {1111/111/11/1}

Atom   0C    basis set group =>   1
Atom   1C    basis set group =>   1
Atom   2C    basis set group =>   1
Atom   3C    basis set group =>   1
Atom   4C    basis set group =>   1
Atom   5C    basis set group =>   1
Atom   6P    basis set group =>   2
Atom   7H    basis set group =>   3
Atom   8H    basis set group =>   3
Atom   9H    basis set group =>   3
Atom  10H    basis set group =>   3
Atom  11H    basis set group =>   3
Atom  12H    basis set group =>   3
Atom  13H    basis set group =>   3
Atom  14H    basis set group =>   3
Atom  15H    basis set group =>   3
Atom  16H    basis set group =>   3
Atom  17H    basis set group =>   3
Atom  18H    basis set group =>   3
Atom  19H    basis set group =>   3


           ************************************************************
           *        Program running with 8 parallel MPI-processes     *
           *              working on a common directory               *
           ************************************************************
------------------------------------------------------------------------------
                           ORCA GTO INTEGRAL CALCULATION
                           -- RI-GTO INTEGRALS CHOSEN --
------------------------------------------------------------------------------

                         BASIS SET STATISTICS AND STARTUP INFO

Gaussian basis set:
 # of primitive gaussian shells          ...  320
 # of primitive gaussian functions       ...  614
 # of contracted shells                  ...  150
 # of contracted basis functions         ...  396
 Highest angular momentum                ...    3
 Maximum contraction depth               ...   13
Auxiliary gaussian basis set:
 # of primitive gaussian shells          ...  317
 # of primitive gaussian functions       ...  985
 # of contracted shells                  ...  317
 # of contracted aux-basis functions     ...  985
 Highest angular momentum                ...    4
 Maximum contraction depth               ...    1
Ratio of auxiliary to basis functions    ...  2.49
Integral package used                  ... LIBINT
 One Electron integrals                  ... done
 Ordering auxiliary basis shells         ... done
 Integral threshhold             Thresh  ...  2.500e-11
 Primitive cut-off               TCut    ...  2.500e-12
 Pre-screening matrix                    ... done
 Shell pair data                         ... 
 Ordering of the shell pairs             ... done (   0.002 sec) 10822 of 11325 pairs
 Determination of significant pairs      ... done (   0.000 sec)
 Creation of shell pair data             ... done (   0.003 sec)
 Storage of shell pair data              ... done (   0.003 sec)
 Shell pair data done in (   0.007 sec)
 Computing two index integrals           ... done
 Cholesky decomposition of the V-matrix  ... done


Timings:
 Total evaluation time                   ...   0.982 sec (  0.016 min)
 One electron matrix time                ...   0.293 sec (  0.005 min) = 29.8%
 Schwartz matrix evaluation time         ...   0.406 sec (  0.007 min) = 41.4%
 Two index repulsion integral time       ...   0.119 sec (  0.002 min) = 12.1%
 Cholesky decomposition of V             ...   0.130 sec (  0.002 min) = 13.2%
 Three index repulsion integral time     ...   0.000 sec (  0.000 min) =  0.0%



           ************************************************************
           *        Program running with 8 parallel MPI-processes     *
           *              working on a common directory               *
           ************************************************************
-------------------------------------------------------------------------------
                                 ORCA SCF
-------------------------------------------------------------------------------

------------
SCF SETTINGS
------------
Hamiltonian:
 Ab initio Hamiltonian  Method          .... Hartree-Fock(GTOs)
 RI-approximation to the Coulomb term is turned on
   Number of auxiliary basis functions  .... 985
   RI-JK (J+K treated both via RI)      .... on


General Settings:
 Integral files         IntName         .... cyclohexylphosphine_ax
 Hartree-Fock type      HFTyp           .... RHF
 Total Charge           Charge          ....    0
 Multiplicity           Mult            ....    1
 Number of Electrons    NEL             ....   64
 Basis Dimension        Dim             ....  396
 Nuclear Repulsion      ENuc            ....    391.3196496476 Eh

Convergence Acceleration:
 DIIS                   CNVDIIS         .... off
 Newton-Raphson         CNVNR           .... off
 SOSCF                  CNVSOSCF        .... on
   Start iteration      SOSCFMaxIt      ....   150
   Startup grad/error   SOSCFStart      ....  0.003300
 Level Shifting         CNVShift        .... on
   Level shift para.    LevelShift      ....    0.2000
   Turn off err/grad.   ShiftErr        ....    0.1000
 Zerner damping         CNVZerner       .... off
 Static damping         CNVDamp         .... off
 Fernandez-Rico         CNVRico         .... off

SCF Procedure:
 Maximum # iterations   MaxIter         ....   300
 SCF integral mode      SCFMode         .... Direct
   Integral package                     .... LIBINT
 Reset frequency        DirectResetFreq ....    20
 Integral Threshold     Thresh          ....  2.500e-11 Eh
 Primitive CutOff       TCut            ....  2.500e-12 Eh

Convergence Tolerance:
 Convergence Check Mode ConvCheckMode   .... Total+1el-Energy
 Convergence forced     ConvForced      .... 1
 Energy Change          TolE            ....  1.000e-08 Eh
 1-El. energy change                    ....  1.000e-05 Eh
 Orbital Gradient       TolG            ....  1.000e-05
 Orbital Rotation angle TolX            ....  1.000e-05


Diagonalization of the overlap matrix:
Smallest eigenvalue                        ... 3.457e-04
Time for diagonalization                   ...    0.030 sec
Threshold for overlap eigenvalues          ... 1.000e-08
Number of eigenvalues below threshold      ... 0
Time for construction of square roots      ...    0.040 sec
Total time needed                          ...    0.071 sec

-------------------
DFT GRID GENERATION
-------------------

General Integration Accuracy     IntAcc      ...  4.340
Radial Grid Type                 RadialGrid  ... Gauss-Chebyshev
Angular Grid (max. acc.)         AngularGrid ... Lebedev-110
Angular grid pruning method      GridPruning ... 3 (G Style)
Weight generation scheme         WeightScheme... Becke
Basis function cutoff            BFCut       ...    1.0000e-11
Integration weight cutoff        WCut        ...    1.0000e-14
Grids for H and He will be reduced by one unit

# of grid points (after initial pruning)     ...  22064 (   0.0 sec)
# of grid points (after weights+screening)   ...  20034 (   0.0 sec)
nearest neighbour list constructed           ...    0.0 sec
Grid point re-assignment to atoms done       ...    0.0 sec
Grid point division into batches done        ...    0.0 sec
Reduced shell lists constructed in    0.1 sec

Total number of grid points                  ...    20034
Total number of batches                      ...      323
Average number of points per batch           ...       62
Average number of grid points per atom       ...     1002
Average number of shells per batch           ...   132.02 (88.02%)
Average number of basis functions per batch  ...   346.88 (87.60%)
Average number of large shells per batch     ...   107.74 (81.61%)
Average number of large basis fcns per batch ...   280.02 (80.73%)
Average number of aux-shells per batch       ...   132.02 (41.65%)
Average number of aux functions per batch    ...   346.88 (35.22%)
Maximum spatial batch extension              ...   2.32,  2.74,  2.78 au
Average spatial batch extension              ...   0.20,  0.21,  0.20 au

Time for grid setup =    0.170 sec

------------------------------
INITIAL GUESS: MODEL POTENTIAL
------------------------------
Loading Hartree-Fock densities                     ... done
Calculating cut-offs                               ... done
Setting up the integral package                    ... done
Initializing the effective Hamiltonian             ... done
Starting the Coulomb interaction                   ... done (   0.1 sec)
Reading the grid                                   ... done
Mapping shells                                     ... done
Starting the XC term evaluation                    ... done (   0.1 sec)
Transforming the Hamiltonian                       ... done (   0.0 sec)
Diagonalizing the Hamiltonian                      ... done (   0.0 sec)
Back transforming the eigenvectors                 ... done (   0.0 sec)
Now organizing SCF variables                       ... done
                      ------------------
                      INITIAL GUESS DONE (   0.5 sec)
                      ------------------
--------------
SCF ITERATIONS
--------------
ITER       Energy         Delta-E        Max-DP      RMS-DP      [F,P]   Gradient Norm
                             ****Turning on KDIIS(Cayley)****
  0   -575.2265203164   0.000000000000 0.02004451  0.00024056  0.0979279   0.136956036
  1   -575.3337778474  -0.107257530982 0.03623961  0.00029868  0.0853611   0.118908134
  2   -575.4232616613  -0.089483813926 0.05885285  0.00052121  0.0685212   0.096474156
  3   -575.5331749032  -0.109913241934 0.09000753  0.00085152  0.0419260   0.059472404
  4   -575.6047949473  -0.071620044049 0.00271554  0.00005948  0.0040006   0.003232308
                      *** Initiating the SOSCF procedure ***
                           *** Shutting down KDIIS ***
                      *** Re-Reading the Fockian *** 
                      *** Removing any level shift *** 
ITER      Energy       Delta-E        Grad      Rot      Max-DP    RMS-DP
  5   -575.60517121  -0.0003762674  0.001925  0.001925  0.003058  0.000070
  6   -575.60525279  -0.0000815775  0.000610  0.000828  0.000595  0.000014
  7   -575.60525965  -0.0000068564  0.000338  0.000216  0.000238  0.000005
  8   -575.60526535  -0.0000057061  0.000016  0.000032  0.000121  0.000001
  9   -575.60526538  -0.0000000298  0.000010  0.000019  0.000057  0.000001
 10   -575.60526539  -0.0000000055  0.000003  0.000004  0.000006  0.000000
                 **** Energy Check signals convergence ****
              ***Rediagonalizing the Fockian in SOSCF/NRSCF***

               *****************************************************
               *                     SUCCESS                       *
               *           SCF CONVERGED AFTER  11 CYCLES          *
               *****************************************************


----------------
TOTAL SCF ENERGY
----------------

Total Energy       :         -575.60526539 Eh          -15663.01556 eV

Components:
Nuclear Repulsion  :          391.31964965 Eh           10648.34902 eV
Electronic Energy  :         -966.92491504 Eh          -26311.36458 eV
One Electron Energy:        -1565.23542106 Eh          -42592.22115 eV
Two Electron Energy:          598.31050603 Eh           16280.85657 eV

Virial components:
Potential Energy   :        -1150.73642290 Eh          -31313.13000 eV
Kinetic Energy     :          575.13115751 Eh           15650.11443 eV
Virial Ratio       :            2.00082435


---------------
SCF CONVERGENCE
---------------

  Last Energy change         ...   -5.5695e-10  Tolerance :   1.0000e-08
  Last MAX-Density change    ...    2.9842e-06  Tolerance :   1.0000e-07
  Last RMS-Density change    ...    5.9472e-08  Tolerance :   5.0000e-09
  Last Orbital Gradient      ...    1.1708e-06  Tolerance :   1.0000e-05
  Last Orbital Rotation      ...    2.7111e-06  Tolerance :   1.0000e-05

             **** THE GBW FILE WAS UPDATED (cyclohexylphosphine_ax.gbw) ****
             **** DENSITY FILE WAS UPDATED (cyclohexylphosphine_ax.scfp.tmp) ****
             **** ENERGY FILE WAS UPDATED (cyclohexylphosphine_ax.en.tmp) ****
----------------
ORBITAL ENERGIES
----------------

  NO   OCC          E(Eh)            E(eV) 
   0   2.0000     -79.931175     -2175.0379 
   1   2.0000     -11.237000      -305.7743 
   2   2.0000     -11.224807      -305.4425 
   3   2.0000     -11.224784      -305.4419 
   4   2.0000     -11.218286      -305.2651 
   5   2.0000     -11.217923      -305.2552 
   6   2.0000     -11.217442      -305.2421 
   7   2.0000      -7.473406      -203.3617 
   8   2.0000      -5.367066      -146.0453 
   9   2.0000      -5.366736      -146.0363 
  10   2.0000      -5.365790      -146.0106 
  11   2.0000      -1.114063       -30.3152 
  12   2.0000      -1.008017       -27.4295 
  13   2.0000      -1.003078       -27.2951 
  14   2.0000      -0.859298       -23.3827 
  15   2.0000      -0.832429       -22.6515 
  16   2.0000      -0.797900       -21.7120 
  17   2.0000      -0.718774       -19.5588 
  18   2.0000      -0.649746       -17.6805 
  19   2.0000      -0.613984       -16.7073 
  20   2.0000      -0.603024       -16.4091 
  21   2.0000      -0.577875       -15.7248 
  22   2.0000      -0.531904       -14.4739 
  23   2.0000      -0.531803       -14.4711 
  24   2.0000      -0.526876       -14.3370 
  25   2.0000      -0.497828       -13.5466 
  26   2.0000      -0.477236       -12.9863 
  27   2.0000      -0.467506       -12.7215 
  28   2.0000      -0.443000       -12.0546 
  29   2.0000      -0.430814       -11.7230 
  30   2.0000      -0.427333       -11.6283 
  31   2.0000      -0.350306        -9.5323 
  32   0.0000       0.124615         3.3910 
  33   0.0000       0.153456         4.1757 
  34   0.0000       0.154037         4.1916 
  35   0.0000       0.161136         4.3847 
  36   0.0000       0.173893         4.7319 
  37   0.0000       0.179435         4.8827 
  38   0.0000       0.199993         5.4421 
  39   0.0000       0.210803         5.7362 
  40   0.0000       0.212058         5.7704 
  41   0.0000       0.219878         5.9832 
  42   0.0000       0.220872         6.0102 
  43   0.0000       0.232264         6.3202 
  44   0.0000       0.254382         6.9221 
  45   0.0000       0.271543         7.3891 
  46   0.0000       0.306233         8.3330 
  47   0.0000       0.314345         8.5538 
  48   0.0000       0.322958         8.7881 
  49   0.0000       0.339198         9.2300 
  50   0.0000       0.371082        10.0977 
  51   0.0000       0.374578        10.1928 
  52   0.0000       0.389007        10.5854 
  53   0.0000       0.398073        10.8321 
  54   0.0000       0.403187        10.9713 
  55   0.0000       0.410561        11.1719 
  56   0.0000       0.425046        11.5661 
  57   0.0000       0.431196        11.7334 
  58   0.0000       0.437044        11.8926 
  59   0.0000       0.439736        11.9658 
  60   0.0000       0.447215        12.1693 
  61   0.0000       0.476907        12.9773 
  62   0.0000       0.507477        13.8091 
  63   0.0000       0.524224        14.2649 
  64   0.0000       0.534080        14.5330 
  65   0.0000       0.545278        14.8378 
  66   0.0000       0.564195        15.3525 
  67   0.0000       0.586942        15.9715 
  68   0.0000       0.593340        16.1456 
  69   0.0000       0.593485        16.1495 
  70   0.0000       0.604107        16.4386 
  71   0.0000       0.617499        16.8030 
  72   0.0000       0.619713        16.8633 
  73   0.0000       0.621411        16.9095 
  74   0.0000       0.633226        17.2310 
  75   0.0000       0.640889        17.4395 
  76   0.0000       0.647268        17.6131 
  77   0.0000       0.652115        17.7450 
  78   0.0000       0.667587        18.1660 
  79   0.0000       0.679423        18.4880 
  80   0.0000       0.685979        18.6664 
  81   0.0000       0.688841        18.7443 
  82   0.0000       0.693662        18.8755 
  83   0.0000       0.699886        19.0449 
  84   0.0000       0.707214        19.2443 
  85   0.0000       0.731783        19.9128 
  86   0.0000       0.750435        20.4204 
  87   0.0000       0.789025        21.4705 
  88   0.0000       0.813984        22.1496 
  89   0.0000       0.823559        22.4102 
  90   0.0000       0.842291        22.9199 
  91   0.0000       0.851409        23.1680 
  92   0.0000       0.863965        23.5097 
  93   0.0000       0.886128        24.1128 
  94   0.0000       0.891705        24.2645 
  95   0.0000       0.948391        25.8070 
  96   0.0000       0.969658        26.3857 
  97   0.0000       0.982636        26.7389 
  98   0.0000       0.993199        27.0263 
  99   0.0000       1.007062        27.4035 
 100   0.0000       1.025755        27.9122 
 101   0.0000       1.030066        28.0295 
 102   0.0000       1.039479        28.2857 
 103   0.0000       1.076818        29.3017 
 104   0.0000       1.085849        29.5474 
 105   0.0000       1.099113        29.9084 
 106   0.0000       1.120930        30.5020 
 107   0.0000       1.132216        30.8092 
 108   0.0000       1.162703        31.6388 
 109   0.0000       1.172192        31.8970 
 110   0.0000       1.183178        32.1959 
 111   0.0000       1.187301        32.3081 
 112   0.0000       1.207820        32.8665 
 113   0.0000       1.213928        33.0327 
 114   0.0000       1.226662        33.3792 
 115   0.0000       1.240394        33.7528 
 116   0.0000       1.256134        34.1811 
 117   0.0000       1.282565        34.9004 
 118   0.0000       1.284159        34.9437 
 119   0.0000       1.303261        35.4635 
 120   0.0000       1.310101        35.6497 
 121   0.0000       1.327905        36.1341 
 122   0.0000       1.334090        36.3024 
 123   0.0000       1.344427        36.5837 
 124   0.0000       1.363403        37.1001 
 125   0.0000       1.364403        37.1273 
 126   0.0000       1.380668        37.5699 
 127   0.0000       1.388061        37.7711 
 128   0.0000       1.389017        37.7971 
 129   0.0000       1.408690        38.3324 
 130   0.0000       1.409122        38.3442 
 131   0.0000       1.412706        38.4417 
 132   0.0000       1.420646        38.6577 
 133   0.0000       1.459158        39.7057 
 134   0.0000       1.467118        39.9223 
 135   0.0000       1.468347        39.9558 
 136   0.0000       1.494049        40.6551 
 137   0.0000       1.495863        40.7045 
 138   0.0000       1.501813        40.8664 
 139   0.0000       1.532285        41.6956 
 140   0.0000       1.543445        41.9993 
 141   0.0000       1.565023        42.5864 
 142   0.0000       1.570506        42.7356 
 143   0.0000       1.583740        43.0957 
 144   0.0000       1.583897        43.1000 
 145   0.0000       1.608687        43.7746 
 146   0.0000       1.622024        44.1375 
 147   0.0000       1.630373        44.3647 
 148   0.0000       1.641916        44.6788 
 149   0.0000       1.651342        44.9353 
 150   0.0000       1.675793        45.6006 
 151   0.0000       1.689997        45.9872 
 152   0.0000       1.701433        46.2984 
 153   0.0000       1.704841        46.3911 
 154   0.0000       1.721457        46.8432 
 155   0.0000       1.728548        47.0362 
 156   0.0000       1.731179        47.1078 
 157   0.0000       1.766025        48.0560 
 158   0.0000       1.771642        48.2088 
 159   0.0000       1.788734        48.6739 
 160   0.0000       1.798528        48.9404 
 161   0.0000       1.834133        49.9093 
 162   0.0000       1.848958        50.3127 
 163   0.0000       1.862522        50.6818 
 164   0.0000       1.877089        51.0782 
 165   0.0000       1.891200        51.4622 
 166   0.0000       1.919570        52.2341 
 167   0.0000       1.925363        52.3918 
 168   0.0000       1.949264        53.0422 
 169   0.0000       1.957429        53.2644 
 170   0.0000       1.974175        53.7200 
 171   0.0000       2.026064        55.1320 
 172   0.0000       2.070420        56.3390 
 173   0.0000       2.072655        56.3998 
 174   0.0000       2.102076        57.2004 
 175   0.0000       2.106150        57.3113 
 176   0.0000       2.159351        58.7589 
 177   0.0000       2.229143        60.6581 
 178   0.0000       2.292309        62.3769 
 179   0.0000       2.533712        68.9458 
 180   0.0000       2.595486        70.6268 
 181   0.0000       2.623439        71.3874 
 182   0.0000       2.624590        71.4187 
 183   0.0000       2.663175        72.4687 
 184   0.0000       2.692736        73.2731 
 185   0.0000       2.706499        73.6476 
 186   0.0000       2.751495        74.8720 
 187   0.0000       2.755311        74.9758 
 188   0.0000       2.782614        75.7188 
 189   0.0000       2.797672        76.1285 
 190   0.0000       2.827393        76.9373 
 191   0.0000       2.834214        77.1229 
 192   0.0000       2.840075        77.2824 
 193   0.0000       2.853764        77.6549 
 194   0.0000       2.875439        78.2447 
 195   0.0000       2.876196        78.2653 
 196   0.0000       2.904515        79.0359 
 197   0.0000       2.910617        79.2019 
 198   0.0000       2.919576        79.4457 
 199   0.0000       2.925267        79.6006 
 200   0.0000       2.938687        79.9657 
 201   0.0000       2.960944        80.5714 
 202   0.0000       2.985705        81.2452 
 203   0.0000       2.985751        81.2464 
 204   0.0000       3.004795        81.7646 
 205   0.0000       3.005916        81.7951 
 206   0.0000       3.021353        82.2152 
 207   0.0000       3.026438        82.3536 
 208   0.0000       3.036103        82.6166 
 209   0.0000       3.050636        83.0120 
 210   0.0000       3.053497        83.0899 
 211   0.0000       3.117584        84.8338 
 212   0.0000       3.135239        85.3142 
 213   0.0000       3.154952        85.8506 
 214   0.0000       3.164983        86.1236 
 215   0.0000       3.198542        87.0368 
 216   0.0000       3.201075        87.1057 
 217   0.0000       3.219269        87.6008 
 218   0.0000       3.260183        88.7141 
 219   0.0000       3.263397        88.8015 
 220   0.0000       3.303082        89.8814 
 221   0.0000       3.306870        89.9845 
 222   0.0000       3.337837        90.8271 
 223   0.0000       3.359435        91.4149 
 224   0.0000       3.363726        91.5316 
 225   0.0000       3.389145        92.2233 
 226   0.0000       3.390321        92.2553 
 227   0.0000       3.435485        93.4843 
 228   0.0000       3.437177        93.5303 
 229   0.0000       3.448529        93.8392 
 230   0.0000       3.448646        93.8424 
 231   0.0000       3.454463        94.0007 
 232   0.0000       3.464674        94.2786 
 233   0.0000       3.474031        94.5332 
 234   0.0000       3.479547        94.6833 
 235   0.0000       3.488742        94.9335 
 236   0.0000       3.489419        94.9519 
 237   0.0000       3.492466        95.0348 
 238   0.0000       3.511710        95.5585 
 239   0.0000       3.529769        96.0499 
 240   0.0000       3.537965        96.2729 
 241   0.0000       3.545409        96.4755 
 242   0.0000       3.557288        96.7987 
 243   0.0000       3.564216        96.9873 
 244   0.0000       3.585546        97.5677 
 245   0.0000       3.589891        97.6859 
 246   0.0000       3.610330        98.2421 
 247   0.0000       3.615292        98.3771 
 248   0.0000       3.634318        98.8948 
 249   0.0000       3.667119        99.7874 
 250   0.0000       3.679038       100.1117 
 251   0.0000       3.683055       100.2210 
 252   0.0000       3.710545       100.9691 
 253   0.0000       3.715937       101.1158 
 254   0.0000       3.727621       101.4337 
 255   0.0000       3.730328       101.5074 
 256   0.0000       3.750321       102.0514 
 257   0.0000       3.755063       102.1805 
 258   0.0000       3.807815       103.6159 
 259   0.0000       3.823592       104.0452 
 260   0.0000       3.830300       104.2278 
 261   0.0000       3.835588       104.3717 
 262   0.0000       3.864987       105.1716 
 263   0.0000       3.872699       105.3815 
 264   0.0000       3.876230       105.4776 
 265   0.0000       3.899716       106.1167 
 266   0.0000       3.929347       106.9230 
 267   0.0000       3.930716       106.9602 
 268   0.0000       3.947255       107.4103 
 269   0.0000       3.960525       107.7714 
 270   0.0000       3.969240       108.0085 
 271   0.0000       3.989845       108.5692 
 272   0.0000       4.006939       109.0344 
 273   0.0000       4.007500       109.0496 
 274   0.0000       4.029243       109.6413 
 275   0.0000       4.031687       109.7078 
 276   0.0000       4.045459       110.0825 
 277   0.0000       4.053949       110.3136 
 278   0.0000       4.076116       110.9167 
 279   0.0000       4.097643       111.5025 
 280   0.0000       4.099811       111.5615 
 281   0.0000       4.106924       111.7551 
 282   0.0000       4.112047       111.8945 
 283   0.0000       4.118642       112.0739 
 284   0.0000       4.138541       112.6154 
 285   0.0000       4.155563       113.0786 
 286   0.0000       4.173662       113.5711 
 287   0.0000       4.193968       114.1237 
 288   0.0000       4.213341       114.6508 
 289   0.0000       4.222703       114.9056 
 290   0.0000       4.235575       115.2558 
 291   0.0000       4.244734       115.5051 
 292   0.0000       4.255975       115.8110 
 293   0.0000       4.263979       116.0288 
 294   0.0000       4.273305       116.2825 
 295   0.0000       4.302511       117.0773 
 296   0.0000       4.315148       117.4211 
 297   0.0000       4.331870       117.8762 
 298   0.0000       4.344280       118.2139 
 299   0.0000       4.349725       118.3620 
 300   0.0000       4.360122       118.6450 
 301   0.0000       4.364613       118.7672 
 302   0.0000       4.367505       118.8458 
 303   0.0000       4.378957       119.1575 
 304   0.0000       4.394970       119.5932 
 305   0.0000       4.425362       120.4202 
 306   0.0000       4.447687       121.0277 
 307   0.0000       4.448796       121.0579 
 308   0.0000       4.456734       121.2739 
 309   0.0000       4.463283       121.4521 
 310   0.0000       4.465883       121.5229 
 311   0.0000       4.499364       122.4339 
 312   0.0000       4.509333       122.7052 
 313   0.0000       4.514707       122.8514 
 314   0.0000       4.522336       123.0590 
 315   0.0000       4.528365       123.2231 
 316   0.0000       4.539348       123.5219 
 317   0.0000       4.575784       124.5134 
 318   0.0000       4.585879       124.7881 
 319   0.0000       4.609922       125.4424 
 320   0.0000       4.610513       125.4584 
 321   0.0000       4.619605       125.7058 
 322   0.0000       4.631216       126.0218 
 323   0.0000       4.649188       126.5108 
 324   0.0000       4.657710       126.7427 
 325   0.0000       4.679856       127.3454 
 326   0.0000       4.697026       127.8126 
 327   0.0000       4.698558       127.8543 
 328   0.0000       4.717251       128.3629 
 329   0.0000       4.730127       128.7133 
 330   0.0000       4.750003       129.2542 
 331   0.0000       4.773428       129.8916 
 332   0.0000       4.832654       131.5032 
 333   0.0000       4.836436       131.6061 
 334   0.0000       4.854064       132.0858 
 335   0.0000       4.888652       133.0270 
 336   0.0000       4.896051       133.2283 
 337   0.0000       4.928314       134.1063 
 338   0.0000       4.979949       135.5113 
 339   0.0000       5.010458       136.3415 
 340   0.0000       5.038196       137.0963 
 341   0.0000       5.087324       138.4331 
 342   0.0000       5.094417       138.6261 
 343   0.0000       5.115781       139.2075 
 344   0.0000       5.116510       139.2273 
 345   0.0000       5.135325       139.7393 
 346   0.0000       5.163832       140.5150 
 347   0.0000       5.169268       140.6629 
 348   0.0000       5.190515       141.2411 
 349   0.0000       5.209453       141.7564 
 350   0.0000       5.256974       143.0495 
 351   0.0000       5.307187       144.4159 
 352   0.0000       5.309734       144.4852 
 353   0.0000       5.335751       145.1932 
 354   0.0000       5.338353       145.2640 
 355   0.0000       5.365889       146.0133 
 356   0.0000       5.371524       146.1666 
 357   0.0000       5.392486       146.7370 
 358   0.0000       5.414104       147.3253 
 359   0.0000       5.419157       147.4628 
 360   0.0000       5.422256       147.5471 
 361   0.0000       5.448032       148.2485 
 362   0.0000       5.505159       149.8030 
 363   0.0000       5.531914       150.5310 
 364   0.0000       5.557429       151.2253 
 365   0.0000       5.621085       152.9575 
 366   0.0000       5.635046       153.3374 
 367   0.0000       5.655535       153.8949 
 368   0.0000       5.671983       154.3425 
 369   0.0000       5.713566       155.4740 
 370   0.0000       5.747136       156.3875 
 371   0.0000       5.768879       156.9792 
 372   0.0000       5.806405       158.0003 
 373   0.0000       5.807647       158.0341 
 374   0.0000       5.828400       158.5988 
 375   0.0000       5.841727       158.9615 
 376   0.0000       5.861465       159.4986 
 377   0.0000       5.897372       160.4757 
 378   0.0000       5.913610       160.9175 
 379   0.0000       5.967836       162.3931 
 380   0.0000       5.992050       163.0520 
 381   0.0000       6.106051       166.1541 
 382   0.0000       6.117231       166.4583 
 383   0.0000       6.174177       168.0079 
 384   0.0000       6.243032       169.8815 
 385   0.0000       6.387763       173.8199 
 386   0.0000       6.410326       174.4338 
 387   0.0000       6.456271       175.6841 
 388   0.0000       6.487107       176.5231 
 389   0.0000       6.488655       176.5653 
 390   0.0000      11.949253       325.1557 
 391   0.0000      12.828644       349.0851 
 392   0.0000      13.188673       358.8820 
 393   0.0000      13.359893       363.5412 
 394   0.0000      13.504310       367.4710 
 395   0.0000      13.520820       367.9202 

                    ********************************
                    * MULLIKEN POPULATION ANALYSIS *
                    ********************************

-----------------------
MULLIKEN ATOMIC CHARGES
-----------------------
   0 C :   -0.166502
   1 C :   -0.212187
   2 C :   -0.197409
   3 C :   -0.190954
   4 C :   -0.197404
   5 C :   -0.212179
   6 P :   -0.015008
   7 H :    0.112182
   8 H :    0.103211
   9 H :    0.109599
  10 H :    0.084391
  11 H :    0.103197
  12 H :    0.112182
  13 H :    0.098653
  14 H :    0.117050
  15 H :    0.117050
  16 H :    0.098654
  17 H :    0.130184
  18 H :    0.002647
  19 H :    0.002642
Sum of atomic charges:    0.0000000

--------------------------------
MULLIKEN REDUCED ORBITAL CHARGES
--------------------------------
  0 C s       :     3.194279  s :     3.194279
      pz      :     1.020988  p :     2.840910
      px      :     0.916556
      py      :     0.903367
      dz2     :     0.023182  d :     0.124728
      dxz     :     0.036727
      dyz     :     0.015376
      dx2y2   :     0.024646
      dxy     :     0.024797
      f0      :     0.000708  f :     0.006585
      f+1     :     0.001304
      f-1     :     0.000508
      f+2     :     0.000374
      f-2     :     0.000951
      f+3     :     0.001388
      f-3     :     0.001351
  1 C s       :     3.223265  s :     3.223265
      pz      :     0.967397  p :     2.862454
      px      :     0.941413
      py      :     0.953645
      dz2     :     0.028244  d :     0.119675
      dxz     :     0.028409
      dyz     :     0.011016
      dx2y2   :     0.018950
      dxy     :     0.033056
      f0      :     0.000744  f :     0.006793
      f+1     :     0.001786
      f-1     :     0.000532
      f+2     :     0.000550
      f-2     :     0.000892
      f+3     :     0.001319
      f-3     :     0.000970
  2 C s       :     3.214341  s :     3.214341
      pz      :     0.958493  p :     2.862740
      px      :     0.942054
      py      :     0.962193
      dz2     :     0.027580  d :     0.113677
      dxz     :     0.028603
      dyz     :     0.010119
      dx2y2   :     0.017453
      dxy     :     0.029923
      f0      :     0.000743  f :     0.006651
      f+1     :     0.001783
      f-1     :     0.000490
      f+2     :     0.000569
      f-2     :     0.000836
      f+3     :     0.001323
      f-3     :     0.000907
  3 C s       :     3.215112  s :     3.215112
      pz      :     1.019865  p :     2.855244
      px      :     0.953951
      py      :     0.881428
      dz2     :     0.016420  d :     0.113926
      dxz     :     0.037312
      dyz     :     0.013594
      dx2y2   :     0.022406
      dxy     :     0.024194
      f0      :     0.000548  f :     0.006672
      f+1     :     0.001567
      f-1     :     0.000659
      f+2     :     0.000203
      f-2     :     0.000867
      f+3     :     0.001534
      f-3     :     0.001294
  4 C s       :     3.214342  s :     3.214342
      pz      :     0.958484  p :     2.862734
      px      :     0.942056
      py      :     0.962194
      dz2     :     0.027580  d :     0.113677
      dxz     :     0.028603
      dyz     :     0.010120
      dx2y2   :     0.017453
      dxy     :     0.029923
      f0      :     0.000743  f :     0.006651
      f+1     :     0.001783
      f-1     :     0.000490
      f+2     :     0.000569
      f-2     :     0.000836
      f+3     :     0.001323
      f-3     :     0.000907
  5 C s       :     3.223261  s :     3.223261
      pz      :     0.967393  p :     2.862447
      px      :     0.941410
      py      :     0.953644
      dz2     :     0.028245  d :     0.119677
      dxz     :     0.028410
      dyz     :     0.011015
      dx2y2   :     0.018952
      dxy     :     0.033055
      f0      :     0.000744  f :     0.006793
      f+1     :     0.001786
      f-1     :     0.000532
      f+2     :     0.000550
      f-2     :     0.000892
      f+3     :     0.001319
      f-3     :     0.000970
  6 P s       :     5.623203  s :     5.623203
      pz      :     3.415937  p :     9.152137
      px      :     2.869313
      py      :     2.866888
      dz2     :     0.025138  d :     0.219754
      dxz     :     0.058392
      dyz     :     0.035723
      dx2y2   :     0.014476
      dxy     :     0.086025
      f0      :     0.003631  f :     0.019915
      f+1     :     0.002404
      f-1     :     0.000696
      f+2     :     0.002616
      f-2     :     0.006487
      f+3     :     0.002841
      f-3     :     0.001239
  7 H s       :     0.857246  s :     0.857246
      pz      :     0.007927  p :     0.028129
      px      :     0.008816
      py      :     0.011386
      dz2     :     0.000214  d :     0.002443
      dxz     :     0.000333
      dyz     :     0.000430
      dx2y2   :     0.000887
      dxy     :     0.000579
  8 H s       :     0.865791  s :     0.865791
      pz      :     0.011816  p :     0.028559
      px      :     0.008752
      py      :     0.007991
      dz2     :     0.000876  d :     0.002438
      dxz     :     0.000616
      dyz     :     0.000529
      dx2y2   :     0.000130
      dxy     :     0.000287
  9 H s       :     0.859376  s :     0.859376
      pz      :     0.007956  p :     0.028586
      px      :     0.011453
      py      :     0.009176
      dz2     :     0.000559  d :     0.002439
      dxz     :     0.000614
      dyz     :     0.000516
      dx2y2   :     0.000225
      dxy     :     0.000525
 10 H s       :     0.885453  s :     0.885453
      pz      :     0.008274  p :     0.027737
      px      :     0.010612
      py      :     0.008851
      dz2     :     0.000595  d :     0.002419
      dxz     :     0.000603
      dyz     :     0.000545
      dx2y2   :     0.000208
      dxy     :     0.000468
 11 H s       :     0.865806  s :     0.865806
      pz      :     0.011816  p :     0.028559
      px      :     0.008752
      py      :     0.007991
      dz2     :     0.000876  d :     0.002438
      dxz     :     0.000616
      dyz     :     0.000529
      dx2y2   :     0.000130
      dxy     :     0.000287
 12 H s       :     0.857247  s :     0.857247
      pz      :     0.007927  p :     0.028129
      px      :     0.008816
      py      :     0.011386
      dz2     :     0.000214  d :     0.002442
      dxz     :     0.000333
      dyz     :     0.000430
      dx2y2   :     0.000887
      dxy     :     0.000579
 13 H s       :     0.871834  s :     0.871834
      pz      :     0.010849  p :     0.027080
      px      :     0.008519
      py      :     0.007712
      dz2     :     0.000872  d :     0.002433
      dxz     :     0.000620
      dyz     :     0.000506
      dx2y2   :     0.000136
      dxy     :     0.000299
 14 H s       :     0.852183  s :     0.852183
      pz      :     0.007857  p :     0.028374
      px      :     0.008448
      py      :     0.012070
      dz2     :     0.000209  d :     0.002393
      dxz     :     0.000332
      dyz     :     0.000436
      dx2y2   :     0.000857
      dxy     :     0.000559
 15 H s       :     0.852183  s :     0.852183
      pz      :     0.007856  p :     0.028374
      px      :     0.008448
      py      :     0.012069
      dz2     :     0.000209  d :     0.002393
      dxz     :     0.000332
      dyz     :     0.000436
      dx2y2   :     0.000857
      dxy     :     0.000559
 16 H s       :     0.871833  s :     0.871833
      pz      :     0.010849  p :     0.027081
      px      :     0.008520
      py      :     0.007712
      dz2     :     0.000872  d :     0.002433
      dxz     :     0.000620
      dyz     :     0.000506
      dx2y2   :     0.000136
      dxy     :     0.000299
 17 H s       :     0.831567  s :     0.831567
      pz      :     0.014598  p :     0.035378
      px      :     0.010563
      py      :     0.010218
      dz2     :     0.000854  d :     0.002870
      dxz     :     0.000687
      dyz     :     0.000701
      dx2y2   :     0.000161
      dxy     :     0.000467
 18 H s       :     0.972723  s :     0.972723
      pz      :     0.006344  p :     0.023525
      px      :     0.007209
      py      :     0.009972
      dz2     :     0.000219  d :     0.001105
      dxz     :     0.000120
      dyz     :     0.000167
      dx2y2   :     0.000270
      dxy     :     0.000328
 19 H s       :     0.972728  s :     0.972728
      pz      :     0.006343  p :     0.023525
      px      :     0.007207
      py      :     0.009975
      dz2     :     0.000219  d :     0.001105
      dxz     :     0.000120
      dyz     :     0.000167
      dx2y2   :     0.000271
      dxy     :     0.000328


                     *******************************
                     * LOEWDIN POPULATION ANALYSIS *
                     *******************************

----------------------
LOEWDIN ATOMIC CHARGES
----------------------
   0 C :   -0.116377
   1 C :    0.040580
   2 C :    0.056184
   3 C :    0.057029
   4 C :    0.056176
   5 C :    0.040571
   6 P :    0.424932
   7 H :   -0.026561
   8 H :   -0.029235
   9 H :   -0.026614
  10 H :   -0.027807
  11 H :   -0.029226
  12 H :   -0.026559
  13 H :   -0.024031
  14 H :   -0.027275
  15 H :   -0.027269
  16 H :   -0.024032
  17 H :   -0.040462
  18 H :   -0.125012
  19 H :   -0.125012

-------------------------------
LOEWDIN REDUCED ORBITAL CHARGES
-------------------------------
  0 C s       :     2.704412  s :     2.704412
      pz      :     0.998409  p :     2.900676
      px      :     0.956607
      py      :     0.945661
      dz2     :     0.086816  d :     0.471104
      dxz     :     0.126650
      dyz     :     0.054656
      dx2y2   :     0.097474
      dxy     :     0.105508
      f0      :     0.005063  f :     0.040184
      f+1     :     0.005303
      f-1     :     0.003830
      f+2     :     0.003714
      f-2     :     0.006268
      f+3     :     0.006010
      f-3     :     0.009995
  1 C s       :     2.661460  s :     2.661460
      pz      :     0.949205  p :     2.827128
      px      :     0.941426
      py      :     0.936497
      dz2     :     0.099175  d :     0.430936
      dxz     :     0.106256
      dyz     :     0.042130
      dx2y2   :     0.065396
      dxy     :     0.117978
      f0      :     0.005291  f :     0.039896
      f+1     :     0.006404
      f-1     :     0.005008
      f+2     :     0.005419
      f-2     :     0.005767
      f+3     :     0.006117
      f-3     :     0.005891
  2 C s       :     2.659458  s :     2.659458
      pz      :     0.946251  p :     2.823765
      px      :     0.939420
      py      :     0.938094
      dz2     :     0.099283  d :     0.420931
      dxz     :     0.104647
      dyz     :     0.041300
      dx2y2   :     0.064265
      dxy     :     0.111437
      f0      :     0.005473  f :     0.039662
      f+1     :     0.006311
      f-1     :     0.004880
      f+2     :     0.005393
      f-2     :     0.005773
      f+3     :     0.006014
      f-3     :     0.005818
  3 C s       :     2.660213  s :     2.660213
      pz      :     0.971154  p :     2.819549
      px      :     0.936096
      py      :     0.912300
      dz2     :     0.058857  d :     0.423414
      dxz     :     0.123398
      dyz     :     0.048287
      dx2y2   :     0.092360
      dxy     :     0.100512
      f0      :     0.003635  f :     0.039796
      f+1     :     0.005467
      f-1     :     0.004686
      f+2     :     0.004576
      f-2     :     0.005659
      f+3     :     0.006309
      f-3     :     0.009464
  4 C s       :     2.659461  s :     2.659461
      pz      :     0.946247  p :     2.823764
      px      :     0.939421
      py      :     0.938096
      dz2     :     0.099282  d :     0.420936
      dxz     :     0.104648
      dyz     :     0.041302
      dx2y2   :     0.064266
      dxy     :     0.111438
      f0      :     0.005473  f :     0.039662
      f+1     :     0.006311
      f-1     :     0.004880
      f+2     :     0.005393
      f-2     :     0.005773
      f+3     :     0.006014
      f-3     :     0.005818
  5 C s       :     2.661455  s :     2.661455
      pz      :     0.949205  p :     2.827129
      px      :     0.941426
      py      :     0.936499
      dz2     :     0.099179  d :     0.430947
      dxz     :     0.106259
      dyz     :     0.042130
      dx2y2   :     0.065401
      dxy     :     0.117978
      f0      :     0.005291  f :     0.039898
      f+1     :     0.006404
      f-1     :     0.005008
      f+2     :     0.005419
      f-2     :     0.005767
      f+3     :     0.006117
      f-3     :     0.005891
  6 P s       :     5.154840  s :     5.154840
      pz      :     3.361963  p :     9.023091
      px      :     2.830419
      py      :     2.830709
      dz2     :     0.060134  d :     0.343155
      dxz     :     0.084967
      dyz     :     0.043876
      dx2y2   :     0.025219
      dxy     :     0.128958
      f0      :     0.009858  f :     0.053981
      f+1     :     0.007879
      f-1     :     0.001686
      f+2     :     0.007269
      f-2     :     0.016049
      f+3     :     0.008201
      f-3     :     0.003040
  7 H s       :     0.845334  s :     0.845334
      pz      :     0.039786  p :     0.153209
      px      :     0.050829
      py      :     0.062593
      dz2     :     0.002505  d :     0.028018
      dxz     :     0.003878
      dyz     :     0.005399
      dx2y2   :     0.008728
      dxy     :     0.007508
  8 H s       :     0.846419  s :     0.846419
      pz      :     0.066408  p :     0.154660
      px      :     0.049332
      py      :     0.038920
      dz2     :     0.009217  d :     0.028156
      dxz     :     0.007808
      dyz     :     0.006419
      dx2y2   :     0.001654
      dxy     :     0.003059
  9 H s       :     0.845864  s :     0.845864
      pz      :     0.060104  p :     0.152790
      px      :     0.052818
      py      :     0.039867
      dz2     :     0.008537  d :     0.027961
      dxz     :     0.007542
      dyz     :     0.005018
      dx2y2   :     0.002713
      dxy     :     0.004150
 10 H s       :     0.848169  s :     0.848169
      pz      :     0.062413  p :     0.151659
      px      :     0.050279
      py      :     0.038966
      dz2     :     0.008596  d :     0.027979
      dxz     :     0.007715
      dyz     :     0.005475
      dx2y2   :     0.002416
      dxy     :     0.003778
 11 H s       :     0.846420  s :     0.846420
      pz      :     0.066405  p :     0.154652
      px      :     0.049329
      py      :     0.038918
      dz2     :     0.009216  d :     0.028154
      dxz     :     0.007807
      dyz     :     0.006418
      dx2y2   :     0.001654
      dxy     :     0.003058
 12 H s       :     0.845335  s :     0.845335
      pz      :     0.039785  p :     0.153207
      px      :     0.050829
      py      :     0.062593
      dz2     :     0.002505  d :     0.028017
      dxz     :     0.003878
      dyz     :     0.005399
      dx2y2   :     0.008728
      dxy     :     0.007508
 13 H s       :     0.843152  s :     0.843152
      pz      :     0.065418  p :     0.152711
      px      :     0.048643
      py      :     0.038650
      dz2     :     0.009234  d :     0.028168
      dxz     :     0.007764
      dyz     :     0.006146
      dx2y2   :     0.001786
      dxy     :     0.003239
 14 H s       :     0.846254  s :     0.846254
      pz      :     0.039824  p :     0.153003
      px      :     0.050229
      py      :     0.062949
      dz2     :     0.002452  d :     0.028018
      dxz     :     0.003810
      dyz     :     0.005539
      dx2y2   :     0.008682
      dxy     :     0.007536
 15 H s       :     0.846253  s :     0.846253
      pz      :     0.039823  p :     0.152999
      px      :     0.050227
      py      :     0.062949
      dz2     :     0.002452  d :     0.028017
      dxz     :     0.003809
      dyz     :     0.005539
      dx2y2   :     0.008681
      dxy     :     0.007536
 16 H s       :     0.843149  s :     0.843149
      pz      :     0.065419  p :     0.152714
      px      :     0.048644
      py      :     0.038651
      dz2     :     0.009234  d :     0.028169
      dxz     :     0.007764
      dyz     :     0.006147
      dx2y2   :     0.001786
      dxy     :     0.003239
 17 H s       :     0.842770  s :     0.842770
      pz      :     0.074300  p :     0.167955
      px      :     0.052448
      py      :     0.041207
      dz2     :     0.009777  d :     0.029738
      dxz     :     0.008500
      dyz     :     0.006510
      dx2y2   :     0.001784
      dxy     :     0.003167
 18 H s       :     0.988985  s :     0.988985
      pz      :     0.044680  p :     0.124349
      px      :     0.036181
      py      :     0.043488
      dz2     :     0.001553  d :     0.011678
      dxz     :     0.002053
      dyz     :     0.002681
      dx2y2   :     0.002374
      dxy     :     0.003018
 19 H s       :     0.988987  s :     0.988987
      pz      :     0.044671  p :     0.124347
      px      :     0.036172
      py      :     0.043504
      dz2     :     0.001552  d :     0.011678
      dxz     :     0.002051
      dyz     :     0.002682
      dx2y2   :     0.002374
      dxy     :     0.003019


                      *****************************
                      * MAYER POPULATION ANALYSIS *
                      *****************************

  NA   - Mulliken gross atomic population
  ZA   - Total nuclear charge
  QA   - Mulliken gross atomic charge
  VA   - Mayer's total valence
  BVA  - Mayer's bonded valence
  FA   - Mayer's free valence

  ATOM       NA         ZA         QA         VA         BVA        FA
  0 C      6.1665     6.0000    -0.1665     3.8369     3.8369    -0.0000
  1 C      6.2122     6.0000    -0.2122     3.8606     3.8606     0.0000
  2 C      6.1974     6.0000    -0.1974     3.8476     3.8476     0.0000
  3 C      6.1910     6.0000    -0.1910     3.8651     3.8651     0.0000
  4 C      6.1974     6.0000    -0.1974     3.8476     3.8476     0.0000
  5 C      6.2122     6.0000    -0.2122     3.8606     3.8606     0.0000
  6 P     15.0150    15.0000    -0.0150     3.0072     3.0072    -0.0000
  7 H      0.8878     1.0000     0.1122     0.9778     0.9778     0.0000
  8 H      0.8968     1.0000     0.1032     0.9849     0.9849     0.0000
  9 H      0.8904     1.0000     0.1096     0.9793     0.9793    -0.0000
 10 H      0.9156     1.0000     0.0844     0.9850     0.9850     0.0000
 11 H      0.8968     1.0000     0.1032     0.9849     0.9849     0.0000
 12 H      0.8878     1.0000     0.1122     0.9778     0.9778     0.0000
 13 H      0.9013     1.0000     0.0987     0.9810     0.9810    -0.0000
 14 H      0.8830     1.0000     0.1170     0.9767     0.9767     0.0000
 15 H      0.8829     1.0000     0.1171     0.9767     0.9767    -0.0000
 16 H      0.9013     1.0000     0.0987     0.9810     0.9810     0.0000
 17 H      0.8698     1.0000     0.1302     0.9781     0.9781    -0.0000
 18 H      0.9974     1.0000     0.0026     0.9910     0.9910     0.0000
 19 H      0.9974     1.0000     0.0026     0.9910     0.9910    -0.0000

  Mayer bond orders larger than 0.1
B(  0-C ,  1-C ) :   0.9405 B(  0-C ,  5-C ) :   0.9405 B(  0-C ,  6-P ) :   0.9845 
B(  0-C , 17-H ) :   0.9929 B(  1-C ,  2-C ) :   0.9445 B(  1-C , 13-H ) :   0.9833 
B(  1-C , 14-H ) :   0.9931 B(  2-C ,  3-C ) :   0.9476 B(  2-C ,  7-H ) :   0.9930 
B(  2-C ,  8-H ) :   0.9793 B(  3-C ,  4-C ) :   0.9476 B(  3-C ,  9-H ) :   0.9948 
B(  3-C , 10-H ) :   0.9859 B(  4-C ,  5-C ) :   0.9445 B(  4-C , 11-H ) :   0.9793 
B(  4-C , 12-H ) :   0.9930 B(  5-C , 15-H ) :   0.9931 B(  5-C , 16-H ) :   0.9833 
B(  6-P , 18-H ) :   0.9922 B(  6-P , 19-H ) :   0.9922 

-------
TIMINGS
-------

Total SCF time: 0 days 0 hours 0 min 38 sec 

Total time                  ....      38.005 sec
Sum of individual times     ....      37.650 sec  ( 99.1%)

Fock matrix formation       ....      36.613 sec  ( 96.3%)
Diagonalization             ....       0.239 sec  (  0.6%)
Density matrix formation    ....       0.027 sec  (  0.1%)
Population analysis         ....       0.068 sec  (  0.2%)
Initial guess               ....       0.321 sec  (  0.8%)
Orbital Transformation      ....       0.000 sec  (  0.0%)
Orbital Orthonormalization  ....       0.000 sec  (  0.0%)
DIIS solution               ....       0.000 sec  (  0.0%)
SOSCF solution              ....       0.212 sec  (  0.6%)


           ************************************************************
           *        Program running with 8 parallel MPI-processes     *
           *              working on a common directory               *
           ************************************************************


------------------------------------------------------------------------------- 
                              ORCA-MATRIX DRIVEN CI                            
------------------------------------------------------------------------------- 


Wavefunction type
-----------------
Correlation treatment                      ...      CCSD     
Single excitations                         ... ON
Orbital optimization                       ... OFF
Calculation of Z vector                    ... OFF
Calculation of Brueckner orbitals          ... OFF
Perturbative triple excitations            ... ON
Calculation of F12 correction              ... OFF
Frozen core treatment                      ... chemical core (22 el)
Reference Wavefunction                     ... RHF
  Internal Orbitals:    11 ...   31 ( 21 MO's/ 42 electrons)
  Virtual  Orbitals:    32 ...  395 (364 MO's              )
Number of AO's                             ...    396
Number of electrons                        ...     64
Number of correlated electrons             ...     42

Algorithmic settings
--------------------
Integral transformation                    ... All integrals via the RI transformation
K(C) Formation                             ... RI-DLPNO
   PNO-Integral Storage                    ... ON DISK
   PNO occupation number cut-off           ... 1.000e-07
   Singles PNO occupation number cut-off   ... 3.000e-09
   PNO Mulliken prescreening cut-off       ... 1.000e-03
   Domain cut-off (Mulliken population)    ... 1.000e-03
   PNO Normalization                       ...    1
Maximum number of iterations               ...        50
Convergence tolerance (max. residuum)      ... 1.000e-05
Level shift for amplitude update           ... 2.000e-01
Maximum number of DIIS vectors             ...         7
DIIS turned on at iteration                ...         0
Damping before turning on DIIS             ...     0.500
Damping after turning on DIIS              ...     0.000
Pair specific amplitude update             ... OFF
Natural orbital iterations                 ... OFF
Perturbative natural orbital generation    ... OFF
Printlevel                                 ... 2

Singles Fock matrix elements calculated using PNOs.

Memory handling:
----------------
Maximum memory for working arrays          ...   8000 MB
Data storage in matrix containers          ... UNCOMPRESSED
Data type for integral storage             ... DOUBLE
In-Core Storage of quantities:
   Amplitudes+Sigma Vector      ... NO
   J+K operators                ... NO
   DIIS vectors                 ... NO
   3-external integrals         ... NO
   4-external integrals         ... NO

Localization treatment:
-----------------------
Localization option                        ...    6
Localization threshhold                    ... -1.0e+00
Using relative localization threshhold     ... 1.0e-08
Neglect threshold for strong pairs         ... 1.000e-05 Eh
Prescreening threshold for very weak pairs ... 1.000e-07 Eh

Initializing the integral package          ... done
Localizing the valence orbitals
------------------------------------------------------------------------------
                           ORCA ORBITAL LOCALIZATION
------------------------------------------------------------------------------

Input orbitals are from                  ... cyclohexylphosphine_ax.proc0.gbw
Output orbitals are to                   ... cyclohexylphosphine_ax.proc0.loc
Max. number of iterations                ... 128
Localizations seeded randomly            ... off
Convergence tolerance                    ... 1.000e-06
Using relative localization threshhold   ... 1.000e-08
Treshold for strong local MOs            ... 9.500e-01
Treshold for bond MOs                    ... 8.500e-01
Operator                                 ... 0
Orbital range for localization           ... 11 to 31
Localization criterion                   ... FOSTER-BOYS (AUGMENTED HESSIAN)
Doing the dipole integrals     ... o.k.
Initial value of the localization sum :   231.662748
ITERATION   0 : L=  298.6738651080 DL=  6.70e+01 (AVERGE_DL)=    0.5648898648 
ITERATION   1 : L=  308.1233874227 DL=  9.45e+00 (AVERGE_DL)=    0.2121266728 
ITERATION   2 : L=  308.2341600824 DL=  1.11e-01 (AVERGE_DL)=    0.0229671255 
ITERATION   3 : L=  308.2343496178 DL=  1.90e-04 (AVERGE_DL)=    0.0009500259 
ITERATION   4 : L=  308.2343499412 DL=  3.23e-07 (AVERGE_DL)=    0.0000392428 
LOCALIZATION SUM CONVERGED

------------------------------------------------------
AUGMENTED HESSIAN OPTIMIZATION OF FOSTER-BOYS ORBITALS
------------------------------------------------------

Spin operator:           0
Orbital window:          11 to 31
Number of iterations:    128
Gradient tolerance:      1.000e-06
Number of pairs:         210
Davidson threshold:      2000
Diagonalization method:  LAPACK
Iter:    0   L: 308.2343499412   Grad. norm: 1.107060e-03
   *** Likely close to a maximum now. ***
       Augmented Hessian eigenvalues:  8.01e-09 -1.78e+01 -1.78e+01 -1.79e+01 ... 
Iter:    1   L: 308.2343499452   Grad. norm: 2.576226e-10
LOCALIZATION HAS CONVERGED.

Eigenvalues of the Hessian:
  0 -1.783e+01
  1 -1.784e+01
  2 -1.792e+01
  3 -1.793e+01
  4 -1.807e+01
  5 -1.836e+01
  6 -1.845e+01
  7 -1.852e+01
  8 -1.866e+01
  9 -1.869e+01
    ...


------------------------------------------------------------------------------- 
                    LOCALIZED MOLECULAR ORBITAL COMPOSITIONS                   
------------------------------------------------------------------------------- 

The Mulliken populations for each LMO on each atom are computed
The LMO`s will be ordered according to atom index and type
  (A) Strongly localized MO`s have populations of >=0.950 on one atom
  (B) Two center bond orbitals have populations of >=0.850 on two atoms
  (C) Other MO`s are considered to be `delocalized`

FOUND  -   1 strongly local MO`s
       -  20 two center bond MO`s
       -   0 significantly delocalized MO`s

Rather strongly localized orbitals:
MO  11:   6P  -   1.010475
Bond-like localized orbitals:
MO  31:  19H  -   0.509636  and   6P  -   0.504006
MO  30:  18H  -   0.509634  and   6P  -   0.504009
MO  29:  17H  -   0.449560  and   0C  -   0.586220
MO  28:  16H  -   0.469471  and   5C  -   0.559998
MO  27:  15H  -   0.458546  and   5C  -   0.576715
MO  26:  14H  -   0.458546  and   1C  -   0.576714
MO  25:  13H  -   0.469471  and   1C  -   0.559996
MO  24:  12H  -   0.461681  and   4C  -   0.572266
MO  23:  11H  -   0.465040  and   4C  -   0.560768
MO  22:  10H  -   0.476307  and   3C  -   0.552929
MO  21:   9H  -   0.462606  and   3C  -   0.571830
MO  20:   8H  -   0.465031  and   2C  -   0.560776
MO  19:   7H  -   0.461681  and   2C  -   0.572266
MO  18:   6P  -   0.501367  and   0C  -   0.525804
MO  17:   5C  -   0.522008  and   4C  -   0.508500
MO  16:   5C  -   0.503312  and   0C  -   0.524157
MO  15:   4C  -   0.518331  and   3C  -   0.513146
MO  14:   3C  -   0.513150  and   2C  -   0.518327
MO  13:   2C  -   0.508498  and   1C  -   0.522009
MO  12:   1C  -   0.503314  and   0C  -   0.524155
Localized MO's were stored in: cyclohexylphosphine_ax.proc0.loc

Localizing the core orbitals
------------------------------------------------------------------------------
                           ORCA ORBITAL LOCALIZATION
------------------------------------------------------------------------------

Input orbitals are from                  ... cyclohexylphosphine_ax.proc0.loc
Output orbitals are to                   ... cyclohexylphosphine_ax.proc0.loc
Max. number of iterations                ... 128
Localizations seeded randomly            ... off
Convergence tolerance                    ... 1.000e-06
Using relative localization threshhold   ... 1.000e-08
Treshold for strong local MOs            ... 9.500e-01
Treshold for bond MOs                    ... 8.500e-01
Operator                                 ... 0
Orbital range for localization           ... 0 to 10
Localization criterion                   ... FOSTER-BOYS (AUGMENTED HESSIAN)
Doing the dipole integrals     ... o.k.
Initial value of the localization sum :   133.874998
ITERATION   0 : L=  134.0562669136 DL=  1.81e-01 (AVERGE_DL)=    0.0574091154 
ITERATION   1 : L=  134.1145850615 DL=  5.83e-02 (AVERGE_DL)=    0.0325627081 
ITERATION   2 : L=  134.1205289402 DL=  5.94e-03 (AVERGE_DL)=    0.0103956973 
ITERATION   3 : L=  134.1207626780 DL=  2.34e-04 (AVERGE_DL)=    0.0020614987 
ITERATION   4 : L=  134.1207870907 DL=  2.44e-05 (AVERGE_DL)=    0.0006662339 
ITERATION   5 : L=  134.1207886439 DL=  1.55e-06 (AVERGE_DL)=    0.0001680469 
ITERATION   6 : L=  134.1207887749 DL=  1.31e-07 (AVERGE_DL)=    0.0000488069 
LOCALIZATION SUM CONVERGED

------------------------------------------------------
AUGMENTED HESSIAN OPTIMIZATION OF FOSTER-BOYS ORBITALS
------------------------------------------------------

Spin operator:           0
Orbital window:          0 to 10
Number of iterations:    128
Gradient tolerance:      1.000e-06
Number of pairs:         55
Davidson threshold:      2000
Diagonalization method:  LAPACK
Iter:    0   L: 134.1207887749   Grad. norm: 2.363147e-04
   *** Detected a saddle point. ***
       Augmented Hessian eigenvalues:  2.00e-04  9.43e-05 -1.26e-05 -1.75e-04 ... 
Iter:    1   L: 134.1208031903   Grad. norm: 2.308599e-04
Iter:    2   L: 134.1208222505   Grad. norm: 2.064034e-04
Iter:    3   L: 134.1208400774   Grad. norm: 1.596758e-04
Iter:    4   L: 134.1208525130   Grad. norm: 8.983146e-05
Iter:    5   L: 134.1208566910   Grad. norm: 1.250305e-05
   *** Likely close to a maximum now. ***
       Augmented Hessian eigenvalues:  8.56e-10 -1.79e-04 -2.34e-04 -2.96e-04 ... 
Iter:    6   L: 134.1208566914   Grad. norm: 1.346319e-09
LOCALIZATION HAS CONVERGED.

Eigenvalues of the Hessian:
  0 -1.790e-04
  1 -2.335e-04
  2 -2.960e-04
  3 -1.633e-01
  4 -1.642e-01
  5 -1.643e-01
  6 -4.917e-01
  7 -6.541e-01
  8 -6.564e-01
  9 -6.565e-01
    ...


------------------------------------------------------------------------------- 
                    LOCALIZED MOLECULAR ORBITAL COMPOSITIONS                   
------------------------------------------------------------------------------- 

The Mulliken populations for each LMO on each atom are computed
The LMO`s will be ordered according to atom index and type
  (A) Strongly localized MO`s have populations of >=0.950 on one atom
  (B) Two center bond orbitals have populations of >=0.850 on two atoms
  (C) Other MO`s are considered to be `delocalized`

FOUND  -  11 strongly local MO`s
       -   0 two center bond MO`s
       -   0 significantly delocalized MO`s

Rather strongly localized orbitals:
MO  10:   6P  -   1.000133
MO   9:   6P  -   0.999998
MO   8:   6P  -   0.999752
MO   7:   6P  -   0.999017
MO   6:   6P  -   0.999752
MO   5:   5C  -   1.001609
MO   4:   4C  -   1.001516
MO   3:   3C  -   1.001504
MO   2:   2C  -   1.001516
MO   1:   1C  -   1.001609
MO   0:   0C  -   1.001222
Localized MO's were stored in: cyclohexylphosphine_ax.proc0.loc

Warning: internal orbitals are localized - no re-canonicalization of internal orbitals

--------------------------
CLOSED-SHELL FOCK OPERATOR
--------------------------

RI-JK section for the Fock operator:
  RHF full Fock operator         ... done
  RHF frozen core Fock operator  ... done
Time needed for Fock operator              ...            3.235 sec
Reference energy                           ...   -575.605265391

--------------
DLPNO SETTINGS (2015 fully linear scaling implementation)
--------------

[...]
   TCutDO    ...     2.0e-02
   TCutCMO   ...     1.0e-03
   TCutCPAO  ...     1.0e-03

--------------------------------
LOCAL RI TRANSFORMATION (IAVPAO)
--------------------------------

Orbital window:      11 to 31
Number of PAOs:     396
Basis functions:    396 (150 shells)
Aux. functions:     998 (300 shells)

Processing maps (0.0 sec)
Average map sizes:
   Aux shells -> MOs              21.0
   Aux shells -> PAOs            396.0
   MOs        -> AO shells       147.7
   PAOs       -> AO shells       149.6

Calculating integrals (1.1 sec, 63.331 MB)
Sorting integrals (0.1 sec, 63.319 MB)
Total time for the integral transformation: 1.2 sec
--------------------------------
INITIAL GUESS AND PNO GENERATION
--------------------------------

PNO truncation parameters                   .... 
    ScaleTCutPNO       =        1.000e-02
    PAOOverlapThresh   =        1.000e-08

    TCutPairs          =        1.000e-05
    TCutPNO            =        1.000e-07
    TCutPNOSingles     =        3.000e-09
    TCutMP2Pairs       =        1.000e-06
    TCutMKN            =        1.000e-03
    TCutDO             =        5.000e-03

Pair selection                          .... not used
Type of local MP2 treatment                 .... full local PMP2
Strategy for PNO selection                  .... occupation number selection
Pair density normalization                  .... MP2 norm
Spin component scaling                      .... not used

PASS-1: Formation of initial guess LMP2 amplitudes
Initial amplitudes guess done. Entering LMP2 iteration loop:
   Max. no of iterations          ...  50
   Energy convergence tolerance   ...    1.0e-07
   Residual convergence tolerance ...    5.0e-07
   Fock matrix cutoff             ...    1.0e-05 Eh
   DIIS convergence acceleration parameters:
        Max # vectors in DIIS     ... 7
        Start iteration of DIIS   ... 0
        Levelshift                ... 2.000e-01
        Damping factor 1          ... 5.000e-01
        Damping factor 2          ... 1.000e+00
   L-MP2 PNO cut-off              ...   1.0e-09
   L-MP2 PNO cut-off (core)       ...   1.0e-11
                           *** Turning on DIIS ***
LMP2-Iter=   0:  ELMP2= -1.184890777632  DE=   2.0e-02 RMAX=   4.9e-03
LMP2-Iter=   1:  ELMP2= -1.195708830539  DE=   1.1e-02 RMAX=   2.3e-03
LMP2-Iter=   2:  ELMP2= -1.197390286366  DE=   1.7e-03 RMAX=   3.0e-04
LMP2-Iter=   3:  ELMP2= -1.197535255281  DE=   1.4e-04 RMAX=   1.6e-04
LMP2-Iter=   4:  ELMP2= -1.197538572525  DE=   3.3e-06 RMAX=   2.2e-05
LMP2-Iter=   5:  ELMP2= -1.197537349299  DE=   1.2e-06 RMAX=   8.2e-06
LMP2-Iter=   6:  ELMP2= -1.197537245248  DE=   1.0e-07 RMAX=   1.0e-06
LMP2-Iter=   7:  ELMP2= -1.197537246941  DE=   1.7e-09 RMAX=   3.0e-07
LMP2-Iter=   8:  ELMP2= -1.197537248865  DE=   1.9e-09 RMAX=   1.9e-08 => CONVERGED
PASS-2: Formation of Pair natural orbitals
   .... Finished loop over pairs

 PNO Occupation Number Statistics: 
  | Av. % of trace(Dij) retained        ...  99.575813798561
  | sigma^2 in % of trace(Dij) retained ...   2.24e-01
  | Av. % of trace(Di) retained         ...  99.999715339168
  | sigma^2 in % of trace(Di) retained  ...   6.37e-09
 Distributions of % trace(Dij) recovered:
  |       >= 99.9  ...    64 ( 27.7 % of all pairs)
  |   [90.0, 99.0) ...    25 ( 10.8 % of all pairs)
  |   [99.0, 99.9) ...   142 ( 61.5 % of all pairs)
 Distributions of % trace(Di) recovered :
  |       >= 99.9  ...    21 (100.0 % of all I-pairs )

Making pair pair interaction lists          ... done

                       ===========================
                        231 OF  231 PAIRS ARE KEPT
                       ===========================

Total time spent in the initial guess                 ...    25.287 sec
L-MP2 correlation energy (all non-screened pairs)     ...      -1.197537248865 Eh
L-MP2 PNO error correction                            ...      -0.000030926420 Eh
                                                          --------------------
Initial total L-MP2 energy (non-screened pairs)       ...      -1.197568175285 Eh

Initial PNO correlation energy                        ...      -1.196279900476 Eh
sum of pair energies estimated for screened out pairs ...       0.000000000000 Eh
sum of MP2 pair energies for pairs that were not kept ...       0.000000000000 Eh
sum of PNO error estimates for the kept pairs         ...      -0.001288274809 Eh
                                                          --------------------
sum of all corrections                                         -0.001288274809
Initial total correlation energy                               -1.197568175285
Thresholds for map construction and integral transformation for fine MP2 and CCSD(T) calculation:
   TCutMKN   ...     1.0e-03
   TCutDO    ...     5.0e-03
   TCutPairs ...     1.0e-05
   TCutCMO   ...     1.0e-03
   TCutCPAO  ...     1.0e-03

Time for aux screen maps:            0.005
Time for maps after fine MP2:            0.017
-----------------------------
LOCAL RI TRANSFORMATION (IJV)
-----------------------------

Orbital window:      11 to 31
Basis functions:    396 (150 shells)
Aux. functions:     998 (300 shells)

Processing maps (0.0 sec)
Average map sizes:
   Aux shells -> MOs(i)           21.0
   Aux shells -> MOs(j)           21.0
   MOs        -> AO shells       147.7

Calculating integrals (1.0 sec, 3.369 MB)
Sorting integrals (0.0 sec, 3.358 MB)
Total time for the integral transformation: 1.0 sec
--------------------------------
LOCAL RI TRANSFORMATION (VABPAO)
--------------------------------

Number of PAOs:     396
Basis functions:    396 (150 shells)
Aux. functions:     998 (300 shells)

Processing maps (0.0 sec)
Average map sizes:
   Aux shells -> PAOs            396.0
   PAOs       -> AO shells       149.6

Calculating integrals (3.1 sec, 2244.489 MB)
Finished


-------------------------------------
Pair Pair Term precalculation with     
RI-(ij|mn) and (im|jn) transformation  
ON THE FLY                             
-------------------------------------

   IBatch   1 (of   2)              ... done (  106.617 sec)
   IBatch   2 (of   2)              ... done (   39.809 sec)
Total EXT                           ...         146.448 sec

---------------------
RI-PNO TRANSFORMATION
---------------------

Total Number of PNOs                   ...  9846
Average number of PNOs per pair        ...    42
Maximal number of PNOs per pair        ...    72
   #pairs with  1 -  5 PNOs   :    0
   #pairs with  6 - 10 PNOs   :    4
   #pairs with 11 - 15 PNOs   :    7
   #pairs with 16 - 20 PNOs   :   17
   #pairs with 21 - 25 PNOs   :   14
   #pairs with 26 - 30 PNOs   :   38
   #pairs with 31 - 35 PNOs   :   17
   #pairs with 36 - 40 PNOs   :    8
   #pairs with 41 - 45 PNOs   :    2
   #pairs with 46 - 50 PNOs   :   39
   #pairs with 51 - 55 PNOs   :   33
   #pairs with 56 - 60 PNOs   :    6
   #pairs with 61 - 65 PNOs   :    8
   #pairs with 66 - 70 PNOs   :   30
   #pairs with 71 - 75 PNOs   :    8

Generation of (ij|ab)[P] integrals            ... on
Generation of (ia|bc)[P],(ja|bc)[P] integrals ... on
Storage of 3 and 4 external integrals         ... on
Generation of ALL (ka|bc)[P] integrals        ... on
Keep RI integrals in memory                   ... off

Ibatch:  1 (of  1)
Starting 2-4 index PNO integral generation ... done

Timings:
Total PNO integral transformation time     ...         39.703 sec
Size of the 3-external file                ...       208 MB
Size of the 4-external file                ...      1538 MB
Size of the IKJL file                      ...         0 MB
Size of the all 3-external file            ...      2184 MB
Size of the 1-external file                ...         4 MB

Making pair/pair overlap matrices          ... done (    5.148 sec)
Size of the pair overlap file              ... 531 MB
Redoing the guess amplitudes               ... done (    0.076 sec)

-------------------------
FINAL STARTUP INFORMATION
-------------------------

E(0)                                       ...   -575.605265391
E(L-MP2)                                   ...     -1.197568175
E(L-MP2) including corrections             ...     -1.197568175
Initial E(tot)                             ...   -576.802833566
<T|T>                                      ...      0.367300564
Number of pairs included                   ... 231
Total number of pairs                      ... 231

------------------------------------------------
                  RHF COUPLED CLUSTER ITERATIONS
------------------------------------------------

Number of PNO amplitudes to be optimized   ...       489472
Number of non-PNO amplitudes               ...     30606576
Untruncated number of regular amplitudes   ...     30606576

Iter       E(tot)           E(Corr)          Delta-E          Residual     Time
  0   -576.770211570     -1.163657904      0.033910271      0.010837936   17.88
                           *** Turning on DIIS ***
  1   -576.836286686     -1.229733021     -0.066075117      0.005939234   16.09
  2   -576.870814022     -1.264260357     -0.034527336      0.002315308   18.69
  3   -576.877110958     -1.270557293     -0.006296936      0.001159649   15.23
  4   -576.878365656     -1.271811991     -0.001254698      0.000437487   15.28
  5   -576.878629676     -1.272076011     -0.000264020      0.000186557   15.18
  6   -576.878691341     -1.272137676     -0.000061665      0.000089509   15.15
  7   -576.878702240     -1.272148574     -0.000010898      0.000041793   15.25
  8   -576.878703859     -1.272150193     -0.000001619      0.000018284   15.29
  9   -576.878703636     -1.272149971      0.000000222      0.000007754   15.33
               --- The Coupled-Cluster iterations have converged ---

----------------------
COUPLED CLUSTER ENERGY
----------------------

E(0)                                       ...   -575.605265391
E(CORR)(strong-pairs)                      ...     -1.272149971
E(CORR)(weak-pairs)                        ...     -0.001288275
E(CORR)(corrected)                         ...     -1.273438246
E(TOT)                                     ...   -576.878703636
Singles Norm <S|S>**1/2                    ...      0.062327235  
T1 diagnostic                              ...      0.009617301  

------------------
LARGEST AMPLITUDES
------------------
  11-> 33  11-> 33       0.056330
  11-> 32  11-> 32       0.048793
  18-> 32  18-> 32       0.039271
  31-> 32  31-> 32       0.037770
  30-> 32  30-> 32       0.037770
  11-> 38  11-> 38       0.035755
  25-> 38  25-> 38       0.031814
  28-> 38  28-> 38       0.031814
  15-> 42  15-> 42       0.031363
  14-> 42  14-> 42       0.031362
  11-> 42  11-> 33       0.030699
  11-> 33  11-> 42       0.030699
  17-> 42  17-> 42       0.030566
  13-> 42  13-> 42       0.030565
  22-> 32  22-> 32       0.028451
  20-> 39  20-> 39       0.028374


-------------------------------------------
DLPNO BASED TRIPLES CORRECTION
-------------------------------------------

Singles multiplier          ...  1.000000
TCutTNO                     ... 1.000e-09
TCutMP2Pairs                ... 1.000e-06
TCutDOStrong                ... 1.000e-02
TCutMKNStrong               ... 1.000e-02
TCutDOWeak                  ... 2.000e-02
TCutMKNWeak                 ... 1.000e-01

Fragment selection                          .... not used
Number of Triples that are to be computed   ...      1750

 . . . . . . . . .
10% done  
20% done  
30% done  
40% done  
50% done  
60% done  
70% done  
80% done  
90% done               (    267.997 sec)
Triples timings:
Total time for T0               ...   289.239 sec
Total time for Iterative (T)    ...     0.000 sec
Total time of overall (T)       ...   299.097 sec

Triples List generation         ...     0.000 sec
TNO generation                  ...    21.178 sec
Pair density generation         ...     0.010 sec
Look up tables                  ...     0.000 sec
Generating 3-index integrals    ...   189.941 sec
  Make 4-ind.int. from 3-ind.int...    23.590 sec
  Projecting amplitudes (D + S) ...    22.205 sec
  Downprojecting integrals      ...     0.004 sec
  Energy contr. (sum over a,b,c)...     9.241 sec
Fitting ET(->0)                 ...     0.000 sec

Everything after 3-index        ...    78.056 sec

Timing details:
 TNO integrals                  ...   211.459 sec
   Reading 3-index integrals    ...     0.519 sec
   Sorting integrals            ...    25.801 sec
       Sorting integrals 1      ...     0.002 sec
       Sorting integrals 2      ...    16.137 sec
       Sorting integrals 3      ...     0.689 sec
       Sorting integrals 4      ...     0.040 sec
       Sorting integrals 5      ...     0.244 sec
       Sorting integrals 6      ...     8.689 sec
   Calculating local VM**-1/2   ...     0.698 sec
   Orthogonal. integrals        ...     1.197 sec
   Multipl. 3-index integrals   ...   183.245 sec
   All concerning IRIab (w/TNO) ...    12.393 sec

 Calculate W0/W1                ...    23.007 sec
 W 3-ext contribution           ...    12.175 sec
 W 3-int contribution           ...     3.444 sec
 Sorting W                      ...     7.089 sec

 V exchange contribution        ...     2.884 sec

 Timings for Triples without generation
     of 3-index integrals       ...    78.053 sec
       0 weak pairs             ...    78.053 sec
       1 weak pair              ...     0.000 sec
       2 weak pairs             ...     0.000 sec
       3 weak pairs             ...     0.000 sec
  Extra time for extrapolation  ...     0.000 sec

Number of Triples   (0, 1, 2, 3 weak pairs; overall):   1750       0       0       0  (  1750)
Number of Atoms     (0, 1, 2, 3 weak pairs; overall):   19.1     0.0     0.0     0.0  (    20)
Number of PAOs      (0, 1, 2, 3 weak pairs; overall):  382.5     0.0     0.0     0.0  (   396)
Number of AuxFcns   (0, 1, 2, 3 weak pairs; overall):  439.2     0.0     0.0     0.0  (   998)
Number of TNOs      (0, 1, 2, 3 weak pairs         ):  104.8     0.0     0.0     0.0
Aver. Number of NTNO, Atoms, PAOs, AuxFcns / Triples:   1750   104.8    19.1   382.5   439.2

Triples Correction (T)                     ...     -0.052645803
Final correlation energy                   ...     -1.326084049
E(CCSD)                                    ...   -576.878703636
E(CCSD(T))                                 ...   -576.931349439


Maximum memory used throughout the entire calculation: 7745.1 MB


------------------------------------------------------------------------------- 
                                     TIMINGS                                   
------------------------------------------------------------------------------- 


Total execution time                   ...      692.515 sec

Localization of occupied MO's          ...        0.685 sec (  0.1%)
Fock Matrix Formation                  ...        3.235 sec (  0.5%)
Global overlap, Fock, MKN matrices     ...        0.278 sec (  0.0%)
Differential overlap integrals         ...        0.168 sec (  0.0%)
Organizing maps                        ...        0.049 sec (  0.0%)
RI 3-index integral generations        ...        6.412 sec (  0.9%)
RI-PNO integral transformation         ...      192.886 sec ( 27.9%)
Initial Guess                          ...       28.436 sec (  4.1%)
DIIS Solver                            ...        2.474 sec (  0.4%)
State Vector Update                    ...        0.429 sec (  0.1%)
Sigma-vector construction              ...      158.087 sec ( 22.8%)
  <D|H|D>(0-ext)                       ...        3.271 sec (  2.1% of sigma)
  <D|H|D>(2-ext Fock)                  ...        0.014 sec (  0.0% of sigma)
  <D|H|D>(2-ext)                       ...       19.921 sec ( 12.6% of sigma)
  <D|H|D>(4-ext)                       ...       17.009 sec ( 10.8% of sigma)
  <D|H|D>(4-ext-corr)                  ...       78.379 sec ( 49.6% of sigma)
  CCSD doubles correction              ...        0.225 sec (  0.1% of sigma)
  <S|H|S>                              ...        0.926 sec (  0.6% of sigma)
  <S|H|D>(1-ext)                       ...        0.394 sec (  0.2% of sigma)
  <D|H|S>(1-ext)                       ...        0.012 sec (  0.0% of sigma)
  <S|H|D>(3-ext)                       ...        0.589 sec (  0.4% of sigma)
  Fock-dressing                        ...       26.808 sec ( 17.0% of sigma)
  Singles amplitudes                   ...        0.639 sec (  0.4% of sigma)
  (ik|jl)-dressing                     ...        2.685 sec (  1.7% of sigma)
  (ij|ab),(ia|jb)-dressing             ...        3.079 sec (  1.9% of sigma)
  Pair energies                        ...        1.180 sec (  0.7% of sigma)
Total Time for computing (T)           ...      299.166 sec ( 43.2% of ALL)


-------------------------   --------------------
FINAL SINGLE POINT ENERGY      -576.931349439171
-------------------------   --------------------


                            ***************************************
                            *     ORCA property calculations      *
                            ***************************************

                                    ---------------------
                                    Active property flags
                                    ---------------------
   (+) Dipole Moment


------------------------------------------------------------------------------
                       ORCA ELECTRIC PROPERTIES CALCULATION
------------------------------------------------------------------------------

Dipole Moment Calculation                       ... on
Quadrupole Moment Calculation                   ... off
Polarizability Calculation                      ... off
GBWName                                         ... cyclohexylphosphine_ax.gbw
Electron density file                           ... cyclohexylphosphine_ax.scfp.tmp
The origin for moment calculation is the CENTER OF MASS  = (-0.099877, -0.000006 -0.046038)

-------------
DIPOLE MOMENT
-------------
                                X             Y             Z
Electronic contribution:     -6.16985      -0.00025      -2.49253
Nuclear contribution   :      6.39229       0.00029       2.94634
                        -----------------------------------------
Total Dipole Moment    :      0.22245       0.00004       0.45381
                        -----------------------------------------
Magnitude (a.u.)       :      0.50540
Magnitude (Debye)      :      1.28462



--------------------
Rotational spectrum 
--------------------
 
Rotational constants in cm-1:     0.105334     0.054858     0.047016 
Rotational constants in MHz :  3157.843130  1644.604745  1409.502208 

 Dipole components along the rotational axes: 
x,y,z [a.u.] :     0.236049    -0.000038     0.446887 
x,y,z [Debye]:     0.599990    -0.000097     1.135895 

 

Timings for individual modules:

Sum of individual times         ...      741.436 sec (=  12.357 min)
GTO integral calculation        ...        1.197 sec (=   0.020 min)   0.2 %
SCF iterations                  ...       38.138 sec (=   0.636 min)   5.1 %
MDCI module                     ...      702.101 sec (=  11.702 min)  94.7 %
                             ****ORCA TERMINATED NORMALLY****
TOTAL RUN TIME: 0 days 0 hours 12 minutes 24 seconds 381 msec
cyclohexylphosphine_ax.gbw -> /home1/pantazis/klk/xyz/Cyclohexanes/cyclohexylphosphine_ax.gbw
cyclohexylphosphine_ax.job -> /home1/pantazis/klk/xyz/Cyclohexanes/cyclohexylphosphine_ax.job
cyclohexylphosphine_ax.loc -> /home1/pantazis/klk/xyz/Cyclohexanes/cyclohexylphosphine_ax.loc
cyclohexylphosphine_ax.nodes -> /home1/pantazis/klk/xyz/Cyclohexanes/cyclohexylphosphine_ax.nodes
cyclohexylphosphine_ax.prop -> /home1/pantazis/klk/xyz/Cyclohexanes/cyclohexylphosphine_ax.prop
cyclohexylphosphine_ax_property.txt -> /home1/pantazis/klk/xyz/Cyclohexanes/cyclohexylphosphine_ax_property.txt
cyclohexylphosphine_ax.xyz -> /home1/pantazis/klk/xyz/Cyclohexanes/cyclohexylphosphine_ax.xyz
cp: cannot stat cyclohexylphosphine_ax.asa.inp: No such file or directory
