! Job execution by suborca V 6.07 on ZEUS !
Job started from zeus1, running /scratch/pantazis/diMe_sulfone_ts__DasYsy/orca/orca copied from /opt/orca on zeussn125 in /scratch/pantazis/diMe_sulfone_ts__DasYsy
Job execution start: Fri Jun 28 01:48:23 CEST 2019
Shared library path: /scratch/pantazis/diMe_sulfone_ts__DasYsy/orca:/opt/openmpi_1.10.2/lib:/opt/intel/mkl/lib/intel64:/opt/intel/lib/intel64:
PBS Job ID is: 158302.icqc
izeussn125
izeussn125
izeussn125
izeussn125
izeussn125
izeussn125
izeussn125
izeussn125

                                 *****************
                                 * O   R   C   A *
                                 *****************

           --- An Ab Initio, DFT and Semiempirical electronic structure package ---

                  #######################################################
                  #                        -***-                        #
                  #          Department of theory and spectroscopy      #
                  #               Directorship: Frank Neese             #
                  #        Max Planck Institute fuer Kohlenforschung    #
                  #                Kaiser Wilhelm Platz 1               #
                  #                 D-45470 Muelheim/Ruhr               #
                  #                      Germany                        #
                  #                                                     #
                  #                  All rights reserved                #
                  #                        -***-                        #
                  #######################################################


                         Program Version 4.1.x  -  STABLE  -
                                (SVN: $Rev: 14094$)
                ($Date: 2019-06-14 15:01:15 +0200 (Fri, 14 Jun 2019) $)

                         (BUILD: $Sun Jun 23 06:18:31 CEST 2019$)


 With contributions from (in alphabetic order):
   Daniel Aravena         : Magnetic Properties
   Michael Atanasov       : Ab Initio Ligand Field Theory
   Alexander A. Auer      : GIAO ZORA
   Ute Becker             : Parallelization
   Giovanni Bistoni       : ED, Open-shell LED
   Martin Brehm           : Molecular dynamics
   Dmytro Bykov           : SCF Hessian
   Vijay G. Chilkuri      : MRCI spin determinant printing
   Dipayan Datta          : RHF DLPNO-CCSD density
   Achintya Kumar Dutta   : EOM-CC, STEOM-CC
   Dmitry Ganyushin       : Spin-Orbit,Spin-Spin,Magnetic field MRCI
   Miquel Garcia          : C-PCM Hessian
   Yang Guo               : DLPNO-NEVPT2, CIM, IAO-localization
   Andreas Hansen         : Spin unrestricted coupled pair/coupled cluster methods
   Benjamin Helmich-Paris : CASSCF linear response (MC-RPA)
   Lee Huntington         : MR-EOM, pCC
   Robert Izsak           : Overlap fitted RIJCOSX, COSX-SCS-MP3, EOM
   Christian Kollmar      : KDIIS, OOCD, Brueckner-CCSD(T), CCSD density
   Simone Kossmann        : Meta GGA functionals, TD-DFT gradient, OOMP2, MP2 Hessian
   Martin Krupicka        : AUTO-CI
   Lucas Lang             : DCDCAS
   Dagmar Lenk            : GEPOL surface, SMD
   Dimitrios Liakos       : Extrapolation schemes; parallel MDCI
   Dimitrios Manganas     : ROCIS; embedding schemes
   Dimitrios Pantazis     : SARC Basis sets
   Taras Petrenko         : DFT Hessian,TD-DFT gradient, ASA, ECA, R-Raman, ABS, FL, XAS/XES, NRVS
   Peter Pinski           : DLPNO-MP2, DLPNO-MP2 Gradient
   Christoph Reimann      : Effective Core Potentials
   Marius Retegan         : Local ZFS, SOC
   Christoph Riplinger    : Optimizer, TS searches, QM/MM, DLPNO-CCSD(T), (RO)-DLPNO pert. Triples
   Tobias Risthaus        : Range-separated hybrids, TD-DFT gradient, RPA, STAB
   Michael Roemelt        : Restricted open shell CIS
   Masaaki Saitow         : Open-shell DLPNO
   Barbara Sandhoefer     : DKH picture change effects
   Avijit Sen             : IP-ROCIS
   Kantharuban Sivalingam : CASSCF convergence, NEVPT2, FIC-MRCI
   Bernardo de Souza      : ESD, SOC TD-DFT
   Georgi Stoychev        : AutoAux, RI-MP2 NMR
   Willem Van den Heuvel  : Paramagnetic NMR
   Boris Wezisla          : Elementary symmetry handling
   Frank Wennmohs         : Technical directorship


 We gratefully acknowledge several colleagues who have allowed us to
 interface, adapt or use parts of their codes:
   Stefan Grimme, W. Hujo, H. Kruse,             : VdW corrections, initial TS optimization,
                  C. Bannwarth                     DFT functionals, gCP, sTDA/sTD-DF
   Ed Valeev                                     : LibInt (2-el integral package), F12 methods
   Garnet Chan, S. Sharma, J. Yang, R. Olivares  : DMRG
   Ulf Ekstrom                                   : XCFun DFT Library
   Mihaly Kallay                                 : mrcc  (arbitrary order and MRCC methods)
   Andreas Klamt, Michael Diedenhofen            : otool_cosmo (COSMO solvation model)
   Jiri Pittner, Ondrej Demel                    : Mk-CCSD
   Frank Weinhold                                : gennbo (NPA and NBO analysis)
   Christopher J. Cramer and Donald G. Truhlar   : smd solvation model
   Lars Goerigk                                  : TD-DFT with DH, B97 family of functionals
   V. Asgeirsson, H. Jonsson                     : NEB implementation
   FAccTs GmbH                                   : IRC, NEB, NEB-TS, Multilevel


 Your calculation uses the libint2 library for the computation of 2-el integrals
 For citations please refer to: http://libint.valeyev.net

 This ORCA versions uses:
   CBLAS   interface :  Fast vector & matrix operations
   LAPACKE interface :  Fast linear algebra routines
   SCALAPACK package :  Parallel linear algebra routines




***************************************
The coordinates will be read from file: diMe_sulfone_ts.xyz
***************************************


----- Orbital basis set information -----
Your calculation utilizes the basis: cc-pVTZ 
       H, B-Ne : Obtained from the ccRepo (grant-hill.group.shef.ac.uk/ccrepo) Feb. 2017
                 T. H. Dunning, Jr., J. Chem. Phys. 90, 1007 (1989)
            He : Obtained from the ccRepo (grant-hill.group.shef.ac.uk/ccrepo) Feb. 2017
                 D. E. Woon, T. H. Dunning, Jr., J. Chem. Phys. 100, 2975 (1994)
  Li-Be, Na-Mg : Obtained from the ccRepo (grant-hill.group.shef.ac.uk/ccrepo) Feb. 2017
                 B. P. Prascher, D. E. Woon, K. A. Peterson, T. H. Dunning, Jr., A. K. Wilson, Theor. Chem. Acc. 128, 69 (2011)
         Al-Ar : Obtained from the ccRepo (grant-hill.group.shef.ac.uk/ccrepo) Feb. 2017
                 D. E. Woon, T. H. Dunning, Jr., J. Chem. Phys. 98, 1358 (1993)
            Ca : Obtained from the Peterson Research Group Website (tyr0.chem.wsu.edu/~kipeters) Feb. 2017
                 J. Koput, K. A. Peterson, J. Phys. Chem. 106, 9595 (2002)
         Sc-Zn : Obtained from the ccRepo (grant-hill.group.shef.ac.uk/ccrepo) Feb. 2017
                 N. B. Balabanov, K. A. Peterson, J. Chem. Phys. 123, 064107 (2005)
                 N. B. Balabanov, K. A. Peterson, J. Chem. Phys. 125, 074110 (2006)
         Ga-Kr : Obtained from the ccRepo (grant-hill.group.shef.ac.uk/ccrepo) Feb. 2017
                 A. K. Wilson, D. E. Woon, K. A. Peterson, T. H. Dunning, Jr., J. Chem. Phys. 110, 7667 (1999)
             Y : Obtained from the ccRepo (grant-hill.group.shef.ac.uk/ccrepo) Feb. 2017
                 K. A. Peterson, D. Figgen, M. Dolg, H. Stoll, J. Chem. Phys. 126, 124101 (2007)
        Ag, Au : Obtained from the Peterson Research Group Website (tyr0.chem.wsu.edu/~kipeters) Feb. 2017
                 K. A. Peterson, C. Puzzarini, Theor. Chem. Acc. 114, 283 (2005)

----- AuxC basis set information -----
Your calculation utilizes the auxiliary basis: cc-pVTZ/C 
  Obtained from the EMSL Basis Set Exchange (bse.pnl.gov) Feb. 2017
  H-He, B-F, Al-Ar, Ga-Kr : F. Weigend, A. Kohn, C. Hattig, J. Chem. Phys. 116, 3175 (2002)
             Li-Be, Na-Mg : C. Haettig, Phys. Chem. Chem. Phys. 7, 59 (2005)
                       Ne : C. Haettig, Phys. Chem. Chem. Phys. 7, 59 (2005)
                            F. Weigend, A. Kohn, C. Hattig, J. Chem. Phys. 116, 3175 (2002)
                    Sc-Zn : J. G. Hill, J. A. Platts, J. Chem. Phys. 128, 044104 (2008)

----- AuxJK basis set information -----
Your calculation utilizes the auxiliary basis: cc-pVTZ/JK 
  H, B-F, Al-Cl, Ga-Br : Obtained from the TURBOMOLE 7.0 basis set library

================================================================================
                                        WARNINGS
                       Please study these warnings very carefully!
================================================================================


WARNING: MDCI localization with Augmented Hessian Foster-Boys
  ===> : Switching off randomization!

WARNING: Post HF methods need fully converged wavefunctions
  ===> : Setting SCFConvForced true
         You can overwrite this default with %scf ConvForced false 


INFO   : the flag for use of LIBINT has been found!

================================================================================
                                       INPUT FILE
================================================================================
NAME = diMe_sulfone_ts.inp
|  1> ! RHF DLPNO-CCSD(T) cc-pVTZ RIJK cc-pVTZ/JK cc-pVTZ/C
|  2> ! KDIIS SOSCF TightSCF TightPNO
|  3> 
|  4> %pal nprocs 8 end
|  5> 
|  6> %maxcore 8000
|  7> 
|  8> %scf maxiter 300
|  9>      shift shift 0.2 erroff 0.1 end
| 10> end
| 11> 
| 12> * xyzfile 0 1 diMe_sulfone_ts.xyz 
| 13> 
| 14> 
| 15>                          ****END OF INPUT****
================================================================================

                       ****************************
                       * Single Point Calculation *
                       ****************************

---------------------------------
CARTESIAN COORDINATES (ANGSTROEM)
---------------------------------
  C     -1.352900    0.974500   -0.004700
  S     -0.008900   -0.190700   -0.000200
  C      1.453400    0.850200    0.008900
  O     -0.058200   -0.912000    1.260200
  O     -0.041200   -0.908300   -1.263200
  H     -1.305500    1.574100   -0.908900
  H     -1.299500    1.586100    0.891200
  H      2.063000    0.549000   -0.836900
  H      1.164900    1.892300   -0.097300
  H      1.968200    0.692000    0.950400
  H     -2.256900    0.371200    0.003000

----------------------------
CARTESIAN COORDINATES (A.U.)
----------------------------
  NO LB      ZA    FRAG     MASS         X           Y           Z
   0 C     6.0000    0    12.011   -2.556610    1.841538   -0.008882
   1 S    16.0000    0    32.060   -0.016819   -0.360371   -0.000378
   2 C     6.0000    0    12.011    2.746528    1.606645    0.016819
   3 O     8.0000    0    15.999   -0.109982   -1.723430    2.381433
   4 O     8.0000    0    15.999   -0.077857   -1.716438   -2.387102
   5 H     1.0000    0     1.008   -2.467037    2.974618   -1.717572
   6 H     1.0000    0     1.008   -2.455699    2.997295    1.684124
   7 H     1.0000    0     1.008    3.898505    1.037460   -1.581512
   8 H     1.0000    0     1.008    2.201342    3.575929   -0.183870
   9 H     1.0000    0     1.008    3.719359    1.307690    1.795996
  10 H     1.0000    0     1.008   -4.264923    0.701466    0.005669

--------------------------------
INTERNAL COORDINATES (ANGSTROEM)
--------------------------------
 C      0   0   0     0.000000000000     0.00000000     0.00000000
 S      1   0   0     1.778776908440     0.00000000     0.00000000
 C      2   1   0     1.794958748830   103.63224567     0.00000000
 O      2   1   3     1.453035560473   107.56182256   114.36417559
 O      2   1   3     1.452983843682   107.72953251   245.71594556
 H      1   2   3     1.085976316501   109.31758099    62.07595387
 H      1   2   3     1.086067645223   109.24733066   299.26288410
 H      3   2   1     1.085224050600   107.02097485   234.82886558
 H      3   2   1     1.086500391164   109.83957671   354.00872187
 H      3   2   1     1.084651340293   107.84728967   114.53407160
 H      1   2   3     1.086851498596   105.35652162   180.72451007

---------------------------
INTERNAL COORDINATES (A.U.)
---------------------------
 C      0   0   0     0.000000000000     0.00000000     0.00000000
 S      1   0   0     3.361401210295     0.00000000     0.00000000
 C      2   1   0     3.391980456974   103.63224567     0.00000000
 O      2   1   3     2.745839272143   107.56182256   114.36417559
 O      2   1   3     2.745741541571   107.72953251   245.71594556
 H      1   2   3     2.052197826111   109.31758099    62.07595387
 H      1   2   3     2.052370412384   109.24733066   299.26288410
 H      3   2   1     2.050776249578   107.02097485   234.82886558
 H      3   2   1     2.053188183699   109.83957671   354.00872187
 H      3   2   1     2.049693983945   107.84728967   114.53407160
 H      1   2   3     2.053851680588   105.35652162   180.72451007

---------------------
BASIS SET INFORMATION
---------------------
There are 4 groups of distinct atoms

 Group   1 Type C   : 18s5p2d1f contracted to 4s3p2d1f pattern {8811/311/11/1}
 Group   2 Type S   : 41s16p2d1f contracted to 5s4p2d1f pattern {13131311/7711/11/1}
 Group   3 Type O   : 18s5p2d1f contracted to 4s3p2d1f pattern {8811/311/11/1}
 Group   4 Type H   : 5s2p1d contracted to 3s2p1d pattern {311/11/1}

Atom   0C    basis set group =>   1
Atom   1S    basis set group =>   2
Atom   2C    basis set group =>   1
Atom   3O    basis set group =>   3
Atom   4O    basis set group =>   3
Atom   5H    basis set group =>   4
Atom   6H    basis set group =>   4
Atom   7H    basis set group =>   4
Atom   8H    basis set group =>   4
Atom   9H    basis set group =>   4
Atom  10H    basis set group =>   4
-------------------------------
AUXILIARY BASIS SET INFORMATION
-------------------------------
There are 4 groups of distinct atoms

 Group   1 Type C   : 8s6p5d3f1g contracted to 8s6p5d3f1g pattern {11111111/111111/11111/111/1}
 Group   2 Type S   : 10s8p7d5f2g contracted to 10s8p7d5f2g pattern {1111111111/11111111/1111111/11111/11}
 Group   3 Type O   : 8s6p5d3f1g contracted to 8s6p5d3f1g pattern {11111111/111111/11111/111/1}
 Group   4 Type H   : 4s3p2d1f contracted to 4s3p2d1f pattern {1111/111/11/1}

Atom   0C    basis set group =>   1
Atom   1S    basis set group =>   2
Atom   2C    basis set group =>   1
Atom   3O    basis set group =>   3
Atom   4O    basis set group =>   3
Atom   5H    basis set group =>   4
Atom   6H    basis set group =>   4
Atom   7H    basis set group =>   4
Atom   8H    basis set group =>   4
Atom   9H    basis set group =>   4
Atom  10H    basis set group =>   4
-------------------------------
AUXILIARY BASIS SET INFORMATION
-------------------------------
There are 4 groups of distinct atoms

 Group   1 Type C   : 10s7p5d2f1g contracted to 10s7p5d2f1g pattern {1111111111/1111111/11111/11/1}
 Group   2 Type S   : 13s11p9d3f1g contracted to 13s11p9d3f1g pattern {1111111111111/11111111111/111111111/111/1}
 Group   3 Type O   : 10s7p5d2f1g contracted to 10s7p5d2f1g pattern {1111111111/1111111/11111/11/1}
 Group   4 Type H   : 4s3p2d1f contracted to 4s3p2d1f pattern {1111/111/11/1}

Atom   0C    basis set group =>   1
Atom   1S    basis set group =>   2
Atom   2C    basis set group =>   1
Atom   3O    basis set group =>   3
Atom   4O    basis set group =>   3
Atom   5H    basis set group =>   4
Atom   6H    basis set group =>   4
Atom   7H    basis set group =>   4
Atom   8H    basis set group =>   4
Atom   9H    basis set group =>   4
Atom  10H    basis set group =>   4


           ************************************************************
           *        Program running with 8 parallel MPI-processes     *
           *              working on a common directory               *
           ************************************************************
------------------------------------------------------------------------------
                           ORCA GTO INTEGRAL CALCULATION
                           -- RI-GTO INTEGRALS CHOSEN --
------------------------------------------------------------------------------

                         BASIS SET STATISTICS AND STARTUP INFO

Gaussian basis set:
 # of primitive gaussian shells          ...  212
 # of primitive gaussian functions       ...  402
 # of contracted shells                  ...   88
 # of contracted basis functions         ...  238
 Highest angular momentum                ...    3
 Maximum contraction depth               ...   13
Auxiliary gaussian basis set:
 # of primitive gaussian shells          ...  197
 # of primitive gaussian functions       ...  617
 # of contracted shells                  ...  197
 # of contracted aux-basis functions     ...  617
 Highest angular momentum                ...    4
 Maximum contraction depth               ...    1
Ratio of auxiliary to basis functions    ...  2.59
Integral package used                  ... LIBINT
 One Electron integrals                  ... done
 Ordering auxiliary basis shells         ... done
 Integral threshhold             Thresh  ...  2.500e-11
 Primitive cut-off               TCut    ...  2.500e-12
 Pre-screening matrix                    ... done
 Shell pair data                         ... 
 Ordering of the shell pairs             ... done (   0.001 sec) 3850 of 3916 pairs
 Determination of significant pairs      ... done (   0.000 sec)
 Creation of shell pair data             ... done (   0.001 sec)
 Storage of shell pair data              ... done (   0.005 sec)
 Shell pair data done in (   0.007 sec)
 Computing two index integrals           ... done
 Cholesky decomposition of the V-matrix  ... done


Timings:
 Total evaluation time                   ...   0.536 sec (  0.009 min)
 One electron matrix time                ...   0.043 sec (  0.001 min) =  8.1%
 Schwartz matrix evaluation time         ...   0.381 sec (  0.006 min) = 71.1%
 Two index repulsion integral time       ...   0.040 sec (  0.001 min) =  7.4%
 Cholesky decomposition of V             ...   0.038 sec (  0.001 min) =  7.0%
 Three index repulsion integral time     ...   0.000 sec (  0.000 min) =  0.0%



           ************************************************************
           *        Program running with 8 parallel MPI-processes     *
           *              working on a common directory               *
           ************************************************************
-------------------------------------------------------------------------------
                                 ORCA SCF
-------------------------------------------------------------------------------

------------
SCF SETTINGS
------------
Hamiltonian:
 Ab initio Hamiltonian  Method          .... Hartree-Fock(GTOs)
 RI-approximation to the Coulomb term is turned on
   Number of auxiliary basis functions  .... 617
   RI-JK (J+K treated both via RI)      .... on


General Settings:
 Integral files         IntName         .... diMe_sulfone_ts
 Hartree-Fock type      HFTyp           .... RHF
 Total Charge           Charge          ....    0
 Multiplicity           Mult            ....    1
 Number of Electrons    NEL             ....   50
 Basis Dimension        Dim             ....  238
 Nuclear Repulsion      ENuc            ....    273.8814028025 Eh

Convergence Acceleration:
 DIIS                   CNVDIIS         .... off
 Newton-Raphson         CNVNR           .... off
 SOSCF                  CNVSOSCF        .... on
   Start iteration      SOSCFMaxIt      ....   150
   Startup grad/error   SOSCFStart      ....  0.003300
 Level Shifting         CNVShift        .... on
   Level shift para.    LevelShift      ....    0.2000
   Turn off err/grad.   ShiftErr        ....    0.1000
 Zerner damping         CNVZerner       .... off
 Static damping         CNVDamp         .... off
 Fernandez-Rico         CNVRico         .... off

SCF Procedure:
 Maximum # iterations   MaxIter         ....   300
 SCF integral mode      SCFMode         .... Direct
   Integral package                     .... LIBINT
 Reset frequency        DirectResetFreq ....    20
 Integral Threshold     Thresh          ....  2.500e-11 Eh
 Primitive CutOff       TCut            ....  2.500e-12 Eh

Convergence Tolerance:
 Convergence Check Mode ConvCheckMode   .... Total+1el-Energy
 Convergence forced     ConvForced      .... 1
 Energy Change          TolE            ....  1.000e-08 Eh
 1-El. energy change                    ....  1.000e-05 Eh
 Orbital Gradient       TolG            ....  1.000e-05
 Orbital Rotation angle TolX            ....  1.000e-05


Diagonalization of the overlap matrix:
Smallest eigenvalue                        ... 9.430e-04
Time for diagonalization                   ...    0.013 sec
Threshold for overlap eigenvalues          ... 1.000e-08
Number of eigenvalues below threshold      ... 0
Time for construction of square roots      ...    0.009 sec
Total time needed                          ...    0.023 sec

-------------------
DFT GRID GENERATION
-------------------

General Integration Accuracy     IntAcc      ...  4.340
Radial Grid Type                 RadialGrid  ... Gauss-Chebyshev
Angular Grid (max. acc.)         AngularGrid ... Lebedev-110
Angular grid pruning method      GridPruning ... 3 (G Style)
Weight generation scheme         WeightScheme... Becke
Basis function cutoff            BFCut       ...    1.0000e-11
Integration weight cutoff        WCut        ...    1.0000e-14
Grids for H and He will be reduced by one unit

# of grid points (after initial pruning)     ...  13314 (   0.0 sec)
# of grid points (after weights+screening)   ...  12632 (   0.0 sec)
nearest neighbour list constructed           ...    0.0 sec
Grid point re-assignment to atoms done       ...    0.0 sec
Grid point division into batches done        ...    0.0 sec
Reduced shell lists constructed in    0.1 sec

Total number of grid points                  ...    12632
Total number of batches                      ...      205
Average number of points per batch           ...       61
Average number of grid points per atom       ...     1148
Average number of shells per batch           ...    79.48 (90.32%)
Average number of basis functions per batch  ...   213.11 (89.54%)
Average number of large shells per batch     ...    68.33 (85.97%)
Average number of large basis fcns per batch ...   181.59 (85.21%)
Average number of aux-shells per batch       ...    79.48 (40.35%)
Average number of aux functions per batch    ...   213.11 (34.54%)
Maximum spatial batch extension              ...   2.32,  2.51,  2.26 au
Average spatial batch extension              ...   0.20,  0.21,  0.20 au

Time for grid setup =    0.099 sec

------------------------------
INITIAL GUESS: MODEL POTENTIAL
------------------------------
Loading Hartree-Fock densities                     ... done
Calculating cut-offs                               ... done
Setting up the integral package                    ... done
Initializing the effective Hamiltonian             ... done
Starting the Coulomb interaction                   ... done (   0.0 sec)
Reading the grid                                   ... done
Mapping shells                                     ... done
Starting the XC term evaluation                    ... done (   0.0 sec)
Transforming the Hamiltonian                       ... done (   0.0 sec)
Diagonalizing the Hamiltonian                      ... done (   0.0 sec)
Back transforming the eigenvectors                 ... done (   0.0 sec)
Now organizing SCF variables                       ... done
                      ------------------
                      INITIAL GUESS DONE (   0.3 sec)
                      ------------------
--------------
SCF ITERATIONS
--------------
ITER       Energy         Delta-E        Max-DP      RMS-DP      [F,P]   Gradient Norm
                             ****Turning on KDIIS(Cayley)****
  0   -626.1985701134   0.000000000000 0.02054805  0.00037614  0.1322129   0.171086872
  1   -626.3034603963  -0.104890282955 0.03611148  0.00041397  0.1231564   0.145314950
  2   -626.3834791734  -0.080018777095 0.05894190  0.00068032  0.0988727   0.117610933
  3   -626.4783844836  -0.094905310213 0.09079573  0.00110005  0.0600377   0.072088248
                      *** Initiating the SOSCF procedure ***
                           *** Shutting down KDIIS ***
                      *** Re-Reading the Fockian *** 
                      *** Removing any level shift *** 
ITER      Energy       Delta-E        Grad      Rot      Max-DP    RMS-DP
  4   -626.53941564  -0.0610311519  0.002896  0.002896  0.002466  0.000084
  5   -626.53966410  -0.0002484648  0.000961  0.001358  0.001126  0.000033
  6   -626.53967632  -0.0000122227  0.000480  0.000282  0.000639  0.000014
  7   -626.53968297  -0.0000066477  0.000119  0.000214  0.000167  0.000006
  8   -626.53968324  -0.0000002649  0.000052  0.000052  0.000062  0.000002
  9   -626.53968332  -0.0000000868  0.000009  0.000015  0.000015  0.000001
 10   -626.53968333  -0.0000000026  0.000003  0.000009  0.000009  0.000000
                  ***Gradient check signals convergence***
              ***Rediagonalizing the Fockian in SOSCF/NRSCF***

               *****************************************************
               *                     SUCCESS                       *
               *           SCF CONVERGED AFTER  11 CYCLES          *
               *****************************************************


----------------
TOTAL SCF ENERGY
----------------

Total Energy       :         -626.53968333 Eh          -17049.01154 eV

Components:
Nuclear Repulsion  :          273.88140280 Eh            7452.69186 eV
Electronic Energy  :         -900.42108613 Eh          -24501.70340 eV
One Electron Energy:        -1405.99036248 Eh          -38258.94281 eV
Two Electron Energy:          505.56927635 Eh           13757.23941 eV

Virial components:
Potential Energy   :        -1252.59555976 Eh          -34084.85802 eV
Kinetic Energy     :          626.05587643 Eh           17035.84648 eV
Virial Ratio       :            2.00077279


---------------
SCF CONVERGENCE
---------------

  Last Energy change         ...   -3.4402e-10  Tolerance :   1.0000e-08
  Last MAX-Density change    ...    2.2868e-06  Tolerance :   1.0000e-07
  Last RMS-Density change    ...    6.1025e-08  Tolerance :   5.0000e-09
  Last Orbital Gradient      ...    9.9509e-07  Tolerance :   1.0000e-05
  Last Orbital Rotation      ...    1.8419e-06  Tolerance :   1.0000e-05

             **** THE GBW FILE WAS UPDATED (diMe_sulfone_ts.gbw) ****
             **** DENSITY FILE WAS UPDATED (diMe_sulfone_ts.scfp.tmp) ****
             **** ENERGY FILE WAS UPDATED (diMe_sulfone_ts.en.tmp) ****
----------------
ORBITAL ENERGIES
----------------

  NO   OCC          E(Eh)            E(eV) 
   0   2.0000     -92.176914     -2508.2614 
   1   2.0000     -20.537184      -558.8452 
   2   2.0000     -20.536869      -558.8366 
   3   2.0000     -11.275737      -306.8284 
   4   2.0000     -11.274415      -306.7924 
   5   2.0000      -9.148005      -248.9299 
   6   2.0000      -6.832627      -185.9252 
   7   2.0000      -6.832155      -185.9124 
   8   2.0000      -6.832099      -185.9109 
   9   2.0000      -1.444020       -39.2938 
  10   2.0000      -1.331283       -36.2261 
  11   2.0000      -1.071138       -29.1472 
  12   2.0000      -1.008174       -27.4338 
  13   2.0000      -0.814933       -22.1755 
  14   2.0000      -0.683775       -18.6065 
  15   2.0000      -0.670763       -18.2524 
  16   2.0000      -0.661588       -18.0027 
  17   2.0000      -0.619605       -16.8603 
  18   2.0000      -0.618948       -16.8424 
  19   2.0000      -0.593347       -16.1458 
  20   2.0000      -0.577509       -15.7148 
  21   2.0000      -0.491662       -13.3788 
  22   2.0000      -0.489220       -13.3124 
  23   2.0000      -0.464297       -12.6342 
  24   2.0000      -0.439659       -11.9637 
  25   0.0000       0.118180         3.2158 
  26   0.0000       0.167321         4.5530 
  27   0.0000       0.174333         4.7438 
  28   0.0000       0.187177         5.0933 
  29   0.0000       0.194048         5.2803 
  30   0.0000       0.202236         5.5031 
  31   0.0000       0.211944         5.7673 
  32   0.0000       0.258431         7.0323 
  33   0.0000       0.272913         7.4263 
  34   0.0000       0.275722         7.5028 
  35   0.0000       0.355667         9.6782 
  36   0.0000       0.375764        10.2251 
  37   0.0000       0.386037        10.5046 
  38   0.0000       0.398396        10.8409 
  39   0.0000       0.410920        11.1817 
  40   0.0000       0.427348        11.6287 
  41   0.0000       0.493040        13.4163 
  42   0.0000       0.504875        13.7384 
  43   0.0000       0.512007        13.9324 
  44   0.0000       0.541709        14.7407 
  45   0.0000       0.553873        15.0717 
  46   0.0000       0.583512        15.8782 
  47   0.0000       0.604116        16.4388 
  48   0.0000       0.619345        16.8532 
  49   0.0000       0.623081        16.9549 
  50   0.0000       0.635140        17.2830 
  51   0.0000       0.657929        17.9032 
  52   0.0000       0.697979        18.9930 
  53   0.0000       0.702842        19.1253 
  54   0.0000       0.715747        19.4765 
  55   0.0000       0.754223        20.5234 
  56   0.0000       0.800060        21.7708 
  57   0.0000       0.848278        23.0828 
  58   0.0000       0.883144        24.0316 
  59   0.0000       0.905962        24.6525 
  60   0.0000       0.910597        24.7786 
  61   0.0000       0.935588        25.4587 
  62   0.0000       0.980034        26.6681 
  63   0.0000       0.989511        26.9260 
  64   0.0000       1.029103        28.0033 
  65   0.0000       1.040874        28.3236 
  66   0.0000       1.056039        28.7363 
  67   0.0000       1.082735        29.4627 
  68   0.0000       1.091193        29.6929 
  69   0.0000       1.110978        30.2313 
  70   0.0000       1.130254        30.7558 
  71   0.0000       1.177385        32.0383 
  72   0.0000       1.193987        32.4900 
  73   0.0000       1.199467        32.6392 
  74   0.0000       1.210094        32.9283 
  75   0.0000       1.265710        34.4417 
  76   0.0000       1.290815        35.1249 
  77   0.0000       1.307699        35.5843 
  78   0.0000       1.329750        36.1843 
  79   0.0000       1.355049        36.8727 
  80   0.0000       1.367201        37.2034 
  81   0.0000       1.409453        38.3532 
  82   0.0000       1.458079        39.6764 
  83   0.0000       1.472638        40.0725 
  84   0.0000       1.500969        40.8435 
  85   0.0000       1.511122        41.1197 
  86   0.0000       1.522946        41.4415 
  87   0.0000       1.529419        41.6176 
  88   0.0000       1.554275        42.2940 
  89   0.0000       1.566110        42.6160 
  90   0.0000       1.689869        45.9837 
  91   0.0000       1.718358        46.7589 
  92   0.0000       1.728913        47.0461 
  93   0.0000       1.756148        47.7872 
  94   0.0000       1.764758        48.0215 
  95   0.0000       1.787503        48.6404 
  96   0.0000       1.790838        48.7312 
  97   0.0000       1.833354        49.8881 
  98   0.0000       1.883538        51.2537 
  99   0.0000       1.904743        51.8307 
 100   0.0000       1.948705        53.0270 
 101   0.0000       1.996977        54.3405 
 102   0.0000       2.005450        54.5711 
 103   0.0000       2.096501        57.0487 
 104   0.0000       2.147709        58.4421 
 105   0.0000       2.169733        59.0414 
 106   0.0000       2.233110        60.7660 
 107   0.0000       2.245480        61.1026 
 108   0.0000       2.324384        63.2497 
 109   0.0000       2.463419        67.0330 
 110   0.0000       2.496904        67.9442 
 111   0.0000       2.523953        68.6802 
 112   0.0000       2.548179        69.3395 
 113   0.0000       2.568891        69.9031 
 114   0.0000       2.602051        70.8054 
 115   0.0000       2.607606        70.9566 
 116   0.0000       2.642698        71.9115 
 117   0.0000       2.675134        72.7941 
 118   0.0000       2.707616        73.6780 
 119   0.0000       2.714967        73.8780 
 120   0.0000       2.766188        75.2718 
 121   0.0000       2.826501        76.9130 
 122   0.0000       2.867297        78.0231 
 123   0.0000       2.890327        78.6498 
 124   0.0000       2.936403        79.9036 
 125   0.0000       3.010874        81.9300 
 126   0.0000       3.028019        82.3966 
 127   0.0000       3.041551        82.7648 
 128   0.0000       3.055990        83.1577 
 129   0.0000       3.077436        83.7413 
 130   0.0000       3.080150        83.8151 
 131   0.0000       3.088552        84.0438 
 132   0.0000       3.108725        84.5927 
 133   0.0000       3.234469        88.0144 
 134   0.0000       3.250104        88.4398 
 135   0.0000       3.276557        89.1597 
 136   0.0000       3.285161        89.3938 
 137   0.0000       3.346472        91.0621 
 138   0.0000       3.365630        91.5835 
 139   0.0000       3.395773        92.4037 
 140   0.0000       3.408681        92.7549 
 141   0.0000       3.430038        93.3361 
 142   0.0000       3.455628        94.0324 
 143   0.0000       3.466516        94.3287 
 144   0.0000       3.494336        95.0857 
 145   0.0000       3.552633        96.6721 
 146   0.0000       3.570871        97.1683 
 147   0.0000       3.629837        98.7729 
 148   0.0000       3.667042        99.7853 
 149   0.0000       3.672340        99.9294 
 150   0.0000       3.685913       100.2988 
 151   0.0000       3.714001       101.0631 
 152   0.0000       3.719017       101.1996 
 153   0.0000       3.724938       101.3607 
 154   0.0000       3.783910       102.9654 
 155   0.0000       3.794184       103.2450 
 156   0.0000       3.875725       105.4638 
 157   0.0000       3.889405       105.8361 
 158   0.0000       3.897667       106.0609 
 159   0.0000       3.951413       107.5234 
 160   0.0000       4.102739       111.6412 
 161   0.0000       4.109522       111.8258 
 162   0.0000       4.113551       111.9354 
 163   0.0000       4.125430       112.2586 
 164   0.0000       4.147478       112.8586 
 165   0.0000       4.163691       113.2998 
 166   0.0000       4.203014       114.3698 
 167   0.0000       4.245495       115.5258 
 168   0.0000       4.271045       116.2211 
 169   0.0000       4.289789       116.7311 
 170   0.0000       4.299630       116.9989 
 171   0.0000       4.305200       117.1504 
 172   0.0000       4.326189       117.7216 
 173   0.0000       4.379953       119.1846 
 174   0.0000       4.384141       119.2985 
 175   0.0000       4.391859       119.5086 
 176   0.0000       4.444563       120.9427 
 177   0.0000       4.471657       121.6800 
 178   0.0000       4.489804       122.1738 
 179   0.0000       4.516698       122.9056 
 180   0.0000       4.535027       123.4044 
 181   0.0000       4.588721       124.8654 
 182   0.0000       4.609272       125.4247 
 183   0.0000       4.755407       129.4012 
 184   0.0000       4.955055       134.8339 
 185   0.0000       5.014541       136.4526 
 186   0.0000       5.044759       137.2749 
 187   0.0000       5.060920       137.7146 
 188   0.0000       5.077341       138.1615 
 189   0.0000       5.127813       139.5349 
 190   0.0000       5.286900       143.8639 
 191   0.0000       5.297006       144.1389 
 192   0.0000       5.330872       145.0604 
 193   0.0000       5.342344       145.3726 
 194   0.0000       5.357323       145.7802 
 195   0.0000       5.369757       146.1185 
 196   0.0000       5.378783       146.3641 
 197   0.0000       5.522608       150.2778 
 198   0.0000       5.535400       150.6259 
 199   0.0000       5.547869       150.9652 
 200   0.0000       5.553252       151.1117 
 201   0.0000       5.567728       151.5056 
 202   0.0000       5.583465       151.9338 
 203   0.0000       5.596137       152.2786 
 204   0.0000       5.598989       152.3562 
 205   0.0000       5.614501       152.7783 
 206   0.0000       5.623342       153.0189 
 207   0.0000       5.633399       153.2926 
 208   0.0000       5.641829       153.5220 
 209   0.0000       5.659084       153.9915 
 210   0.0000       5.726311       155.8208 
 211   0.0000       5.750430       156.4771 
 212   0.0000       5.770420       157.0211 
 213   0.0000       5.798686       157.7903 
 214   0.0000       6.041564       164.3993 
 215   0.0000       6.045910       164.5176 
 216   0.0000       6.052108       164.6862 
 217   0.0000       6.140680       167.0964 
 218   0.0000       6.158709       167.5870 
 219   0.0000       6.161594       167.6655 
 220   0.0000       6.172874       167.9724 
 221   0.0000       6.203511       168.8061 
 222   0.0000       6.298539       171.3920 
 223   0.0000       6.756874       183.8639 
 224   0.0000       6.836907       186.0417 
 225   0.0000       6.849142       186.3746 
 226   0.0000       6.940251       188.8538 
 227   0.0000       6.966913       189.5793 
 228   0.0000       7.266883       197.7419 
 229   0.0000       7.301363       198.6802 
 230   0.0000       7.363241       200.3640 
 231   0.0000       7.374193       200.6620 
 232   0.0000       7.486561       203.7197 
 233   0.0000       7.586366       206.4355 
 234   0.0000      10.306705       280.4597 
 235   0.0000      10.607226       288.6373 
 236   0.0000      13.483095       366.8937 
 237   0.0000      13.731905       373.6641 

                    ********************************
                    * MULLIKEN POPULATION ANALYSIS *
                    ********************************

-----------------------
MULLIKEN ATOMIC CHARGES
-----------------------
   0 C :   -0.294253
   1 S :    0.990658
   2 C :   -0.310377
   3 O :   -0.569280
   4 O :   -0.569368
   5 H :    0.116775
   6 H :    0.117549
   7 H :    0.138908
   8 H :    0.105886
   9 H :    0.138725
  10 H :    0.134778
Sum of atomic charges:   -0.0000000

--------------------------------
MULLIKEN REDUCED ORBITAL CHARGES
--------------------------------
  0 C s       :     3.226614  s :     3.226614
      pz      :     1.030909  p :     3.001076
      px      :     0.981417
      py      :     0.988750
      dz2     :     0.018610  d :     0.062893
      dxz     :     0.001481
      dyz     :     0.013497
      dx2y2   :     0.004833
      dxy     :     0.024473
      f0      :     0.000083  f :     0.003669
      f+1     :     0.000488
      f-1     :     0.001522
      f+2     :    -0.000017
      f-2     :     0.000192
      f+3     :     0.000482
      f-3     :     0.000920
  1 S s       :     5.312605  s :     5.312605
      pz      :     2.778804  p :     8.657324
      px      :     2.979420
      py      :     2.899100
      dz2     :     0.282428  d :     0.939996
      dxz     :     0.180873
      dyz     :     0.201267
      dx2y2   :     0.058830
      dxy     :     0.216598
      f0      :     0.026486  f :     0.099417
      f+1     :     0.020783
      f-1     :     0.010621
      f+2     :     0.013121
      f-2     :     0.018001
      f+3     :     0.005559
      f-3     :     0.004847
  2 C s       :     3.246021  s :     3.246021
      pz      :     1.079265  p :     3.004423
      px      :     0.937282
      py      :     0.987876
      dz2     :     0.015805  d :     0.056426
      dxz     :     0.008676
      dyz     :     0.003942
      dx2y2   :     0.008573
      dxy     :     0.019430
      f0      :     0.000134  f :     0.003507
      f+1     :     0.001231
      f-1     :     0.000637
      f+2     :     0.000041
      f-2     :     0.000115
      f+3     :     0.000317
      f-3     :     0.001031
  3 O s       :     3.797971  s :     3.797971
      pz      :     1.392946  p :     4.731443
      px      :     1.726573
      py      :     1.611924
      dz2     :     0.012535  d :     0.037723
      dxz     :     0.007801
      dyz     :     0.011539
      dx2y2   :     0.003192
      dxy     :     0.002657
      f0      :     0.000523  f :     0.002143
      f+1     :     0.000288
      f-1     :     0.000658
      f+2     :     0.000302
      f-2     :     0.000290
      f+3     :     0.000043
      f-3     :     0.000039
  4 O s       :     3.798170  s :     3.798170
      pz      :     1.392407  p :     4.731303
      px      :     1.727432
      py      :     1.611464
      dz2     :     0.012626  d :     0.037752
      dxz     :     0.007804
      dyz     :     0.011533
      dx2y2   :     0.003168
      dxy     :     0.002621
      f0      :     0.000528  f :     0.002143
      f+1     :     0.000290
      f-1     :     0.000658
      f+2     :     0.000299
      f-2     :     0.000287
      f+3     :     0.000042
      f-3     :     0.000038
  5 H s       :     0.848457  s :     0.848457
      pz      :     0.011789  p :     0.032453
      px      :     0.008218
      py      :     0.012445
      dz2     :     0.000638  d :     0.002314
      dxz     :     0.000422
      dyz     :     0.000790
      dx2y2   :     0.000178
      dxy     :     0.000287
  6 H s       :     0.847784  s :     0.847784
      pz      :     0.011662  p :     0.032359
      px      :     0.008167
      py      :     0.012531
      dz2     :     0.000632  d :     0.002308
      dxz     :     0.000411
      dyz     :     0.000782
      dx2y2   :     0.000187
      dxy     :     0.000295
  7 H s       :     0.828113  s :     0.828113
      pz      :     0.011981  p :     0.030716
      px      :     0.010572
      py      :     0.008163
      dz2     :     0.000644  d :     0.002263
      dxz     :     0.000716
      dyz     :     0.000338
      dx2y2   :     0.000311
      dxy     :     0.000254
  8 H s       :     0.858834  s :     0.858834
      pz      :     0.009421  p :     0.033031
      px      :     0.007860
      py      :     0.015749
      dz2     :     0.000268  d :     0.002249
      dxz     :     0.000097
      dyz     :     0.000592
      dx2y2   :     0.000695
      dxy     :     0.000597
  9 H s       :     0.828435  s :     0.828435
      pz      :     0.012467  p :     0.030591
      px      :     0.009945
      py      :     0.008179
      dz2     :     0.000698  d :     0.002249
      dxz     :     0.000746
      dyz     :     0.000434
      dx2y2   :     0.000198
      dxy     :     0.000173
 10 H s       :     0.829270  s :     0.829270
      pz      :     0.009140  p :     0.033515
      px      :     0.016020
      py      :     0.008354
      dz2     :     0.000273  d :     0.002437
      dxz     :     0.000457
      dyz     :     0.000283
      dx2y2   :     0.000856
      dxy     :     0.000567


                     *******************************
                     * LOEWDIN POPULATION ANALYSIS *
                     *******************************

----------------------
LOEWDIN ATOMIC CHARGES
----------------------
   0 C :    0.040209
   1 S :    0.628047
   2 C :    0.049804
   3 O :   -0.275019
   4 O :   -0.274650
   5 H :   -0.030751
   6 H :   -0.030380
   7 H :   -0.025474
   8 H :   -0.033336
   9 H :   -0.026704
  10 H :   -0.021747

-------------------------------
LOEWDIN REDUCED ORBITAL CHARGES
-------------------------------
  0 C s       :     2.703417  s :     2.703417
      pz      :     1.017073  p :     2.964437
      px      :     0.963681
      py      :     0.983684
      dz2     :     0.062364  d :     0.268568
      dxz     :     0.010876
      dyz     :     0.073541
      dx2y2   :     0.028925
      dxy     :     0.092862
      f0      :     0.000824  f :     0.023369
      f+1     :     0.004808
      f-1     :     0.004917
      f+2     :     0.003107
      f-2     :     0.001233
      f+3     :     0.003022
      f-3     :     0.005459
  1 S s       :     4.866195  s :     4.866195
      pz      :     2.871715  p :     8.652456
      px      :     2.901649
      py      :     2.879092
      dz2     :     0.462597  d :     1.559047
      dxz     :     0.270749
      dyz     :     0.359943
      dx2y2   :     0.120996
      dxy     :     0.344762
      f0      :     0.076028  f :     0.294255
      f+1     :     0.055448
      f-1     :     0.043729
      f+2     :     0.037896
      f-2     :     0.051023
      f+3     :     0.016956
      f-3     :     0.013175
  2 C s       :     2.704288  s :     2.704288
      pz      :     1.032117  p :     2.966914
      px      :     0.946432
      py      :     0.988365
      dz2     :     0.060231  d :     0.255208
      dxz     :     0.056040
      dyz     :     0.018133
      dx2y2   :     0.047581
      dxy     :     0.073224
      f0      :     0.001002  f :     0.023786
      f+1     :     0.004941
      f-1     :     0.004799
      f+2     :     0.002588
      f-2     :     0.002272
      f+3     :     0.002602
      f-3     :     0.005583
  3 O s       :     3.514333  s :     3.514333
      pz      :     1.478131  p :     4.692114
      px      :     1.635732
      py      :     1.578250
      dz2     :     0.022006  d :     0.064856
      dxz     :     0.009479
      dyz     :     0.025040
      dx2y2   :     0.004118
      dxy     :     0.004213
      f0      :     0.000785  f :     0.003716
      f+1     :     0.000359
      f-1     :     0.001424
      f+2     :     0.000507
      f-2     :     0.000489
      f+3     :     0.000097
      f-3     :     0.000054
  4 O s       :     3.514345  s :     3.514345
      pz      :     1.477788  p :     4.691727
      px      :     1.636625
      py      :     1.577315
      dz2     :     0.022191  d :     0.064861
      dxz     :     0.009464
      dyz     :     0.024967
      dx2y2   :     0.004076
      dxy     :     0.004163
      f0      :     0.000794  f :     0.003717
      f+1     :     0.000361
      f-1     :     0.001426
      f+2     :     0.000503
      f-2     :     0.000484
      f+3     :     0.000096
      f-3     :     0.000053
  5 H s       :     0.841927  s :     0.841927
      pz      :     0.067025  p :     0.159725
      px      :     0.040094
      py      :     0.052606
      dz2     :     0.008949  d :     0.029099
      dxz     :     0.006047
      dyz     :     0.008172
      dx2y2   :     0.002381
      dxy     :     0.003551
  6 H s       :     0.841556  s :     0.841556
      pz      :     0.066482  p :     0.159730
      px      :     0.040136
      py      :     0.053112
      dz2     :     0.008914  d :     0.029094
      dxz     :     0.005910
      dyz     :     0.008103
      dx2y2   :     0.002487
      dxy     :     0.003680
  7 H s       :     0.835231  s :     0.835231
      pz      :     0.064854  p :     0.160746
      px      :     0.053751
      py      :     0.042141
      dz2     :     0.008807  d :     0.029497
      dxz     :     0.007734
      dyz     :     0.005421
      dx2y2   :     0.003746
      dxy     :     0.003789
  8 H s       :     0.842477  s :     0.842477
      pz      :     0.043741  p :     0.161608
      px      :     0.040350
      py      :     0.077518
      dz2     :     0.002654  d :     0.029251
      dxz     :     0.001029
      dyz     :     0.009156
      dx2y2   :     0.007914
      dxy     :     0.008498
  9 H s       :     0.836677  s :     0.836677
      pz      :     0.070423  p :     0.160587
      px      :     0.050028
      py      :     0.040136
      dz2     :     0.009187  d :     0.029440
      dxz     :     0.008525
      dyz     :     0.006832
      dx2y2   :     0.002368
      dxy     :     0.002527
 10 H s       :     0.831871  s :     0.831871
      pz      :     0.039664  p :     0.160547
      px      :     0.071120
      py      :     0.049763
      dz2     :     0.002613  d :     0.029328
      dxz     :     0.006311
      dyz     :     0.003531
      dx2y2   :     0.009271
      dxy     :     0.007602


                      *****************************
                      * MAYER POPULATION ANALYSIS *
                      *****************************

  NA   - Mulliken gross atomic population
  ZA   - Total nuclear charge
  QA   - Mulliken gross atomic charge
  VA   - Mayer's total valence
  BVA  - Mayer's bonded valence
  FA   - Mayer's free valence

  ATOM       NA         ZA         QA         VA         BVA        FA
  0 C      6.2943     6.0000    -0.2943     3.8472     3.8472    -0.0000
  1 S     15.0093    16.0000     0.9907     5.5859     5.5859    -0.0000
  2 C      6.3104     6.0000    -0.3104     3.8080     3.8080    -0.0000
  3 O      8.5693     8.0000    -0.5693     1.9464     1.9464     0.0000
  4 O      8.5694     8.0000    -0.5694     1.9467     1.9467    -0.0000
  5 H      0.8832     1.0000     0.1168     0.9899     0.9899    -0.0000
  6 H      0.8825     1.0000     0.1175     0.9894     0.9894    -0.0000
  7 H      0.8611     1.0000     0.1389     0.9916     0.9916     0.0000
  8 H      0.8941     1.0000     0.1059     0.9888     0.9888     0.0000
  9 H      0.8613     1.0000     0.1387     0.9904     0.9904    -0.0000
 10 H      0.8652     1.0000     0.1348     1.0001     1.0001    -0.0000

  Mayer bond orders larger than 0.1
B(  0-C ,  1-S ) :   0.9139 B(  0-C ,  5-H ) :   0.9604 B(  0-C ,  6-H ) :   0.9604 
B(  0-C , 10-H ) :   0.9636 B(  1-S ,  2-C ) :   0.8963 B(  1-S ,  3-O ) :   1.8551 
B(  1-S ,  4-O ) :   1.8544 B(  2-C ,  7-H ) :   0.9592 B(  2-C ,  8-H ) :   0.9654 
B(  2-C ,  9-H ) :   0.9588 

-------
TIMINGS
-------

Total SCF time: 0 days 0 hours 0 min 7 sec 

Total time                  ....       7.191 sec
Sum of individual times     ....       6.985 sec  ( 97.1%)

Fock matrix formation       ....       6.586 sec  ( 91.6%)
Diagonalization             ....       0.040 sec  (  0.6%)
Density matrix formation    ....       0.008 sec  (  0.1%)
Population analysis         ....       0.017 sec  (  0.2%)
Initial guess               ....       0.190 sec  (  2.6%)
Orbital Transformation      ....       0.000 sec  (  0.0%)
Orbital Orthonormalization  ....       0.000 sec  (  0.0%)
DIIS solution               ....       0.000 sec  (  0.0%)
SOSCF solution              ....       0.045 sec  (  0.6%)


           ************************************************************
           *        Program running with 8 parallel MPI-processes     *
           *              working on a common directory               *
           ************************************************************


------------------------------------------------------------------------------- 
                              ORCA-MATRIX DRIVEN CI                            
------------------------------------------------------------------------------- 


Wavefunction type
-----------------
Correlation treatment                      ...      CCSD     
Single excitations                         ... ON
Orbital optimization                       ... OFF
Calculation of Z vector                    ... OFF
Calculation of Brueckner orbitals          ... OFF
Perturbative triple excitations            ... ON
Calculation of F12 correction              ... OFF
Frozen core treatment                      ... chemical core (18 el)
Reference Wavefunction                     ... RHF
  Internal Orbitals:     9 ...   24 ( 16 MO's/ 32 electrons)
  Virtual  Orbitals:    25 ...  237 (213 MO's              )
Number of AO's                             ...    238
Number of electrons                        ...     50
Number of correlated electrons             ...     32

Algorithmic settings
--------------------
Integral transformation                    ... All integrals via the RI transformation
K(C) Formation                             ... RI-DLPNO
   PNO-Integral Storage                    ... ON DISK
   PNO occupation number cut-off           ... 1.000e-07
   Singles PNO occupation number cut-off   ... 3.000e-09
   PNO Mulliken prescreening cut-off       ... 1.000e-03
   Domain cut-off (Mulliken population)    ... 1.000e-03
   PNO Normalization                       ...    1
Maximum number of iterations               ...        50
Convergence tolerance (max. residuum)      ... 1.000e-05
Level shift for amplitude update           ... 2.000e-01
Maximum number of DIIS vectors             ...         7
DIIS turned on at iteration                ...         0
Damping before turning on DIIS             ...     0.500
Damping after turning on DIIS              ...     0.000
Pair specific amplitude update             ... OFF
Natural orbital iterations                 ... OFF
Perturbative natural orbital generation    ... OFF
Printlevel                                 ... 2

Singles Fock matrix elements calculated using PNOs.

Memory handling:
----------------
Maximum memory for working arrays          ...   8000 MB
Data storage in matrix containers          ... UNCOMPRESSED
Data type for integral storage             ... DOUBLE
In-Core Storage of quantities:
   Amplitudes+Sigma Vector      ... NO
   J+K operators                ... NO
   DIIS vectors                 ... NO
   3-external integrals         ... NO
   4-external integrals         ... NO

Localization treatment:
-----------------------
Localization option                        ...    6
Localization threshhold                    ... -1.0e+00
Using relative localization threshhold     ... 1.0e-08
Neglect threshold for strong pairs         ... 1.000e-05 Eh
Prescreening threshold for very weak pairs ... 1.000e-07 Eh

Initializing the integral package          ... done
Localizing the valence orbitals
------------------------------------------------------------------------------
                           ORCA ORBITAL LOCALIZATION
------------------------------------------------------------------------------

Input orbitals are from                  ... diMe_sulfone_ts.proc0.gbw
Output orbitals are to                   ... diMe_sulfone_ts.proc0.loc
Max. number of iterations                ... 128
Localizations seeded randomly            ... off
Convergence tolerance                    ... 1.000e-06
Using relative localization threshhold   ... 1.000e-08
Treshold for strong local MOs            ... 9.500e-01
Treshold for bond MOs                    ... 8.500e-01
Operator                                 ... 0
Orbital range for localization           ... 9 to 24
Localization criterion                   ... FOSTER-BOYS (AUGMENTED HESSIAN)
Doing the dipole integrals     ... o.k.
Initial value of the localization sum :   114.748404
ITERATION   0 : L=  146.9536389559 DL=  3.22e+01 (AVERGE_DL)=    0.5180511160 
ITERATION   1 : L=  151.4695639780 DL=  4.52e+00 (AVERGE_DL)=    0.1939915166 
ITERATION   2 : L=  151.5540481267 DL=  8.45e-02 (AVERGE_DL)=    0.0265336498 
ITERATION   3 : L=  151.5768002231 DL=  2.28e-02 (AVERGE_DL)=    0.0137695608 
ITERATION   4 : L=  151.5868596205 DL=  1.01e-02 (AVERGE_DL)=    0.0091557802 
ITERATION   5 : L=  151.5916054474 DL=  4.75e-03 (AVERGE_DL)=    0.0062887644 
ITERATION   6 : L=  151.5937977031 DL=  2.19e-03 (AVERGE_DL)=    0.0042742013 
ITERATION   7 : L=  151.5948223328 DL=  1.02e-03 (AVERGE_DL)=    0.0029220851 
ITERATION   8 : L=  151.5953050839 DL=  4.83e-04 (AVERGE_DL)=    0.0020057233 
ITERATION   9 : L=  151.5955349378 DL=  2.30e-04 (AVERGE_DL)=    0.0013839975 
ITERATION  10 : L=  151.5956453908 DL=  1.10e-04 (AVERGE_DL)=    0.0009593966 
ITERATION  11 : L=  151.5956988912 DL=  5.35e-05 (AVERGE_DL)=    0.0006677100 
ITERATION  12 : L=  151.5957249636 DL=  2.61e-05 (AVERGE_DL)=    0.0004661218 
ITERATION  13 : L=  151.5957377228 DL=  1.28e-05 (AVERGE_DL)=    0.0003260785 
ITERATION  14 : L=  151.5957439858 DL=  6.26e-06 (AVERGE_DL)=    0.0002284543 
ITERATION  15 : L=  151.5957470603 DL=  3.07e-06 (AVERGE_DL)=    0.0001600664 
ITERATION  16 : L=  151.5957485720 DL=  1.51e-06 (AVERGE_DL)=    0.0001122358 
ITERATION  17 : L=  151.5957493140 DL=  7.42e-07 (AVERGE_DL)=    0.0000786334 
LOCALIZATION SUM CONVERGED

------------------------------------------------------
AUGMENTED HESSIAN OPTIMIZATION OF FOSTER-BOYS ORBITALS
------------------------------------------------------

Spin operator:           0
Orbital window:          9 to 24
Number of iterations:    128
Gradient tolerance:      1.000e-06
Number of pairs:         120
Davidson threshold:      2000
Diagonalization method:  LAPACK
Iter:    0   L: 151.5957493140   Grad. norm: 1.126813e-03
   *** Likely close to a maximum now. ***
       Augmented Hessian eigenvalues:  1.43e-06 -3.06e-01 -3.09e-01 -4.66e-01 ... 
Iter:    1   L: 151.5957500291   Grad. norm: 1.189904e-06
Iter:    2   L: 151.5957500291   Grad. norm: 2.422721e-14
LOCALIZATION HAS CONVERGED.

Eigenvalues of the Hessian:
  0 -3.055e-01
  1 -3.092e-01
  2 -4.657e-01
  3 -4.706e-01
  4 -5.160e-01
  5 -5.223e-01
  6 -3.865e+00
  7 -3.880e+00
  8 -4.015e+00
  9 -4.030e+00
    ...


------------------------------------------------------------------------------- 
                    LOCALIZED MOLECULAR ORBITAL COMPOSITIONS                   
------------------------------------------------------------------------------- 

The Mulliken populations for each LMO on each atom are computed
The LMO`s will be ordered according to atom index and type
  (A) Strongly localized MO`s have populations of >=0.950 on one atom
  (B) Two center bond orbitals have populations of >=0.850 on two atoms
  (C) Other MO`s are considered to be `delocalized`

FOUND  -   0 strongly local MO`s
       -  16 two center bond MO`s
       -   0 significantly delocalized MO`s

Bond-like localized orbitals:
MO  24:  10H  -   0.439561  and   0C  -   0.565843
MO  23:   9H  -   0.440158  and   2C  -   0.572311
MO  22:   8H  -   0.462237  and   2C  -   0.546618
MO  21:   7H  -   0.439791  and   2C  -   0.572178
MO  20:   6H  -   0.453627  and   0C  -   0.555457
MO  19:   5H  -   0.453967  and   0C  -   0.555054
MO  18:   4O  -   0.578655  and   1S  -   0.433059
MO  17:   4O  -   0.897054  and   1S  -   0.106032
MO  16:   4O  -   0.911682  and   1S  -   0.089561
MO  15:   4O  -   0.912693  and   1S  -   0.087513
MO  14:   3O  -   0.578751  and   1S  -   0.432889
MO  13:   3O  -   0.897418  and   1S  -   0.106378
MO  12:   3O  -   0.911899  and   1S  -   0.088845
MO  11:   3O  -   0.912121  and   1S  -   0.088216
MO  10:   2C  -   0.495651  and   1S  -   0.535516
MO   9:   1S  -   0.533131  and   0C  -   0.495404
Localized MO's were stored in: diMe_sulfone_ts.proc0.loc

Localizing the core orbitals
------------------------------------------------------------------------------
                           ORCA ORBITAL LOCALIZATION
------------------------------------------------------------------------------

Input orbitals are from                  ... diMe_sulfone_ts.proc0.loc
Output orbitals are to                   ... diMe_sulfone_ts.proc0.loc
Max. number of iterations                ... 128
Localizations seeded randomly            ... off
Convergence tolerance                    ... 1.000e-06
Using relative localization threshhold   ... 1.000e-08
Treshold for strong local MOs            ... 9.500e-01
Treshold for bond MOs                    ... 8.500e-01
Operator                                 ... 0
Orbital range for localization           ... 0 to 8
Localization criterion                   ... FOSTER-BOYS (AUGMENTED HESSIAN)
Doing the dipole integrals     ... o.k.
Initial value of the localization sum :    38.002395
ITERATION   0 : L=   38.1547925639 DL=  1.52e-01 (AVERGE_DL)=    0.0650635179 
ITERATION   1 : L=   38.2076007664 DL=  5.28e-02 (AVERGE_DL)=    0.0383000589 
ITERATION   2 : L=   38.2089298670 DL=  1.33e-03 (AVERGE_DL)=    0.0060761389 
ITERATION   3 : L=   38.2089749172 DL=  4.51e-05 (AVERGE_DL)=    0.0011186569 
ITERATION   4 : L=   38.2089790407 DL=  4.12e-06 (AVERGE_DL)=    0.0003384381 
ITERATION   5 : L=   38.2089797634 DL=  7.23e-07 (AVERGE_DL)=    0.0001416932 
LOCALIZATION SUM CONVERGED

------------------------------------------------------
AUGMENTED HESSIAN OPTIMIZATION OF FOSTER-BOYS ORBITALS
------------------------------------------------------

Spin operator:           0
Orbital window:          0 to 8
Number of iterations:    128
Gradient tolerance:      1.000e-06
Number of pairs:         36
Davidson threshold:      2000
Diagonalization method:  LAPACK
Iter:    0   L: 38.2089797634   Grad. norm: 4.673765e-04
Iter:    1   L: 38.2090351925   Grad. norm: 3.122193e-04
Iter:    2   L: 38.2090620983   Grad. norm: 7.113166e-05
Iter:    3   L: 38.2090630576   Grad. norm: 9.283879e-07
   *** Likely close to a maximum now. ***
       Augmented Hessian eigenvalues:  3.05e-11 -3.45e-04 -6.71e-04 -9.97e-04 ... 
Iter:    4   L: 38.2090630576   Grad. norm: 1.240787e-11
LOCALIZATION HAS CONVERGED.

Eigenvalues of the Hessian:
  0 -3.453e-04
  1 -6.710e-04
  2 -9.967e-04
  3 -1.376e-01
  4 -1.378e-01
  5 -1.380e-01
  6 -4.132e-01
  7 -5.507e-01
  8 -5.513e-01
  9 -5.521e-01
    ...


------------------------------------------------------------------------------- 
                    LOCALIZED MOLECULAR ORBITAL COMPOSITIONS                   
------------------------------------------------------------------------------- 

The Mulliken populations for each LMO on each atom are computed
The LMO`s will be ordered according to atom index and type
  (A) Strongly localized MO`s have populations of >=0.950 on one atom
  (B) Two center bond orbitals have populations of >=0.850 on two atoms
  (C) Other MO`s are considered to be `delocalized`

FOUND  -   9 strongly local MO`s
       -   0 two center bond MO`s
       -   0 significantly delocalized MO`s

Rather strongly localized orbitals:
MO   8:   4O  -   0.999807
MO   7:   3O  -   0.999806
MO   6:   2C  -   1.000761
MO   5:   1S  -   0.999927
MO   4:   1S  -   0.999946
MO   3:   1S  -   0.999471
MO   2:   1S  -   1.000000
MO   1:   1S  -   0.999474
MO   0:   0C  -   1.000882
Localized MO's were stored in: diMe_sulfone_ts.proc0.loc

Warning: internal orbitals are localized - no re-canonicalization of internal orbitals

--------------------------
CLOSED-SHELL FOCK OPERATOR
--------------------------

RI-JK section for the Fock operator:
  RHF full Fock operator         ... done
  RHF frozen core Fock operator  ... done
Time needed for Fock operator              ...            1.087 sec
Reference energy                           ...   -626.539683325

--------------
DLPNO SETTINGS (2015 fully linear scaling implementation)
--------------

TCutMKN:           1.000e-03
TCutPAO:           1.000e-03
TCutPNO:           1.000e-07
TCutPNOSingles:    3.000e-09
TCutEN:            9.700e-01
TCutPAOExt:        1.000e-01
TCutPairs:         1.000e-05
TCutPre:           1.000e-07
TCutOSV:           1.000e-06
TCutDOij:          1.000e-05
TCutDO:            5.000e-03
TCutC:             1.000e-04
TCutCPAO:          1.000e-03
TCutCMO:           1.000e-03
TScaleDOMP2PreScr: 2.000e+00
TScaleMKNMP2PreScr:1.000e+01
TScalePNOMP2PreScr:1.000e+00
PAO overlap thresh 1.000e-08
Using PNOs for Singles Fock computation
Use new domains
Use fully linear algorithm
TCutTNO:           1.000e-09
TCutMP2Pairs:      1.000e-06
TCutDOStrong:      2.000e-03
TCutMKNStrong:     1.000e-02
TCutMKNWeak:       1.000e-01
TCutDOWeak:        4.000e-03
NTCutTNO:          1

--------------------------
Calculating differential overlap integrals ... ok
--------------------------
ELECTRON PAIR PRESCREENING
--------------------------

Dipole-based pair screening          .... used

   TCutDOij = 1.000000e-05
   TCutPre  = 1.000000e-07
   .... Finished loop over pairs
Total time spent in the prescreening                  ...     0.000 sec
sum of pair energies estimated for screened out pairs ...       0.000000000000 Eh
Thresholds for map construction and integral transformation for crude MP2:
   TCutMKN                    ...     1.0e-02
   TCutDO                     ...     1.0e-02
   TCutPairs                  ...     1.0e-05
   TCutPNO_CrudeMP2           ...     1.0e-07
   TCutPNOSingles_CrudeMP2    ...     3.0e-09
--------------------------------
LOCAL RI TRANSFORMATION (IAVPAO)
--------------------------------

Orbital window:       9 to 24
Number of PAOs:     238
Basis functions:    238 (88 shells)
Aux. functions:     626 (184 shells)

Processing maps (0.0 sec)
Average map sizes:
   Aux shells -> MOs              16.0
   Aux shells -> PAOs            238.0
   MOs        -> AO shells        88.0
   PAOs       -> AO shells        88.0

Calculating integrals (0.6 sec, 18.194 MB)
Sorting integrals (0.0 sec, 18.187 MB)
Total time for the integral transformation: 0.6 sec
--------------------------------
INITIAL GUESS AND PNO GENERATION
--------------------------------

PNO truncation parameters                   .... 
    PAOOverlapThresh   =        1.000e-08

    TCutPairs          =        1.000e-05
    TCutPNO            =        1.000e-07
    TCutPNOSingles     =        3.000e-09
    TCutMP2Pairs       =        1.000e-06
    TCutMKN            =        1.000e-02
    TCutDO             =        1.000e-02

Pair selection                          .... not used
Type of local MP2 treatment                 .... semi-local MP2
Strategy for PNO selection                  .... occupation number selection
Pair density normalization                  .... MP2 norm
Spin component scaling                      .... not used

   .... Finished loop over pairs
Making pair pair interaction lists          ... done

                       ===========================
                        136 OF  136 PAIRS ARE KEPT CCSD PAIRS
                          0 OF  136 PAIRS ARE KEPT MP2 PAIRS FOR (T)
                          0 OF  136 PAIRS ARE SKIPPED
                       ===========================

Total time spent in the initial guess                 ...     0.697 sec
SL-MP2 correlation energy (all non-screened pairs)    ...      -0.980548129014 Eh

Initial PNO correlation energy                        ...      -0.979737392471 Eh
sum of pair energies prescreened and skipped MP2 pairs...       0.000000000000 Eh
sum of pair energies of crude MP2 skipped pairs only  ...       0.000000000000 Eh
sum of MP2 pair energies for pairs that were not kept ...       0.000000000000 Eh
sum of PNO error estimates for the kept pairs         ...      -0.000810736543 Eh
                                                          --------------------
sum of all corrections                                         -0.000810736543
Initial total correlation energy                               -0.980548129014
Thresholds for map construction and integral transformation for fine MP2 and CCSD(T) calculation:
   TCutMKN   ...     1.0e-03
   TCutDO    ...     5.0e-03
   TCutPairs ...     1.0e-05
   TCutCMO   ...     1.0e-03
   TCutCPAO  ...     1.0e-03

Thresholds for map construction and integral transformation for strong Triples:
   TCutMKN   ...     1.0e-02
   TCutDO    ...     1.0e-02
   TCutCMO   ...     1.0e-03
   TCutCPAO  ...     1.0e-03

Thresholds for map construction and integral transformation for weak Triples:
   TCutMKN   ...     1.0e-01
   TCutDO    ...     2.0e-02
   TCutCMO   ...     1.0e-03
   TCutCPAO  ...     1.0e-03

--------------------------------
LOCAL RI TRANSFORMATION (IAVPAO)
--------------------------------

Orbital window:       9 to 24
Number of PAOs:     238
Basis functions:    238 (88 shells)
Aux. functions:     626 (184 shells)

Processing maps (0.0 sec)
Average map sizes:
   Aux shells -> MOs              16.0
   Aux shells -> PAOs            238.0
   MOs        -> AO shells        88.0
   PAOs       -> AO shells        88.0

Calculating integrals (0.6 sec, 18.194 MB)
Sorting integrals (0.0 sec, 18.187 MB)
Total time for the integral transformation: 0.6 sec
--------------------------------
INITIAL GUESS AND PNO GENERATION
--------------------------------

PNO truncation parameters                   .... 
    ScaleTCutPNO       =        1.000e-02
    PAOOverlapThresh   =        1.000e-08

    TCutPairs          =        1.000e-05
    TCutPNO            =        1.000e-07
    TCutPNOSingles     =        3.000e-09
    TCutMP2Pairs       =        1.000e-06
    TCutMKN            =        1.000e-03
    TCutDO             =        5.000e-03

Pair selection                          .... not used
Type of local MP2 treatment                 .... full local PMP2
Strategy for PNO selection                  .... occupation number selection
Pair density normalization                  .... MP2 norm
Spin component scaling                      .... not used

PASS-1: Formation of initial guess LMP2 amplitudes
Initial amplitudes guess done. Entering LMP2 iteration loop:
   Max. no of iterations          ...  50
   Energy convergence tolerance   ...    1.0e-07
   Residual convergence tolerance ...    5.0e-07
   Fock matrix cutoff             ...    1.0e-05 Eh
   DIIS convergence acceleration parameters:
        Max # vectors in DIIS     ... 7
        Start iteration of DIIS   ... 0
        Levelshift                ... 2.000e-01
        Damping factor 1          ... 5.000e-01
        Damping factor 2          ... 1.000e+00
   L-MP2 PNO cut-off              ...   1.0e-09
   L-MP2 PNO cut-off (core)       ...   1.0e-11
                           *** Turning on DIIS ***
LMP2-Iter=   0:  ELMP2= -1.005812251719  DE=   2.5e-02 RMAX=   5.9e-03
LMP2-Iter=   1:  ELMP2= -1.017524815945  DE=   1.2e-02 RMAX=   3.3e-03
LMP2-Iter=   2:  ELMP2= -1.019594224560  DE=   2.1e-03 RMAX=   7.8e-04
LMP2-Iter=   3:  ELMP2= -1.019871177834  DE=   2.8e-04 RMAX=   3.1e-04
LMP2-Iter=   4:  ELMP2= -1.019890191499  DE=   1.9e-05 RMAX=   4.5e-05
LMP2-Iter=   5:  ELMP2= -1.019887877209  DE=   2.3e-06 RMAX=   1.4e-05
LMP2-Iter=   6:  ELMP2= -1.019887389897  DE=   4.9e-07 RMAX=   1.9e-06
LMP2-Iter=   7:  ELMP2= -1.019887331392  DE=   5.9e-08 RMAX=   4.1e-07
LMP2-Iter=   8:  ELMP2= -1.019887341997  DE=   1.1e-08 RMAX=   6.3e-08 => CONVERGED
PASS-2: Formation of Pair natural orbitals
   .... Finished loop over pairs

 PNO Occupation Number Statistics: 
  | Av. % of trace(Dij) retained        ...  99.766312328164
  | sigma^2 in % of trace(Dij) retained ...   4.87e-02
  | Av. % of trace(Di) retained         ...  99.999775454087
  | sigma^2 in % of trace(Di) retained  ...   9.52e-09
 Distributions of % trace(Dij) recovered:
  |       >= 99.9  ...    59 ( 43.4 % of all pairs)
  |   [99.0, 99.9) ...    77 ( 56.6 % of all pairs)
 Distributions of % trace(Di) recovered :
  |       >= 99.9  ...    16 (100.0 % of all I-pairs )

Making pair pair interaction lists          ... done

                       ===========================
                        136 OF  136 PAIRS ARE KEPT
                       ===========================

Total time spent in the initial guess                 ...     5.771 sec
L-MP2 correlation energy (all non-screened pairs)     ...      -1.019887341997 Eh
L-MP2 PNO error correction                            ...      -0.000013543967 Eh
                                                          --------------------
Initial total L-MP2 energy (non-screened pairs)       ...      -1.019900885964 Eh

Initial PNO correlation energy                        ...      -1.019106840371 Eh
sum of pair energies estimated for screened out pairs ...       0.000000000000 Eh
sum of MP2 pair energies for pairs that were not kept ...       0.000000000000 Eh
sum of PNO error estimates for the kept pairs         ...      -0.000794045593 Eh
                                                          --------------------
sum of all corrections                                         -0.000794045593
Initial total correlation energy                               -1.019900885964
Thresholds for map construction and integral transformation for fine MP2 and CCSD(T) calculation:
   TCutMKN   ...     1.0e-03
   TCutDO    ...     5.0e-03
   TCutPairs ...     1.0e-05
   TCutCMO   ...     1.0e-03
   TCutCPAO  ...     1.0e-03

Time for aux screen maps:            0.002
Time for maps after fine MP2:            0.007
-----------------------------
LOCAL RI TRANSFORMATION (IJV)
-----------------------------

Orbital window:       9 to 24
Basis functions:    238 (88 shells)
Aux. functions:     626 (184 shells)

Processing maps (0.0 sec)
Average map sizes:
   Aux shells -> MOs(i)           16.0
   Aux shells -> MOs(j)           16.0
   MOs        -> AO shells        88.0

Calculating integrals (0.6 sec, 1.230 MB)
Sorting integrals (0.0 sec, 1.223 MB)
Total time for the integral transformation: 0.6 sec
--------------------------------
LOCAL RI TRANSFORMATION (VABPAO)
--------------------------------

Number of PAOs:     238
Basis functions:    238 (88 shells)
Aux. functions:     626 (184 shells)

Processing maps (0.0 sec)
Average map sizes:
   Aux shells -> PAOs            238.0
   PAOs       -> AO shells        88.0

Calculating integrals (1.0 sec, 512.122 MB)
Finished


-------------------------------------
Pair Pair Term precalculation with     
RI-(ij|mn) and (im|jn) transformation  
ON THE FLY                             
-------------------------------------

   IBatch   1 (of   1)              ... done (   22.424 sec)
Total EXT                           ...          22.424 sec

---------------------
RI-PNO TRANSFORMATION
---------------------

Total Number of PNOs                   ...  6076
Average number of PNOs per pair        ...    44
Maximal number of PNOs per pair        ...    68
   #pairs with  1 -  5 PNOs   :    0
   #pairs with  6 - 10 PNOs   :    0
   #pairs with 11 - 15 PNOs   :    0
   #pairs with 16 - 20 PNOs   :    0
   #pairs with 21 - 25 PNOs   :    2
   #pairs with 26 - 30 PNOs   :    8
   #pairs with 31 - 35 PNOs   :   25
   #pairs with 36 - 40 PNOs   :   20
   #pairs with 41 - 45 PNOs   :   18
   #pairs with 46 - 50 PNOs   :   20
   #pairs with 51 - 55 PNOs   :   19
   #pairs with 56 - 60 PNOs   :    9
   #pairs with 61 - 65 PNOs   :   14
   #pairs with 66 - 70 PNOs   :    1

Generation of (ij|ab)[P] integrals            ... on
Generation of (ia|bc)[P],(ja|bc)[P] integrals ... on
Storage of 3 and 4 external integrals         ... on
Generation of ALL (ka|bc)[P] integrals        ... on
Keep RI integrals in memory                   ... off

Ibatch:  1 (of  1)
Starting 2-4 index PNO integral generation ... done

Timings:
Total PNO integral transformation time     ...          8.949 sec
Size of the 3-external file                ...       111 MB
Size of the 4-external file                ...       741 MB
Size of the IKJL file                      ...         0 MB
Size of the all 3-external file            ...       894 MB
Size of the 1-external file                ...         2 MB

Making pair/pair overlap matrices          ... done (    0.845 sec)
Size of the pair overlap file              ... 202 MB
Redoing the guess amplitudes               ... done (    0.003 sec)

-------------------------
FINAL STARTUP INFORMATION
-------------------------

E(0)                                       ...   -626.539683325
E(L-MP2)                                   ...     -1.019900886
E(L-MP2) including corrections             ...     -1.019900886
Initial E(tot)                             ...   -627.559584211
<T|T>                                      ...      0.259668605
Number of pairs included                   ... 136
Total number of pairs                      ... 136

------------------------------------------------
                  RHF COUPLED CLUSTER ITERATIONS
------------------------------------------------

Number of PNO amplitudes to be optimized   ...       287968
Number of non-PNO amplitudes               ...      6170184
Untruncated number of regular amplitudes   ...      6170184

Iter       E(tot)           E(Corr)          Delta-E          Residual     Time
  0   -627.520331459     -0.979854088      0.040046798      0.020119213    6.87
                           *** Turning on DIIS ***
  1   -627.552017193     -1.011539822     -0.031685735      0.005870607    6.81
  2   -627.577579030     -1.037101659     -0.025561837      0.004062001    6.48
  3   -627.582982787     -1.042505416     -0.005403757      0.001747809    6.67
  4   -627.584657233     -1.044179862     -0.001674445      0.000987081    9.18
  5   -627.585214308     -1.044736937     -0.000557075      0.000423417    5.94
  6   -627.585336810     -1.044859439     -0.000122502      0.000154178    6.18
  7   -627.585367734     -1.044890363     -0.000030924      0.000056480    6.84
  8   -627.585369018     -1.044891647     -0.000001284      0.000034381    6.80
  9   -627.585366820     -1.044889449      0.000002198      0.000012130    6.42
 10   -627.585367023     -1.044889652     -0.000000203      0.000005322    6.70
               --- The Coupled-Cluster iterations have converged ---

----------------------
COUPLED CLUSTER ENERGY
----------------------

E(0)                                       ...   -626.539683325
E(CORR)(strong-pairs)                      ...     -1.044889652
E(CORR)(weak-pairs)                        ...     -0.000794046
E(CORR)(corrected)                         ...     -1.045683698
E(TOT)                                     ...   -627.585367023
Singles Norm <S|S>**1/2                    ...      0.084197758  
T1 diagnostic                              ...      0.014884201  

------------------
LARGEST AMPLITUDES
------------------
  10-> 25  10-> 25       0.032856
   9-> 25   9-> 25       0.031434
  22-> 32  22-> 32       0.031289
  21-> 33  21-> 33       0.028591
  18-> 25  18-> 25       0.027654
  14-> 25  14-> 25       0.027299
  13-> 25  -1-> -1       0.027064
  19-> 25  19-> 25       0.026906
  20-> 25  20-> 25       0.026873
  22-> 25  22-> 25       0.026601
  17-> 25  -1-> -1       0.026204
  11-> 26  -1-> -1       0.026191
  22-> 25  22-> 32       0.025997
  22-> 32  22-> 25       0.025997
  24-> 25  24-> 25       0.025817
  23-> 25  23-> 25       0.025755


-------------------------------------------
DLPNO BASED TRIPLES CORRECTION
-------------------------------------------

Singles multiplier          ...  1.000000
TCutTNO                     ... 1.000e-09
TCutMP2Pairs                ... 1.000e-06
TCutDOStrong                ... 1.000e-02
TCutMKNStrong               ... 1.000e-02
TCutDOWeak                  ... 2.000e-02
TCutMKNWeak                 ... 1.000e-01

Fragment selection                          .... not used
Number of Triples that are to be computed   ...       800

 . . . . . . . . .
10% done  
20% done  
30% done  
40% done  
50% done  
60% done  
70% done  
80% done  
90% done               (     52.563 sec)
Triples timings:
Total time for T0               ...    55.518 sec
Total time for Iterative (T)    ...     0.000 sec
Total time of overall (T)       ...    55.519 sec

Triples List generation         ...     0.000 sec
TNO generation                  ...     2.949 sec
Pair density generation         ...     0.003 sec
Look up tables                  ...     0.000 sec
Generating 3-index integrals    ...    26.479 sec
  Make 4-ind.int. from 3-ind.int...     9.104 sec
  Projecting amplitudes (D + S) ...     3.823 sec
  Downprojecting integrals      ...     0.002 sec
  Energy contr. (sum over a,b,c)...     3.995 sec
Fitting ET(->0)                 ...     0.000 sec

Everything after 3-index        ...    26.084 sec

Timing details:
 TNO integrals                  ...    34.836 sec
   Reading 3-index integrals    ...     0.103 sec
   Sorting integrals            ...     6.303 sec
       Sorting integrals 1      ...     0.000 sec
       Sorting integrals 2      ...     1.914 sec
       Sorting integrals 3      ...     0.204 sec
       Sorting integrals 4      ...     0.009 sec
       Sorting integrals 5      ...     0.055 sec
       Sorting integrals 6      ...     4.121 sec
   Calculating local VM**-1/2   ...     0.131 sec
   Orthogonal. integrals        ...     0.342 sec
   Multipl. 3-index integrals   ...    27.957 sec
   All concerning IRIab (w/TNO) ...     4.284 sec

 Calculate W0/W1                ...     9.156 sec
 W 3-ext contribution           ...     4.851 sec
 W 3-int contribution           ...     1.322 sec
 Sorting W                      ...     2.850 sec

 V exchange contribution        ...     1.244 sec

 Timings for Triples without generation
     of 3-index integrals       ...    26.083 sec
       0 weak pairs             ...    26.083 sec
       1 weak pair              ...     0.000 sec
       2 weak pairs             ...     0.000 sec
       3 weak pairs             ...     0.000 sec
  Extra time for extrapolation  ...     0.000 sec

Number of Triples   (0, 1, 2, 3 weak pairs; overall):    800       0       0       0  (   800)
Number of Atoms     (0, 1, 2, 3 weak pairs; overall):   11.0     0.0     0.0     0.0  (    11)
Number of PAOs      (0, 1, 2, 3 weak pairs; overall):  237.7     0.0     0.0     0.0  (   238)
Number of AuxFcns   (0, 1, 2, 3 weak pairs; overall):  334.0     0.0     0.0     0.0  (   626)
Number of TNOs      (0, 1, 2, 3 weak pairs         ):   98.9     0.0     0.0     0.0
Aver. Number of NTNO, Atoms, PAOs, AuxFcns / Triples:    800    98.9    11.0   237.7   334.0

Triples Correction (T)                     ...     -0.042585270
Final correlation energy                   ...     -1.088268968
E(CCSD)                                    ...   -627.585367023
E(CCSD(T))                                 ...   -627.627952293


Maximum memory used throughout the entire calculation: 4657.7 MB


------------------------------------------------------------------------------- 
                                     TIMINGS                                   
------------------------------------------------------------------------------- 


Total execution time                   ...      180.410 sec

Localization of occupied MO's          ...        0.544 sec (  0.3%)
Fock Matrix Formation                  ...        1.087 sec (  0.6%)
Global overlap, Fock, MKN matrices     ...        0.171 sec (  0.1%)
Differential overlap integrals         ...        0.076 sec (  0.0%)
Organizing maps                        ...        0.021 sec (  0.0%)
RI 3-index integral generations        ...        2.921 sec (  1.6%)
RI-PNO integral transformation         ...       38.159 sec ( 21.2%)
Initial Guess                          ...        6.511 sec (  3.6%)
DIIS Solver                            ...        1.052 sec (  0.6%)
State Vector Update                    ...        0.025 sec (  0.0%)
Sigma-vector construction              ...       74.645 sec ( 41.4%)
  <D|H|D>(0-ext)                       ...        1.509 sec (  2.0% of sigma)
  <D|H|D>(2-ext Fock)                  ...        0.010 sec (  0.0% of sigma)
  <D|H|D>(2-ext)                       ...        5.554 sec (  7.4% of sigma)
  <D|H|D>(4-ext)                       ...       10.421 sec ( 14.0% of sigma)
  <D|H|D>(4-ext-corr)                  ...       42.511 sec ( 57.0% of sigma)
  CCSD doubles correction              ...        0.123 sec (  0.2% of sigma)
  <S|H|S>                              ...        0.504 sec (  0.7% of sigma)
  <S|H|D>(1-ext)                       ...        0.220 sec (  0.3% of sigma)
  <D|H|S>(1-ext)                       ...        0.007 sec (  0.0% of sigma)
  <S|H|D>(3-ext)                       ...        0.373 sec (  0.5% of sigma)
  Fock-dressing                        ...       10.237 sec ( 13.7% of sigma)
  Singles amplitudes                   ...        0.284 sec (  0.4% of sigma)
  (ik|jl)-dressing                     ...        1.123 sec (  1.5% of sigma)
  (ij|ab),(ia|jb)-dressing             ...        1.601 sec (  2.1% of sigma)
  Pair energies                        ...        0.006 sec (  0.0% of sigma)
Total Time for computing (T)           ...       55.549 sec ( 30.8% of ALL)


-------------------------   --------------------
FINAL SINGLE POINT ENERGY      -627.627952293039
-------------------------   --------------------


                            ***************************************
                            *     ORCA property calculations      *
                            ***************************************

                                    ---------------------
                                    Active property flags
                                    ---------------------
   (+) Dipole Moment


------------------------------------------------------------------------------
                       ORCA ELECTRIC PROPERTIES CALCULATION
------------------------------------------------------------------------------

Dipole Moment Calculation                       ... on
Quadrupole Moment Calculation                   ... off
Polarizability Calculation                      ... off
GBWName                                         ... diMe_sulfone_ts.gbw
Electron density file                           ... diMe_sulfone_ts.scfp.tmp
The origin for moment calculation is the CENTER OF MASS  = (-0.006658, -0.132549 -0.000049)

-------------
DIPOLE MOMENT
-------------
                                X             Y             Z
Electronic contribution:     -0.22295      -4.60100      -0.00018
Nuclear contribution   :      0.33216       6.62614       0.00152
                        -----------------------------------------
Total Dipole Moment    :      0.10921       2.02514       0.00134
                        -----------------------------------------
Magnitude (a.u.)       :      2.02809
Magnitude (Debye)      :      5.15499



--------------------
Rotational spectrum 
--------------------
 
Rotational constants in cm-1:     0.151792     0.140762     0.137701 
Rotational constants in MHz :  4550.618218  4219.948913  4128.180025 

 Dipole components along the rotational axes: 
x,y,z [a.u.] :    -0.162356     2.021576    -0.001977 
x,y,z [Debye]:    -0.412676     5.138439    -0.005025 

 

Timings for individual modules:

Sum of individual times         ...      188.646 sec (=   3.144 min)
GTO integral calculation        ...        0.691 sec (=   0.012 min)   0.4 %
SCF iterations                  ...        7.312 sec (=   0.122 min)   3.9 %
MDCI module                     ...      180.644 sec (=   3.011 min)  95.8 %
                             ****ORCA TERMINATED NORMALLY****
TOTAL RUN TIME: 0 days 0 hours 3 minutes 8 seconds 968 msec
diMe_sulfone_ts.gbw -> /home1/pantazis/klk/xyz/Energy_barrier/diMe_sulfone_ts.gbw
diMe_sulfone_ts.job -> /home1/pantazis/klk/xyz/Energy_barrier/diMe_sulfone_ts.job
diMe_sulfone_ts.loc -> /home1/pantazis/klk/xyz/Energy_barrier/diMe_sulfone_ts.loc
diMe_sulfone_ts.nodes -> /home1/pantazis/klk/xyz/Energy_barrier/diMe_sulfone_ts.nodes
diMe_sulfone_ts.prop -> /home1/pantazis/klk/xyz/Energy_barrier/diMe_sulfone_ts.prop
diMe_sulfone_ts_property.txt -> /home1/pantazis/klk/xyz/Energy_barrier/diMe_sulfone_ts_property.txt
diMe_sulfone_ts.xyz -> /home1/pantazis/klk/xyz/Energy_barrier/diMe_sulfone_ts.xyz
cp: cannot stat diMe_sulfone_ts.asa.inp: No such file or directory
