! Job execution by suborca V 6.07 on ZEUS !
Job started from zeus1, running /scratch/pantazis/EtdiMeNH_g__TqwYCu/orca/orca copied from /opt/orca on zeussn151 in /scratch/pantazis/EtdiMeNH_g__TqwYCu
Job execution start: Fri Jun 28 09:12:12 CEST 2019
Shared library path: /scratch/pantazis/EtdiMeNH_g__TqwYCu/orca:/opt/openmpi_1.10.2/lib:/opt/intel/mkl/lib/intel64:/opt/intel/lib/intel64:
PBS Job ID is: 158344.icqc
izeussn151
izeussn151
izeussn151
izeussn151
izeussn151
izeussn151
izeussn151
izeussn151

                                 *****************
                                 * O   R   C   A *
                                 *****************

           --- An Ab Initio, DFT and Semiempirical electronic structure package ---

                  #######################################################
                  #                        -***-                        #
                  #          Department of theory and spectroscopy      #
                  #               Directorship: Frank Neese             #
                  #        Max Planck Institute fuer Kohlenforschung    #
                  #                Kaiser Wilhelm Platz 1               #
                  #                 D-45470 Muelheim/Ruhr               #
                  #                      Germany                        #
                  #                                                     #
                  #                  All rights reserved                #
                  #                        -***-                        #
                  #######################################################


                         Program Version 4.1.x  -  STABLE  -
                                (SVN: $Rev: 14094$)
                ($Date: 2019-06-14 15:01:15 +0200 (Fri, 14 Jun 2019) $)

                         (BUILD: $Sun Jun 23 06:18:31 CEST 2019$)


 With contributions from (in alphabetic order):
   Daniel Aravena         : Magnetic Properties
   Michael Atanasov       : Ab Initio Ligand Field Theory
   Alexander A. Auer      : GIAO ZORA
   Ute Becker             : Parallelization
   Giovanni Bistoni       : ED, Open-shell LED
   Martin Brehm           : Molecular dynamics
   Dmytro Bykov           : SCF Hessian
   Vijay G. Chilkuri      : MRCI spin determinant printing
   Dipayan Datta          : RHF DLPNO-CCSD density
   Achintya Kumar Dutta   : EOM-CC, STEOM-CC
   Dmitry Ganyushin       : Spin-Orbit,Spin-Spin,Magnetic field MRCI
   Miquel Garcia          : C-PCM Hessian
   Yang Guo               : DLPNO-NEVPT2, CIM, IAO-localization
   Andreas Hansen         : Spin unrestricted coupled pair/coupled cluster methods
   Benjamin Helmich-Paris : CASSCF linear response (MC-RPA)
   Lee Huntington         : MR-EOM, pCC
   Robert Izsak           : Overlap fitted RIJCOSX, COSX-SCS-MP3, EOM
   Christian Kollmar      : KDIIS, OOCD, Brueckner-CCSD(T), CCSD density
   Simone Kossmann        : Meta GGA functionals, TD-DFT gradient, OOMP2, MP2 Hessian
   Martin Krupicka        : AUTO-CI
   Lucas Lang             : DCDCAS
   Dagmar Lenk            : GEPOL surface, SMD
   Dimitrios Liakos       : Extrapolation schemes; parallel MDCI
   Dimitrios Manganas     : ROCIS; embedding schemes
   Dimitrios Pantazis     : SARC Basis sets
   Taras Petrenko         : DFT Hessian,TD-DFT gradient, ASA, ECA, R-Raman, ABS, FL, XAS/XES, NRVS
   Peter Pinski           : DLPNO-MP2, DLPNO-MP2 Gradient
   Christoph Reimann      : Effective Core Potentials
   Marius Retegan         : Local ZFS, SOC
   Christoph Riplinger    : Optimizer, TS searches, QM/MM, DLPNO-CCSD(T), (RO)-DLPNO pert. Triples
   Tobias Risthaus        : Range-separated hybrids, TD-DFT gradient, RPA, STAB
   Michael Roemelt        : Restricted open shell CIS
   Masaaki Saitow         : Open-shell DLPNO
   Barbara Sandhoefer     : DKH picture change effects
   Avijit Sen             : IP-ROCIS
   Kantharuban Sivalingam : CASSCF convergence, NEVPT2, FIC-MRCI
   Bernardo de Souza      : ESD, SOC TD-DFT
   Georgi Stoychev        : AutoAux, RI-MP2 NMR
   Willem Van den Heuvel  : Paramagnetic NMR
   Boris Wezisla          : Elementary symmetry handling
   Frank Wennmohs         : Technical directorship


 We gratefully acknowledge several colleagues who have allowed us to
 interface, adapt or use parts of their codes:
   Stefan Grimme, W. Hujo, H. Kruse,             : VdW corrections, initial TS optimization,
                  C. Bannwarth                     DFT functionals, gCP, sTDA/sTD-DF
   Ed Valeev                                     : LibInt (2-el integral package), F12 methods
   Garnet Chan, S. Sharma, J. Yang, R. Olivares  : DMRG
   Ulf Ekstrom                                   : XCFun DFT Library
   Mihaly Kallay                                 : mrcc  (arbitrary order and MRCC methods)
   Andreas Klamt, Michael Diedenhofen            : otool_cosmo (COSMO solvation model)
   Jiri Pittner, Ondrej Demel                    : Mk-CCSD
   Frank Weinhold                                : gennbo (NPA and NBO analysis)
   Christopher J. Cramer and Donald G. Truhlar   : smd solvation model
   Lars Goerigk                                  : TD-DFT with DH, B97 family of functionals
   V. Asgeirsson, H. Jonsson                     : NEB implementation
   FAccTs GmbH                                   : IRC, NEB, NEB-TS, Multilevel


 Your calculation uses the libint2 library for the computation of 2-el integrals
 For citations please refer to: http://libint.valeyev.net

 This ORCA versions uses:
   CBLAS   interface :  Fast vector & matrix operations
   LAPACKE interface :  Fast linear algebra routines
   SCALAPACK package :  Parallel linear algebra routines




***************************************
The coordinates will be read from file: EtdiMeNH_g.xyz
***************************************


----- Orbital basis set information -----
Your calculation utilizes the basis: cc-pVTZ 
       H, B-Ne : Obtained from the ccRepo (grant-hill.group.shef.ac.uk/ccrepo) Feb. 2017
                 T. H. Dunning, Jr., J. Chem. Phys. 90, 1007 (1989)
            He : Obtained from the ccRepo (grant-hill.group.shef.ac.uk/ccrepo) Feb. 2017
                 D. E. Woon, T. H. Dunning, Jr., J. Chem. Phys. 100, 2975 (1994)
  Li-Be, Na-Mg : Obtained from the ccRepo (grant-hill.group.shef.ac.uk/ccrepo) Feb. 2017
                 B. P. Prascher, D. E. Woon, K. A. Peterson, T. H. Dunning, Jr., A. K. Wilson, Theor. Chem. Acc. 128, 69 (2011)
         Al-Ar : Obtained from the ccRepo (grant-hill.group.shef.ac.uk/ccrepo) Feb. 2017
                 D. E. Woon, T. H. Dunning, Jr., J. Chem. Phys. 98, 1358 (1993)
            Ca : Obtained from the Peterson Research Group Website (tyr0.chem.wsu.edu/~kipeters) Feb. 2017
                 J. Koput, K. A. Peterson, J. Phys. Chem. 106, 9595 (2002)
         Sc-Zn : Obtained from the ccRepo (grant-hill.group.shef.ac.uk/ccrepo) Feb. 2017
                 N. B. Balabanov, K. A. Peterson, J. Chem. Phys. 123, 064107 (2005)
                 N. B. Balabanov, K. A. Peterson, J. Chem. Phys. 125, 074110 (2006)
         Ga-Kr : Obtained from the ccRepo (grant-hill.group.shef.ac.uk/ccrepo) Feb. 2017
                 A. K. Wilson, D. E. Woon, K. A. Peterson, T. H. Dunning, Jr., J. Chem. Phys. 110, 7667 (1999)
             Y : Obtained from the ccRepo (grant-hill.group.shef.ac.uk/ccrepo) Feb. 2017
                 K. A. Peterson, D. Figgen, M. Dolg, H. Stoll, J. Chem. Phys. 126, 124101 (2007)
        Ag, Au : Obtained from the Peterson Research Group Website (tyr0.chem.wsu.edu/~kipeters) Feb. 2017
                 K. A. Peterson, C. Puzzarini, Theor. Chem. Acc. 114, 283 (2005)

----- AuxC basis set information -----
Your calculation utilizes the auxiliary basis: cc-pVTZ/C 
  Obtained from the EMSL Basis Set Exchange (bse.pnl.gov) Feb. 2017
  H-He, B-F, Al-Ar, Ga-Kr : F. Weigend, A. Kohn, C. Hattig, J. Chem. Phys. 116, 3175 (2002)
             Li-Be, Na-Mg : C. Haettig, Phys. Chem. Chem. Phys. 7, 59 (2005)
                       Ne : C. Haettig, Phys. Chem. Chem. Phys. 7, 59 (2005)
                            F. Weigend, A. Kohn, C. Hattig, J. Chem. Phys. 116, 3175 (2002)
                    Sc-Zn : J. G. Hill, J. A. Platts, J. Chem. Phys. 128, 044104 (2008)

----- AuxJK basis set information -----
Your calculation utilizes the auxiliary basis: cc-pVTZ/JK 
  H, B-F, Al-Cl, Ga-Br : Obtained from the TURBOMOLE 7.0 basis set library

================================================================================
                                        WARNINGS
                       Please study these warnings very carefully!
================================================================================


WARNING: MDCI localization with Augmented Hessian Foster-Boys
  ===> : Switching off randomization!

WARNING: Post HF methods need fully converged wavefunctions
  ===> : Setting SCFConvForced true
         You can overwrite this default with %scf ConvForced false 


INFO   : the flag for use of LIBINT has been found!

================================================================================
                                       INPUT FILE
================================================================================
NAME = EtdiMeNH_g.inp
|  1> ! RHF DLPNO-CCSD(T) cc-pVTZ RIJK cc-pVTZ/JK cc-pVTZ/C
|  2> ! KDIIS SOSCF TightSCF TightPNO
|  3> 
|  4> %pal nprocs 8 end
|  5> 
|  6> %maxcore 8000
|  7> 
|  8> %scf maxiter 300
|  9>      shift shift 0.2 erroff 0.1 end
| 10> end
| 11> 
| 12> * xyzfile 1 1 EtdiMeNH_g.xyz 
| 13> 
| 14> 
| 15>                          ****END OF INPUT****
================================================================================

                       ****************************
                       * Single Point Calculation *
                       ****************************

---------------------------------
CARTESIAN COORDINATES (ANGSTROEM)
---------------------------------
  C     -1.803420   -0.000010   -0.513620
  C     -0.921370    0.000000    0.725680
  N      0.583150   -0.000000    0.432590
  C      1.051630    1.246380   -0.272680
  C      1.051650   -1.246370   -0.272670
  H     -2.844170   -0.000020   -0.177200
  H     -1.666300    0.891640   -1.130080
  H     -1.666280   -0.891670   -1.130060
  H     -1.098030    0.885810    1.341210
  H     -1.098020   -0.885780    1.341240
  H      2.141300   -1.234690   -0.313820
  H      0.706960   -2.118690    0.283600
  H      0.644050   -1.257210   -1.282390
  H      1.035250    0.000010    1.351800
  H      0.706910    2.118690    0.283580
  H      0.644040    1.257180   -1.282400
  H      2.141280    1.234730   -0.313800

----------------------------
CARTESIAN COORDINATES (A.U.)
----------------------------
  NO LB      ZA    FRAG     MASS         X           Y           Z
   0 C     6.0000    0    12.011   -3.407970   -0.000019   -0.970601
   1 C     6.0000    0    12.011   -1.741137    0.000000    1.371336
   2 N     7.0000    0    14.007    1.101994   -0.000000    0.817477
   3 C     6.0000    0    12.011    1.987293    2.355317   -0.515291
   4 C     6.0000    0    12.011    1.987330   -2.355298   -0.515272
   5 H     1.0000    0     1.008   -5.374702   -0.000038   -0.334859
   6 H     1.0000    0     1.008   -3.148851    1.684955   -2.135542
   7 H     1.0000    0     1.008   -3.148813   -1.685012   -2.135504
   8 H     1.0000    0     1.008   -2.074976    1.673938    2.534520
   9 H     1.0000    0     1.008   -2.074957   -1.673882    2.534576
  10 H     1.0000    0     1.008    4.046471   -2.333226   -0.593034
  11 H     1.0000    0     1.008    1.335961   -4.003744    0.535926
  12 H     1.0000    0     1.008    1.217078   -2.375783   -2.423366
  13 H     1.0000    0     1.008    1.956339    0.000019    2.554532
  14 H     1.0000    0     1.008    1.335866    4.003744    0.535889
  15 H     1.0000    0     1.008    1.217059    2.375726   -2.423385
  16 H     1.0000    0     1.008    4.046433    2.333302   -0.592996

--------------------------------
INTERNAL COORDINATES (ANGSTROEM)
--------------------------------
 C      0   0   0     0.000000000000     0.00000000     0.00000000
 C      1   0   0     1.521143218964     0.00000000     0.00000000
 N      2   1   0     1.532802067620   114.41717354     0.00000000
 C      3   2   1     1.506765538397   113.24609117    64.19466360
 C      3   2   1     1.506758804355   113.24693448   295.80583569
 H      1   2   3     1.093772818733   107.52738656   179.99939862
 H      1   2   3     1.092641088601   112.76065617   297.75250204
 H      1   2   3     1.092640475545   112.75975025    62.24703722
 H      2   1   3     1.093044048792   111.41259058   119.48464823
 H      2   1   3     1.093035015221   111.41382321   240.51455447
 H      5   3   2     1.090489278902   108.63243364   188.12974312
 H      5   3   2     1.090499743879   108.94408767   308.07436855
 H      5   3   2     1.088939733870   109.01783439    68.47503585
 H      3   2   1     1.024373678986   105.16607384   179.99983415
 H      4   3   2     1.090496126586   108.94371805    51.92435606
 H      4   3   2     1.088935593366   109.01683086   291.52332117
 H      4   3   2     1.090487826342   108.63217929   171.86806873

---------------------------
INTERNAL COORDINATES (A.U.)
---------------------------
 C      0   0   0     0.000000000000     0.00000000     0.00000000
 C      1   0   0     2.874544094313     0.00000000     0.00000000
 N      2   1   0     2.896576125310   114.41717354     0.00000000
 C      3   2   1     2.847374215600   113.24609117    64.19466360
 C      3   2   1     2.847361490105   113.24693448   295.80583569
 H      1   2   3     2.066931080133   107.52738656   179.99939862
 H      1   2   3     2.064792420126   112.76065617   297.75250204
 H      1   2   3     2.064791261618   112.75975025    62.24703722
 H      2   1   3     2.065553904530   111.41259058   119.48464823
 H      2   1   3     2.065536833555   111.41382321   240.51455447
 H      5   3   2     2.060726089102   108.63243364   188.12974312
 H      5   3   2     2.060745865042   108.94408767   308.07436855
 H      5   3   2     2.057797873359   109.01783439    68.47503585
 H      3   2   1     1.935785712082   105.16607384   179.99983415
 H      4   3   2     2.060739029350   108.94371805    51.92435606
 H      4   3   2     2.057790048941   109.01683086   291.52332117
 H      4   3   2     2.060723344161   108.63217929   171.86806873

---------------------
BASIS SET INFORMATION
---------------------
There are 3 groups of distinct atoms

 Group   1 Type C   : 18s5p2d1f contracted to 4s3p2d1f pattern {8811/311/11/1}
 Group   2 Type N   : 18s5p2d1f contracted to 4s3p2d1f pattern {8811/311/11/1}
 Group   3 Type H   : 5s2p1d contracted to 3s2p1d pattern {311/11/1}

Atom   0C    basis set group =>   1
Atom   1C    basis set group =>   1
Atom   2N    basis set group =>   2
Atom   3C    basis set group =>   1
Atom   4C    basis set group =>   1
Atom   5H    basis set group =>   3
Atom   6H    basis set group =>   3
Atom   7H    basis set group =>   3
Atom   8H    basis set group =>   3
Atom   9H    basis set group =>   3
Atom  10H    basis set group =>   3
Atom  11H    basis set group =>   3
Atom  12H    basis set group =>   3
Atom  13H    basis set group =>   3
Atom  14H    basis set group =>   3
Atom  15H    basis set group =>   3
Atom  16H    basis set group =>   3
-------------------------------
AUXILIARY BASIS SET INFORMATION
-------------------------------
There are 3 groups of distinct atoms

 Group   1 Type C   : 8s6p5d3f1g contracted to 8s6p5d3f1g pattern {11111111/111111/11111/111/1}
 Group   2 Type N   : 8s6p5d3f1g contracted to 8s6p5d3f1g pattern {11111111/111111/11111/111/1}
 Group   3 Type H   : 4s3p2d1f contracted to 4s3p2d1f pattern {1111/111/11/1}

Atom   0C    basis set group =>   1
Atom   1C    basis set group =>   1
Atom   2N    basis set group =>   2
Atom   3C    basis set group =>   1
Atom   4C    basis set group =>   1
Atom   5H    basis set group =>   3
Atom   6H    basis set group =>   3
Atom   7H    basis set group =>   3
Atom   8H    basis set group =>   3
Atom   9H    basis set group =>   3
Atom  10H    basis set group =>   3
Atom  11H    basis set group =>   3
Atom  12H    basis set group =>   3
Atom  13H    basis set group =>   3
Atom  14H    basis set group =>   3
Atom  15H    basis set group =>   3
Atom  16H    basis set group =>   3
-------------------------------
AUXILIARY BASIS SET INFORMATION
-------------------------------
There are 3 groups of distinct atoms

 Group   1 Type C   : 10s7p5d2f1g contracted to 10s7p5d2f1g pattern {1111111111/1111111/11111/11/1}
 Group   2 Type N   : 10s7p5d2f1g contracted to 10s7p5d2f1g pattern {1111111111/1111111/11111/11/1}
 Group   3 Type H   : 4s3p2d1f contracted to 4s3p2d1f pattern {1111/111/11/1}

Atom   0C    basis set group =>   1
Atom   1C    basis set group =>   1
Atom   2N    basis set group =>   2
Atom   3C    basis set group =>   1
Atom   4C    basis set group =>   1
Atom   5H    basis set group =>   3
Atom   6H    basis set group =>   3
Atom   7H    basis set group =>   3
Atom   8H    basis set group =>   3
Atom   9H    basis set group =>   3
Atom  10H    basis set group =>   3
Atom  11H    basis set group =>   3
Atom  12H    basis set group =>   3
Atom  13H    basis set group =>   3
Atom  14H    basis set group =>   3
Atom  15H    basis set group =>   3
Atom  16H    basis set group =>   3


           ************************************************************
           *        Program running with 8 parallel MPI-processes     *
           *              working on a common directory               *
           ************************************************************
------------------------------------------------------------------------------
                           ORCA GTO INTEGRAL CALCULATION
                           -- RI-GTO INTEGRALS CHOSEN --
------------------------------------------------------------------------------

                         BASIS SET STATISTICS AND STARTUP INFO

Gaussian basis set:
 # of primitive gaussian shells          ...  226
 # of primitive gaussian functions       ...  442
 # of contracted shells                  ...  122
 # of contracted basis functions         ...  318
 Highest angular momentum                ...    3
 Maximum contraction depth               ...    8
Auxiliary gaussian basis set:
 # of primitive gaussian shells          ...  245
 # of primitive gaussian functions       ...  755
 # of contracted shells                  ...  245
 # of contracted aux-basis functions     ...  755
 Highest angular momentum                ...    4
 Maximum contraction depth               ...    1
Ratio of auxiliary to basis functions    ...  2.37
Integral package used                  ... LIBINT
 One Electron integrals                  ... done
 Ordering auxiliary basis shells         ... done
 Integral threshhold             Thresh  ...  2.500e-11
 Primitive cut-off               TCut    ...  2.500e-12
 Pre-screening matrix                    ... done
 Shell pair data                         ... 
 Ordering of the shell pairs             ... done (   0.001 sec) 7309 of 7503 pairs
 Determination of significant pairs      ... done (   0.000 sec)
 Creation of shell pair data             ... done (   0.001 sec)
 Storage of shell pair data              ... done (   0.004 sec)
 Shell pair data done in (   0.007 sec)
 Computing two index integrals           ... done
 Cholesky decomposition of the V-matrix  ... done


Timings:
 Total evaluation time                   ...   0.473 sec (  0.008 min)
 One electron matrix time                ...   0.080 sec (  0.001 min) = 16.9%
 Schwartz matrix evaluation time         ...   0.197 sec (  0.003 min) = 41.7%
 Two index repulsion integral time       ...   0.095 sec (  0.002 min) = 20.2%
 Cholesky decomposition of V             ...   0.068 sec (  0.001 min) = 14.4%
 Three index repulsion integral time     ...   0.000 sec (  0.000 min) =  0.0%



           ************************************************************
           *        Program running with 8 parallel MPI-processes     *
           *              working on a common directory               *
           ************************************************************
-------------------------------------------------------------------------------
                                 ORCA SCF
-------------------------------------------------------------------------------

------------
SCF SETTINGS
------------
Hamiltonian:
 Ab initio Hamiltonian  Method          .... Hartree-Fock(GTOs)
 RI-approximation to the Coulomb term is turned on
   Number of auxiliary basis functions  .... 755
   RI-JK (J+K treated both via RI)      .... on


General Settings:
 Integral files         IntName         .... EtdiMeNH_g
 Hartree-Fock type      HFTyp           .... RHF
 Total Charge           Charge          ....    1
 Multiplicity           Mult            ....    1
 Number of Electrons    NEL             ....   42
 Basis Dimension        Dim             ....  318
 Nuclear Repulsion      ENuc            ....    206.7220893073 Eh

Convergence Acceleration:
 DIIS                   CNVDIIS         .... off
 Newton-Raphson         CNVNR           .... off
 SOSCF                  CNVSOSCF        .... on
   Start iteration      SOSCFMaxIt      ....   150
   Startup grad/error   SOSCFStart      ....  0.003300
 Level Shifting         CNVShift        .... on
   Level shift para.    LevelShift      ....    0.2000
   Turn off err/grad.   ShiftErr        ....    0.1000
 Zerner damping         CNVZerner       .... off
 Static damping         CNVDamp         .... off
 Fernandez-Rico         CNVRico         .... off

SCF Procedure:
 Maximum # iterations   MaxIter         ....   300
 SCF integral mode      SCFMode         .... Direct
   Integral package                     .... LIBINT
 Reset frequency        DirectResetFreq ....    20
 Integral Threshold     Thresh          ....  2.500e-11 Eh
 Primitive CutOff       TCut            ....  2.500e-12 Eh

Convergence Tolerance:
 Convergence Check Mode ConvCheckMode   .... Total+1el-Energy
 Convergence forced     ConvForced      .... 1
 Energy Change          TolE            ....  1.000e-08 Eh
 1-El. energy change                    ....  1.000e-05 Eh
 Orbital Gradient       TolG            ....  1.000e-05
 Orbital Rotation angle TolX            ....  1.000e-05


Diagonalization of the overlap matrix:
Smallest eigenvalue                        ... 6.471e-04
Time for diagonalization                   ...    0.020 sec
Threshold for overlap eigenvalues          ... 1.000e-08
Number of eigenvalues below threshold      ... 0
Time for construction of square roots      ...    0.063 sec
Total time needed                          ...    0.083 sec

-------------------
DFT GRID GENERATION
-------------------

General Integration Accuracy     IntAcc      ...  4.340
Radial Grid Type                 RadialGrid  ... Gauss-Chebyshev
Angular Grid (max. acc.)         AngularGrid ... Lebedev-110
Angular grid pruning method      GridPruning ... 3 (G Style)
Weight generation scheme         WeightScheme... Becke
Basis function cutoff            BFCut       ...    1.0000e-11
Integration weight cutoff        WCut        ...    1.0000e-14
Grids for H and He will be reduced by one unit

# of grid points (after initial pruning)     ...  17854 (   0.0 sec)
# of grid points (after weights+screening)   ...  16421 (   0.0 sec)
nearest neighbour list constructed           ...    0.0 sec
Grid point re-assignment to atoms done       ...    0.0 sec
Grid point division into batches done        ...    0.0 sec
Reduced shell lists constructed in    0.1 sec

Total number of grid points                  ...    16421
Total number of batches                      ...      262
Average number of points per batch           ...       62
Average number of grid points per atom       ...      966
Average number of shells per batch           ...   108.65 (89.05%)
Average number of basis functions per batch  ...   281.29 (88.46%)
Average number of large shells per batch     ...    90.50 (83.30%)
Average number of large basis fcns per batch ...   230.97 (82.11%)
Average number of aux-shells per batch       ...   108.65 (44.35%)
Average number of aux functions per batch    ...   281.29 (37.26%)
Maximum spatial batch extension              ...   2.83,  2.62,  3.06 au
Average spatial batch extension              ...   0.19,  0.18,  0.20 au

Time for grid setup =    0.117 sec

------------------------------
INITIAL GUESS: MODEL POTENTIAL
------------------------------
Loading Hartree-Fock densities                     ... done
Calculating cut-offs                               ... done
Setting up the integral package                    ... done
Initializing the effective Hamiltonian             ... done
Starting the Coulomb interaction                   ... done (   0.0 sec)
Reading the grid                                   ... done
Mapping shells                                     ... done
Starting the XC term evaluation                    ... done (   0.0 sec)
Transforming the Hamiltonian                       ... done (   0.0 sec)
Diagonalizing the Hamiltonian                      ... done (   0.0 sec)
Back transforming the eigenvectors                 ... done (   0.0 sec)
Now organizing SCF variables                       ... done
                      ------------------
                      INITIAL GUESS DONE (   0.4 sec)
                      ------------------
--------------
SCF ITERATIONS
--------------
ITER       Energy         Delta-E        Max-DP      RMS-DP      [F,P]   Gradient Norm
                             ****Turning on KDIIS(Cayley)****
  0   -212.5403135699   0.000000000000 0.01033980  0.00020104  0.1271153   0.138092750
  1   -212.5994141088  -0.059100538926 0.01787345  0.00026122  0.1149781   0.121152676
  2   -212.6552466862  -0.055832577360 0.02908464  0.00044109  0.0928934   0.098087579
  3   -212.7235539005  -0.068307214295 0.04405772  0.00069741  0.0554802   0.060026302
                      *** Initiating the SOSCF procedure ***
                           *** Shutting down KDIIS ***
                      *** Re-Reading the Fockian *** 
                      *** Removing any level shift *** 
ITER      Energy       Delta-E        Grad      Rot      Max-DP    RMS-DP
  4   -212.76664031  -0.0430864063  0.001751  0.001751  0.001945  0.000035
  5   -212.76678102  -0.0001407144  0.000380  0.000464  0.000858  0.000013
  6   -212.76678705  -0.0000060242  0.000204  0.000146  0.000319  0.000005
  7   -212.76678863  -0.0000015838  0.000028  0.000048  0.000062  0.000001
  8   -212.76678867  -0.0000000448  0.000009  0.000018  0.000025  0.000001
  9   -212.76678868  -0.0000000028  0.000003  0.000003  0.000007  0.000000
                  ***Gradient check signals convergence***
              ***Rediagonalizing the Fockian in SOSCF/NRSCF***

               *****************************************************
               *                     SUCCESS                       *
               *           SCF CONVERGED AFTER  10 CYCLES          *
               *****************************************************


----------------
TOTAL SCF ENERGY
----------------

Total Energy       :         -212.76678868 Eh           -5789.67866 eV

Components:
Nuclear Repulsion  :          206.72208931 Eh            5625.19403 eV
Electronic Energy  :         -419.48887798 Eh          -11414.87269 eV
One Electron Energy:         -686.78374562 Eh          -18688.33581 eV
Two Electron Energy:          267.29486764 Eh            7273.46312 eV

Virial components:
Potential Energy   :         -425.09416186 Eh          -11567.40022 eV
Kinetic Energy     :          212.32737318 Eh            5777.72156 eV
Virial Ratio       :            2.00206952


---------------
SCF CONVERGENCE
---------------

  Last Energy change         ...   -4.1405e-10  Tolerance :   1.0000e-08
  Last MAX-Density change    ...    1.6770e-06  Tolerance :   1.0000e-07
  Last RMS-Density change    ...    3.8696e-08  Tolerance :   5.0000e-09
  Last Orbital Gradient      ...    1.2326e-06  Tolerance :   1.0000e-05
  Last Orbital Rotation      ...    1.1175e-06  Tolerance :   1.0000e-05

             **** THE GBW FILE WAS UPDATED (EtdiMeNH_g.gbw) ****
             **** DENSITY FILE WAS UPDATED (EtdiMeNH_g.scfp.tmp) ****
             **** ENERGY FILE WAS UPDATED (EtdiMeNH_g.en.tmp) ****
----------------
ORBITAL ENERGIES
----------------

  NO   OCC          E(Eh)            E(eV) 
   0   2.0000     -15.869311      -431.8259 
   1   2.0000     -11.463364      -311.9340 
   2   2.0000     -11.457414      -311.7721 
   3   2.0000     -11.457400      -311.7717 
   4   2.0000     -11.389058      -309.9120 
   5   2.0000      -1.495353       -40.6906 
   6   2.0000      -1.213798       -33.0291 
   7   2.0000      -1.170997       -31.8645 
   8   2.0000      -1.114945       -30.3392 
   9   2.0000      -1.012850       -27.5610 
  10   2.0000      -0.925412       -25.1817 
  11   2.0000      -0.855859       -23.2891 
  12   2.0000      -0.848239       -23.0818 
  13   2.0000      -0.783545       -21.3213 
  14   2.0000      -0.754991       -20.5444 
  15   2.0000      -0.748020       -20.3547 
  16   2.0000      -0.738687       -20.1007 
  17   2.0000      -0.730724       -19.8840 
  18   2.0000      -0.701915       -19.1001 
  19   2.0000      -0.688168       -18.7260 
  20   2.0000      -0.676945       -18.4206 
  21   0.0000      -0.046499        -1.2653 
  22   0.0000      -0.005778        -0.1572 
  23   0.0000       0.009001         0.2449 
  24   0.0000       0.016454         0.4477 
  25   0.0000       0.035981         0.9791 
  26   0.0000       0.043534         1.1846 
  27   0.0000       0.044096         1.1999 
  28   0.0000       0.069041         1.8787 
  29   0.0000       0.072274         1.9667 
  30   0.0000       0.079676         2.1681 
  31   0.0000       0.094554         2.5729 
  32   0.0000       0.115458         3.1418 
  33   0.0000       0.124769         3.3951 
  34   0.0000       0.149636         4.0718 
  35   0.0000       0.150260         4.0888 
  36   0.0000       0.171914         4.6780 
  37   0.0000       0.193541         5.2665 
  38   0.0000       0.216300         5.8858 
  39   0.0000       0.236967         6.4482 
  40   0.0000       0.241280         6.5656 
  41   0.0000       0.265479         7.2241 
  42   0.0000       0.277508         7.5514 
  43   0.0000       0.286255         7.7894 
  44   0.0000       0.327958         8.9242 
  45   0.0000       0.342459         9.3188 
  46   0.0000       0.388294        10.5660 
  47   0.0000       0.400853        10.9078 
  48   0.0000       0.407760        11.0957 
  49   0.0000       0.422771        11.5042 
  50   0.0000       0.429412        11.6849 
  51   0.0000       0.441032        12.0011 
  52   0.0000       0.444328        12.0908 
  53   0.0000       0.457756        12.4562 
  54   0.0000       0.457870        12.4593 
  55   0.0000       0.470714        12.8088 
  56   0.0000       0.475107        12.9283 
  57   0.0000       0.482088        13.1183 
  58   0.0000       0.493763        13.4360 
  59   0.0000       0.509397        13.8614 
  60   0.0000       0.516550        14.0560 
  61   0.0000       0.518898        14.1199 
  62   0.0000       0.531817        14.4715 
  63   0.0000       0.540542        14.7089 
  64   0.0000       0.600179        16.3317 
  65   0.0000       0.605863        16.4864 
  66   0.0000       0.639907        17.4128 
  67   0.0000       0.691421        18.8145 
  68   0.0000       0.703468        19.1423 
  69   0.0000       0.740438        20.1483 
  70   0.0000       0.746674        20.3180 
  71   0.0000       0.785535        21.3755 
  72   0.0000       0.820367        22.3233 
  73   0.0000       0.849138        23.1062 
  74   0.0000       0.865428        23.5495 
  75   0.0000       0.913318        24.8527 
  76   0.0000       0.931486        25.3470 
  77   0.0000       0.932895        25.3854 
  78   0.0000       0.942636        25.6504 
  79   0.0000       0.949634        25.8409 
  80   0.0000       0.975980        26.5578 
  81   0.0000       0.994938        27.0736 
  82   0.0000       1.007829        27.4244 
  83   0.0000       1.011357        27.5204 
  84   0.0000       1.024425        27.8760 
  85   0.0000       1.043173        28.3862 
  86   0.0000       1.051520        28.6133 
  87   0.0000       1.075195        29.2575 
  88   0.0000       1.090248        29.6671 
  89   0.0000       1.100725        29.9523 
  90   0.0000       1.115049        30.3420 
  91   0.0000       1.146942        31.2099 
  92   0.0000       1.149620        31.2827 
  93   0.0000       1.167980        31.7824 
  94   0.0000       1.199716        32.6459 
  95   0.0000       1.217710        33.1356 
  96   0.0000       1.219382        33.1811 
  97   0.0000       1.230177        33.4748 
  98   0.0000       1.234374        33.5890 
  99   0.0000       1.282727        34.9048 
 100   0.0000       1.293036        35.1853 
 101   0.0000       1.296283        35.2737 
 102   0.0000       1.297347        35.3026 
 103   0.0000       1.318917        35.8896 
 104   0.0000       1.325029        36.0559 
 105   0.0000       1.330992        36.2181 
 106   0.0000       1.366994        37.1978 
 107   0.0000       1.375278        37.4232 
 108   0.0000       1.398992        38.0685 
 109   0.0000       1.419495        38.6264 
 110   0.0000       1.424746        38.7693 
 111   0.0000       1.429897        38.9095 
 112   0.0000       1.450009        39.4568 
 113   0.0000       1.500585        40.8330 
 114   0.0000       1.522630        41.4329 
 115   0.0000       1.523722        41.4626 
 116   0.0000       1.533494        41.7285 
 117   0.0000       1.548943        42.1489 
 118   0.0000       1.550674        42.1960 
 119   0.0000       1.571958        42.7752 
 120   0.0000       1.615990        43.9733 
 121   0.0000       1.623980        44.1907 
 122   0.0000       1.638255        44.5792 
 123   0.0000       1.670393        45.4537 
 124   0.0000       1.699145        46.2361 
 125   0.0000       1.782190        48.4959 
 126   0.0000       1.796474        48.8845 
 127   0.0000       1.950580        53.0780 
 128   0.0000       1.988560        54.1115 
 129   0.0000       2.008858        54.6638 
 130   0.0000       2.294649        62.4406 
 131   0.0000       2.322054        63.1863 
 132   0.0000       2.369578        64.4795 
 133   0.0000       2.420065        65.8533 
 134   0.0000       2.424906        65.9851 
 135   0.0000       2.446911        66.5838 
 136   0.0000       2.523984        68.6811 
 137   0.0000       2.546374        69.2904 
 138   0.0000       2.587823        70.4182 
 139   0.0000       2.609042        70.9956 
 140   0.0000       2.621537        71.3356 
 141   0.0000       2.663819        72.4862 
 142   0.0000       2.690242        73.2052 
 143   0.0000       2.709559        73.7309 
 144   0.0000       2.719318        73.9964 
 145   0.0000       2.733220        74.3747 
 146   0.0000       2.762679        75.1763 
 147   0.0000       2.770147        75.3795 
 148   0.0000       2.786557        75.8261 
 149   0.0000       2.809272        76.4442 
 150   0.0000       2.832070        77.0645 
 151   0.0000       2.866302        77.9960 
 152   0.0000       2.873021        78.1789 
 153   0.0000       2.889254        78.6206 
 154   0.0000       2.906853        79.0995 
 155   0.0000       2.912684        79.2582 
 156   0.0000       2.925472        79.6061 
 157   0.0000       2.938477        79.9600 
 158   0.0000       2.947082        80.1942 
 159   0.0000       2.973478        80.9125 
 160   0.0000       2.986715        81.2726 
 161   0.0000       2.991358        81.3990 
 162   0.0000       3.060213        83.2726 
 163   0.0000       3.069555        83.5268 
 164   0.0000       3.078631        83.7738 
 165   0.0000       3.103925        84.4621 
 166   0.0000       3.106425        84.5301 
 167   0.0000       3.114328        84.7452 
 168   0.0000       3.146812        85.6291 
 169   0.0000       3.155000        85.8519 
 170   0.0000       3.164039        86.0979 
 171   0.0000       3.188221        86.7559 
 172   0.0000       3.221982        87.6746 
 173   0.0000       3.222927        87.7003 
 174   0.0000       3.240560        88.1801 
 175   0.0000       3.245216        88.3068 
 176   0.0000       3.256050        88.6016 
 177   0.0000       3.286541        89.4313 
 178   0.0000       3.295822        89.6839 
 179   0.0000       3.306474        89.9737 
 180   0.0000       3.320782        90.3631 
 181   0.0000       3.345364        91.0320 
 182   0.0000       3.351255        91.1923 
 183   0.0000       3.361968        91.4838 
 184   0.0000       3.380717        91.9940 
 185   0.0000       3.418512        93.0224 
 186   0.0000       3.427549        93.2683 
 187   0.0000       3.436439        93.5103 
 188   0.0000       3.467356        94.3515 
 189   0.0000       3.468793        94.3907 
 190   0.0000       3.481677        94.7413 
 191   0.0000       3.495833        95.1265 
 192   0.0000       3.525869        95.9438 
 193   0.0000       3.551243        96.6342 
 194   0.0000       3.557332        96.7999 
 195   0.0000       3.575175        97.2855 
 196   0.0000       3.583488        97.5117 
 197   0.0000       3.593905        97.7951 
 198   0.0000       3.610164        98.2375 
 199   0.0000       3.635894        98.9377 
 200   0.0000       3.645360        99.1953 
 201   0.0000       3.676486       100.0423 
 202   0.0000       3.687822       100.3507 
 203   0.0000       3.695546       100.5609 
 204   0.0000       3.711517       100.9955 
 205   0.0000       3.733819       101.6024 
 206   0.0000       3.749044       102.0167 
 207   0.0000       3.782461       102.9260 
 208   0.0000       3.821616       103.9915 
 209   0.0000       3.850514       104.7778 
 210   0.0000       3.877596       105.5148 
 211   0.0000       3.896719       106.0351 
 212   0.0000       3.914479       106.5184 
 213   0.0000       3.930630       106.9579 
 214   0.0000       3.932280       107.0028 
 215   0.0000       3.941633       107.2573 
 216   0.0000       3.962442       107.8235 
 217   0.0000       3.993748       108.6754 
 218   0.0000       4.009732       109.1104 
 219   0.0000       4.012007       109.1722 
 220   0.0000       4.022475       109.4571 
 221   0.0000       4.033661       109.7615 
 222   0.0000       4.045533       110.0845 
 223   0.0000       4.074564       110.8745 
 224   0.0000       4.103843       111.6713 
 225   0.0000       4.105064       111.7045 
 226   0.0000       4.110602       111.8552 
 227   0.0000       4.138560       112.6159 
 228   0.0000       4.143927       112.7620 
 229   0.0000       4.182553       113.8130 
 230   0.0000       4.184912       113.8772 
 231   0.0000       4.196749       114.1993 
 232   0.0000       4.216845       114.7462 
 233   0.0000       4.229066       115.0787 
 234   0.0000       4.256036       115.8126 
 235   0.0000       4.262357       115.9846 
 236   0.0000       4.282613       116.5358 
 237   0.0000       4.291199       116.7694 
 238   0.0000       4.346027       118.2614 
 239   0.0000       4.351173       118.4014 
 240   0.0000       4.364233       118.7568 
 241   0.0000       4.374929       119.0479 
 242   0.0000       4.386985       119.3759 
 243   0.0000       4.401247       119.7640 
 244   0.0000       4.436116       120.7128 
 245   0.0000       4.448179       121.0411 
 246   0.0000       4.451203       121.1234 
 247   0.0000       4.470535       121.6494 
 248   0.0000       4.497468       122.3823 
 249   0.0000       4.503772       122.5539 
 250   0.0000       4.569411       124.3400 
 251   0.0000       4.591432       124.9392 
 252   0.0000       4.599441       125.1571 
 253   0.0000       4.619848       125.7125 
 254   0.0000       4.628872       125.9580 
 255   0.0000       4.649389       126.5163 
 256   0.0000       4.664221       126.9199 
 257   0.0000       4.785269       130.2138 
 258   0.0000       4.817549       131.0922 
 259   0.0000       4.913564       133.7049 
 260   0.0000       4.915774       133.7650 
 261   0.0000       4.957959       134.9129 
 262   0.0000       4.989169       135.7622 
 263   0.0000       5.002307       136.1197 
 264   0.0000       5.035106       137.0122 
 265   0.0000       5.041336       137.1817 
 266   0.0000       5.049712       137.4096 
 267   0.0000       5.074705       138.0898 
 268   0.0000       5.097190       138.7016 
 269   0.0000       5.115108       139.1892 
 270   0.0000       5.143563       139.9635 
 271   0.0000       5.178270       140.9079 
 272   0.0000       5.196039       141.3914 
 273   0.0000       5.231314       142.3513 
 274   0.0000       5.243224       142.6754 
 275   0.0000       5.288699       143.9128 
 276   0.0000       5.314691       144.6201 
 277   0.0000       5.326560       144.9431 
 278   0.0000       5.346242       145.4786 
 279   0.0000       5.364760       145.9825 
 280   0.0000       5.384321       146.5148 
 281   0.0000       5.398742       146.9072 
 282   0.0000       5.422301       147.5483 
 283   0.0000       5.462703       148.6477 
 284   0.0000       5.488172       149.3408 
 285   0.0000       5.499038       149.6364 
 286   0.0000       5.504594       149.7876 
 287   0.0000       5.519481       150.1927 
 288   0.0000       5.532960       150.5595 
 289   0.0000       5.542502       150.8191 
 290   0.0000       5.568097       151.5156 
 291   0.0000       5.616704       152.8383 
 292   0.0000       5.619586       152.9167 
 293   0.0000       5.637468       153.4033 
 294   0.0000       5.680322       154.5694 
 295   0.0000       5.726608       155.8289 
 296   0.0000       5.774094       157.1211 
 297   0.0000       5.823693       158.4707 
 298   0.0000       5.841618       158.9585 
 299   0.0000       5.961476       162.2200 
 300   0.0000       6.011236       163.5741 
 301   0.0000       6.016953       163.7296 
 302   0.0000       6.047366       164.5572 
 303   0.0000       6.107523       166.1941 
 304   0.0000       6.125514       166.6837 
 305   0.0000       6.126247       166.7036 
 306   0.0000       6.178822       168.1343 
 307   0.0000       6.185594       168.3186 
 308   0.0000       6.211204       169.0154 
 309   0.0000       6.219725       169.2473 
 310   0.0000       6.240137       169.8028 
 311   0.0000       6.412728       174.4992 
 312   0.0000       6.735134       183.2723 
 313   0.0000      12.179878       331.4313 
 314   0.0000      13.001739       353.7953 
 315   0.0000      13.813651       375.8885 
 316   0.0000      14.026705       381.6860 
 317   0.0000      14.119779       384.2187 

                    ********************************
                    * MULLIKEN POPULATION ANALYSIS *
                    ********************************

-----------------------
MULLIKEN ATOMIC CHARGES
-----------------------
   0 C :   -0.294022
   1 C :   -0.133296
   2 N :    0.020467
   3 C :   -0.208404
   4 C :   -0.208407
   5 H :    0.155820
   6 H :    0.124122
   7 H :    0.124120
   8 H :    0.163037
   9 H :    0.163042
  10 H :    0.159409
  11 H :    0.156344
  12 H :    0.149579
  13 H :    0.162858
  14 H :    0.156344
  15 H :    0.149579
  16 H :    0.159409
Sum of atomic charges:    1.0000000

--------------------------------
MULLIKEN REDUCED ORBITAL CHARGES
--------------------------------
  0 C s       :     3.281945  s :     3.281945
      pz      :     0.924186  p :     2.936775
      px      :     1.000758
      py      :     1.011831
      dz2     :     0.007710  d :     0.070796
      dxz     :     0.017652
      dyz     :     0.024991
      dx2y2   :     0.016969
      dxy     :     0.003475
      f0      :     0.000244  f :     0.004506
      f+1     :     0.001061
      f-1     :     0.000296
      f+2     :     0.001995
      f-2     :     0.000347
      f+3     :     0.000517
      f-3     :     0.000046
  1 C s       :     3.217343  s :     3.217343
      pz      :     1.006517  p :     2.766708
      px      :     0.666995
      py      :     1.093196
      dz2     :     0.018065  d :     0.141260
      dxz     :     0.023462
      dyz     :     0.038871
      dx2y2   :     0.042879
      dxy     :     0.017983
      f0      :     0.001186  f :     0.007984
      f+1     :     0.001341
      f-1     :     0.000382
      f+2     :     0.002126
      f-2     :     0.000500
      f+3     :     0.001449
      f-3     :     0.001000
  2 N s       :     3.343708  s :     3.343708
      pz      :     1.171669  p :     3.549287
      px      :     1.197641
      py      :     1.179977
      dz2     :     0.015070  d :     0.083373
      dxz     :     0.014922
      dyz     :     0.015156
      dx2y2   :     0.021640
      dxy     :     0.016585
      f0      :     0.000352  f :     0.003165
      f+1     :     0.000242
      f-1     :     0.000424
      f+2     :     0.000592
      f-2     :     0.000416
      f+3     :     0.000536
      f-3     :     0.000605
  3 C s       :     3.268265  s :     3.268265
      pz      :     0.982404  p :     2.835994
      px      :     1.045508
      py      :     0.808082
      dz2     :     0.018423  d :     0.097915
      dxz     :     0.011200
      dyz     :     0.024068
      dx2y2   :     0.028344
      dxy     :     0.015881
      f0      :     0.000801  f :     0.006229
      f+1     :     0.000720
      f-1     :     0.000796
      f+2     :     0.001081
      f-2     :     0.000874
      f+3     :     0.001182
      f-3     :     0.000775
  4 C s       :     3.268264  s :     3.268264
      pz      :     0.982408  p :     2.835998
      px      :     1.045504
      py      :     0.808086
      dz2     :     0.018423  d :     0.097916
      dxz     :     0.011200
      dyz     :     0.024068
      dx2y2   :     0.028344
      dxy     :     0.015881
      f0      :     0.000801  f :     0.006229
      f+1     :     0.000720
      f-1     :     0.000796
      f+2     :     0.001081
      f-2     :     0.000874
      f+3     :     0.001182
      f-3     :     0.000775
  5 H s       :     0.814007  s :     0.814007
      pz      :     0.007352  p :     0.027938
      px      :     0.013199
      py      :     0.007386
      dz2     :     0.000276  d :     0.002235
      dxz     :     0.000677
      dyz     :     0.000085
      dx2y2   :     0.000693
      dxy     :     0.000504
  6 H s       :     0.845193  s :     0.845193
      pz      :     0.011504  p :     0.028484
      px      :     0.007702
      py      :     0.009278
      dz2     :     0.000463  d :     0.002201
      dxz     :     0.000276
      dyz     :     0.000692
      dx2y2   :     0.000374
      dxy     :     0.000396
  7 H s       :     0.845194  s :     0.845194
      pz      :     0.011504  p :     0.028484
      px      :     0.007702
      py      :     0.009278
      dz2     :     0.000463  d :     0.002201
      dxz     :     0.000276
      dyz     :     0.000692
      dx2y2   :     0.000374
      dxy     :     0.000396
  8 H s       :     0.806420  s :     0.806420
      pz      :     0.011494  p :     0.028184
      px      :     0.006209
      py      :     0.010482
      dz2     :     0.000508  d :     0.002359
      dxz     :     0.000328
      dyz     :     0.000703
      dx2y2   :     0.000339
      dxy     :     0.000481
  9 H s       :     0.806415  s :     0.806415
      pz      :     0.011495  p :     0.028184
      px      :     0.006209
      py      :     0.010481
      dz2     :     0.000508  d :     0.002359
      dxz     :     0.000328
      dyz     :     0.000703
      dx2y2   :     0.000339
      dxy     :     0.000481
 10 H s       :     0.810825  s :     0.810825
      pz      :     0.006849  p :     0.027607
      px      :     0.015051
      py      :     0.005707
      dz2     :     0.000242  d :     0.002160
      dxz     :     0.000637
      dyz     :     0.000013
      dx2y2   :     0.000632
      dxy     :     0.000635
 11 H s       :     0.814295  s :     0.814295
      pz      :     0.006453  p :     0.027216
      px      :     0.007135
      py      :     0.013628
      dz2     :     0.000408  d :     0.002146
      dxz     :     0.000169
      dyz     :     0.000499
      dx2y2   :     0.000636
      dxy     :     0.000433
 12 H s       :     0.821065  s :     0.821065
      pz      :     0.013738  p :     0.027158
      px      :     0.007609
      py      :     0.005810
      dz2     :     0.000865  d :     0.002199
      dxz     :     0.000579
      dyz     :     0.000602
      dx2y2   :     0.000103
      dxy     :     0.000050
 13 H s       :     0.765526  s :     0.765526
      pz      :     0.033776  p :     0.065806
      px      :     0.018784
      py      :     0.013246
      dz2     :     0.001926  d :     0.005809
      dxz     :     0.001722
      dyz     :     0.001394
      dx2y2   :     0.000480
      dxy     :     0.000287
 14 H s       :     0.814295  s :     0.814295
      pz      :     0.006453  p :     0.027216
      px      :     0.007135
      py      :     0.013628
      dz2     :     0.000408  d :     0.002146
      dxz     :     0.000169
      dyz     :     0.000499
      dx2y2   :     0.000636
      dxy     :     0.000433
 15 H s       :     0.821064  s :     0.821064
      pz      :     0.013738  p :     0.027158
      px      :     0.007609
      py      :     0.005810
      dz2     :     0.000865  d :     0.002199
      dxz     :     0.000579
      dyz     :     0.000602
      dx2y2   :     0.000103
      dxy     :     0.000050
 16 H s       :     0.810825  s :     0.810825
      pz      :     0.006849  p :     0.027607
      px      :     0.015051
      py      :     0.005708
      dz2     :     0.000242  d :     0.002160
      dxz     :     0.000637
      dyz     :     0.000013
      dx2y2   :     0.000632
      dxy     :     0.000635


                     *******************************
                     * LOEWDIN POPULATION ANALYSIS *
                     *******************************

----------------------
LOEWDIN ATOMIC CHARGES
----------------------
   0 C :    0.129871
   1 C :    0.088993
   2 N :    0.541660
   3 C :    0.169064
   4 C :    0.169056
   5 H :    0.003648
   6 H :   -0.017572
   7 H :   -0.017573
   8 H :   -0.006952
   9 H :   -0.006957
  10 H :   -0.007442
  11 H :   -0.007388
  12 H :   -0.010257
  13 H :   -0.003061
  14 H :   -0.007389
  15 H :   -0.010259
  16 H :   -0.007443

-------------------------------
LOEWDIN REDUCED ORBITAL CHARGES
-------------------------------
  0 C s       :     2.659610  s :     2.659610
      pz      :     0.935970  p :     2.883466
      px      :     0.960268
      py      :     0.987229
      dz2     :     0.039837  d :     0.298096
      dxz     :     0.065495
      dyz     :     0.104182
      dx2y2   :     0.074596
      dxy     :     0.013986
      f0      :     0.004968  f :     0.028956
      f+1     :     0.005557
      f-1     :     0.003067
      f+2     :     0.005330
      f-2     :     0.003679
      f+3     :     0.003796
      f-3     :     0.002560
  1 C s       :     2.678041  s :     2.678041
      pz      :     0.978593  p :     2.729232
      px      :     0.734436
      py      :     1.016203
      dz2     :     0.066908  d :     0.454835
      dxz     :     0.090495
      dyz     :     0.114966
      dx2y2   :     0.131301
      dxy     :     0.051166
      f0      :     0.008778  f :     0.048899
      f+1     :     0.007269
      f-1     :     0.003323
      f+2     :     0.008679
      f-2     :     0.004628
      f+3     :     0.008985
      f-3     :     0.007237
  2 N s       :     2.814588  s :     2.814588
      pz      :     1.123218  p :     3.343228
      px      :     1.114647
      py      :     1.105363
      dz2     :     0.054096  d :     0.283193
      dxz     :     0.052134
      dyz     :     0.051707
      dx2y2   :     0.071053
      dxy     :     0.054203
      f0      :     0.001910  f :     0.017332
      f+1     :     0.002351
      f-1     :     0.002644
      f+2     :     0.002078
      f-2     :     0.002541
      f+3     :     0.002062
      f-3     :     0.003746
  3 C s       :     2.674645  s :     2.674645
      pz      :     0.959397  p :     2.777769
      px      :     0.993426
      py      :     0.824945
      dz2     :     0.073403  d :     0.338789
      dxz     :     0.037888
      dyz     :     0.080184
      dx2y2   :     0.097976
      dxy     :     0.049337
      f0      :     0.004390  f :     0.039734
      f+1     :     0.004653
      f-1     :     0.005281
      f+2     :     0.005843
      f-2     :     0.007499
      f+3     :     0.007268
      f-3     :     0.004799
  4 C s       :     2.674645  s :     2.674645
      pz      :     0.959400  p :     2.777774
      px      :     0.993424
      py      :     0.824950
      dz2     :     0.073402  d :     0.338791
      dxz     :     0.037889
      dyz     :     0.080185
      dx2y2   :     0.097978
      dxy     :     0.049337
      f0      :     0.004390  f :     0.039734
      f+1     :     0.004653
      f-1     :     0.005281
      f+2     :     0.005843
      f-2     :     0.007499
      f+3     :     0.007269
      f-3     :     0.004800
  5 H s       :     0.816160  s :     0.816160
      pz      :     0.040646  p :     0.152084
      px      :     0.071707
      py      :     0.039732
      dz2     :     0.003061  d :     0.028107
      dxz     :     0.008500
      dyz     :     0.001358
      dx2y2   :     0.006858
      dxy     :     0.008330
  6 H s       :     0.835753  s :     0.835753
      pz      :     0.049834  p :     0.153901
      px      :     0.041078
      py      :     0.062989
      dz2     :     0.005595  d :     0.027917
      dxz     :     0.003551
      dyz     :     0.007375
      dx2y2   :     0.005745
      dxy     :     0.005651
  7 H s       :     0.835753  s :     0.835753
      pz      :     0.049834  p :     0.153902
      px      :     0.041078
      py      :     0.062989
      dz2     :     0.005595  d :     0.027917
      dxz     :     0.003550
      dyz     :     0.007375
      dx2y2   :     0.005746
      dxy     :     0.005652
  8 H s       :     0.829441  s :     0.829441
      pz      :     0.053478  p :     0.149424
      px      :     0.029738
      py      :     0.066208
      dz2     :     0.006288  d :     0.028088
      dxz     :     0.002784
      dyz     :     0.008164
      dx2y2   :     0.006018
      dxy     :     0.004833
  9 H s       :     0.829442  s :     0.829442
      pz      :     0.053480  p :     0.149427
      px      :     0.029739
      py      :     0.066208
      dz2     :     0.006289  d :     0.028088
      dxz     :     0.002785
      dyz     :     0.008164
      dx2y2   :     0.006018
      dxy     :     0.004833
 10 H s       :     0.831210  s :     0.831210
      pz      :     0.038216  p :     0.148539
      px      :     0.079812
      py      :     0.030511
      dz2     :     0.002459  d :     0.027692
      dxz     :     0.009568
      dyz     :     0.000145
      dx2y2   :     0.007559
      dxy     :     0.007962
 11 H s       :     0.831406  s :     0.831406
      pz      :     0.045698  p :     0.148313
      px      :     0.041882
      py      :     0.060733
      dz2     :     0.005242  d :     0.027668
      dxz     :     0.002469
      dyz     :     0.007127
      dx2y2   :     0.006444
      dxy     :     0.006387
 12 H s       :     0.832622  s :     0.832622
      pz      :     0.074268  p :     0.149768
      px      :     0.044973
      py      :     0.030527
      dz2     :     0.009865  d :     0.027866
      dxz     :     0.008085
      dyz     :     0.007440
      dx2y2   :     0.001737
      dxy     :     0.000739
 13 H s       :     0.714500  s :     0.714500
      pz      :     0.108167  p :     0.230341
      px      :     0.067981
      py      :     0.054193
      dz2     :     0.018954  d :     0.058220
      dxz     :     0.016658
      dyz     :     0.015386
      dx2y2   :     0.004325
      dxy     :     0.002897
 14 H s       :     0.831406  s :     0.831406
      pz      :     0.045697  p :     0.148314
      px      :     0.041884
      py      :     0.060733
      dz2     :     0.005242  d :     0.027668
      dxz     :     0.002469
      dyz     :     0.007127
      dx2y2   :     0.006444
      dxy     :     0.006387
 15 H s       :     0.832622  s :     0.832622
      pz      :     0.074269  p :     0.149770
      px      :     0.044974
      py      :     0.030527
      dz2     :     0.009865  d :     0.027867
      dxz     :     0.008085
      dyz     :     0.007440
      dx2y2   :     0.001737
      dxy     :     0.000739
 16 H s       :     0.831211  s :     0.831211
      pz      :     0.038216  p :     0.148540
      px      :     0.079812
      py      :     0.030512
      dz2     :     0.002459  d :     0.027692
      dxz     :     0.009568
      dyz     :     0.000145
      dx2y2   :     0.007559
      dxy     :     0.007962


                      *****************************
                      * MAYER POPULATION ANALYSIS *
                      *****************************

  NA   - Mulliken gross atomic population
  ZA   - Total nuclear charge
  QA   - Mulliken gross atomic charge
  VA   - Mayer's total valence
  BVA  - Mayer's bonded valence
  FA   - Mayer's free valence

  ATOM       NA         ZA         QA         VA         BVA        FA
  0 C      6.2940     6.0000    -0.2940     3.8542     3.8542     0.0000
  1 C      6.1333     6.0000    -0.1333     3.7802     3.7802    -0.0000
  2 N      6.9795     7.0000     0.0205     3.6217     3.6217     0.0000
  3 C      6.2084     6.0000    -0.2084     3.8047     3.8047     0.0000
  4 C      6.2084     6.0000    -0.2084     3.8047     3.8047    -0.0000
  5 H      0.8442     1.0000     0.1558     0.9741     0.9741     0.0000
  6 H      0.8759     1.0000     0.1241     0.9778     0.9778     0.0000
  7 H      0.8759     1.0000     0.1241     0.9778     0.9778     0.0000
  8 H      0.8370     1.0000     0.1630     0.9716     0.9716     0.0000
  9 H      0.8370     1.0000     0.1630     0.9716     0.9716     0.0000
 10 H      0.8406     1.0000     0.1594     0.9731     0.9731    -0.0000
 11 H      0.8437     1.0000     0.1563     0.9728     0.9728     0.0000
 12 H      0.8504     1.0000     0.1496     0.9695     0.9695     0.0000
 13 H      0.8371     1.0000     0.1629     0.9943     0.9943     0.0000
 14 H      0.8437     1.0000     0.1563     0.9728     0.9728    -0.0000
 15 H      0.8504     1.0000     0.1496     0.9695     0.9695    -0.0000
 16 H      0.8406     1.0000     0.1594     0.9731     0.9731     0.0000

  Mayer bond orders larger than 0.1
B(  0-C ,  1-C ) :   0.9505 B(  0-C ,  5-H ) :   0.9620 B(  0-C ,  6-H ) :   0.9712 
B(  0-C ,  7-H ) :   0.9712 B(  1-C ,  2-N ) :   0.8616 B(  1-C ,  8-H ) :   0.9720 
B(  1-C ,  9-H ) :   0.9720 B(  2-N ,  3-C ) :   0.8897 B(  2-N ,  4-C ) :   0.8897 
B(  2-N , 13-H ) :   0.9707 B(  3-C , 14-H ) :   0.9663 B(  3-C , 15-H ) :   0.9644 
B(  3-C , 16-H ) :   0.9681 B(  4-C , 10-H ) :   0.9681 B(  4-C , 11-H ) :   0.9663 
B(  4-C , 12-H ) :   0.9644 

-------
TIMINGS
-------

Total SCF time: 0 days 0 hours 0 min 20 sec 

Total time                  ....      20.805 sec
Sum of individual times     ....      20.523 sec  ( 98.6%)

Fock matrix formation       ....      19.936 sec  ( 95.8%)
Diagonalization             ....       0.080 sec  (  0.4%)
Density matrix formation    ....       0.012 sec  (  0.1%)
Population analysis         ....       0.060 sec  (  0.3%)
Initial guess               ....       0.237 sec  (  1.1%)
Orbital Transformation      ....       0.000 sec  (  0.0%)
Orbital Orthonormalization  ....       0.000 sec  (  0.0%)
DIIS solution               ....       0.000 sec  (  0.0%)
SOSCF solution              ....       0.080 sec  (  0.4%)


           ************************************************************
           *        Program running with 8 parallel MPI-processes     *
           *              working on a common directory               *
           ************************************************************


------------------------------------------------------------------------------- 
                              ORCA-MATRIX DRIVEN CI                            
------------------------------------------------------------------------------- 


Wavefunction type
-----------------
Correlation treatment                      ...      CCSD     
Single excitations                         ... ON
Orbital optimization                       ... OFF
Calculation of Z vector                    ... OFF
Calculation of Brueckner orbitals          ... OFF
Perturbative triple excitations            ... ON
Calculation of F12 correction              ... OFF
Frozen core treatment                      ... chemical core (10 el)
Reference Wavefunction                     ... RHF
  Internal Orbitals:     5 ...   20 ( 16 MO's/ 32 electrons)
  Virtual  Orbitals:    21 ...  317 (297 MO's              )
Number of AO's                             ...    318
Number of electrons                        ...     42
Number of correlated electrons             ...     32

Algorithmic settings
--------------------
Integral transformation                    ... All integrals via the RI transformation
K(C) Formation                             ... RI-DLPNO
   PNO-Integral Storage                    ... ON DISK
   PNO occupation number cut-off           ... 1.000e-07
   Singles PNO occupation number cut-off   ... 3.000e-09
   PNO Mulliken prescreening cut-off       ... 1.000e-03
   Domain cut-off (Mulliken population)    ... 1.000e-03
   PNO Normalization                       ...    1
Maximum number of iterations               ...        50
Convergence tolerance (max. residuum)      ... 1.000e-05
Level shift for amplitude update           ... 2.000e-01
Maximum number of DIIS vectors             ...         7
DIIS turned on at iteration                ...         0
Damping before turning on DIIS             ...     0.500
Damping after turning on DIIS              ...     0.000
Pair specific amplitude update             ... OFF
Natural orbital iterations                 ... OFF
Perturbative natural orbital generation    ... OFF
Printlevel                                 ... 2

Singles Fock matrix elements calculated using PNOs.

Memory handling:
----------------
Maximum memory for working arrays          ...   8000 MB
Data storage in matrix containers          ... UNCOMPRESSED
Data type for integral storage             ... DOUBLE
In-Core Storage of quantities:
   Amplitudes+Sigma Vector      ... NO
   J+K operators                ... NO
   DIIS vectors                 ... NO
   3-external integrals         ... NO
   4-external integrals         ... NO

Localization treatment:
-----------------------
Localization option                        ...    6
Localization threshhold                    ... -1.0e+00
Using relative localization threshhold     ... 1.0e-08
Neglect threshold for strong pairs         ... 1.000e-05 Eh
Prescreening threshold for very weak pairs ... 1.000e-07 Eh

Initializing the integral package          ... done
Localizing the valence orbitals
------------------------------------------------------------------------------
                           ORCA ORBITAL LOCALIZATION
------------------------------------------------------------------------------

Input orbitals are from                  ... EtdiMeNH_g.proc0.gbw
Output orbitals are to                   ... EtdiMeNH_g.proc0.loc
Max. number of iterations                ... 128
Localizations seeded randomly            ... off
Convergence tolerance                    ... 1.000e-06
Using relative localization threshhold   ... 1.000e-08
Treshold for strong local MOs            ... 9.500e-01
Treshold for bond MOs                    ... 8.500e-01
Operator                                 ... 0
Orbital range for localization           ... 5 to 20
Localization criterion                   ... FOSTER-BOYS (AUGMENTED HESSIAN)
Doing the dipole integrals     ... o.k.
Initial value of the localization sum :   136.899272
ITERATION   0 : L=  170.1658028440 DL=  3.33e+01 (AVERGE_DL)=    0.5265178900 
ITERATION   1 : L=  173.2949735038 DL=  3.13e+00 (AVERGE_DL)=    0.1614819562 
ITERATION   2 : L=  173.3084308291 DL=  1.35e-02 (AVERGE_DL)=    0.0105898243 
ITERATION   3 : L=  173.3084959125 DL=  6.51e-05 (AVERGE_DL)=    0.0007364520 
ITERATION   4 : L=  173.3084960248 DL=  1.12e-07 (AVERGE_DL)=    0.0000305918 
LOCALIZATION SUM CONVERGED

------------------------------------------------------
AUGMENTED HESSIAN OPTIMIZATION OF FOSTER-BOYS ORBITALS
------------------------------------------------------

Spin operator:           0
Orbital window:          5 to 20
Number of iterations:    128
Gradient tolerance:      1.000e-06
Number of pairs:         120
Davidson threshold:      2000
Diagonalization method:  LAPACK
Iter:    0   L: 173.3084960248   Grad. norm: 5.561709e-04
   *** Likely close to a maximum now. ***
       Augmented Hessian eigenvalues:  3.63e-09 -1.04e+01 -1.04e+01 -1.14e+01 ... 
Iter:    1   L: 173.3084960266   Grad. norm: 2.826811e-10
LOCALIZATION HAS CONVERGED.

Eigenvalues of the Hessian:
  0 -1.040e+01
  1 -1.044e+01
  2 -1.137e+01
  3 -1.468e+01
  4 -1.564e+01
  5 -1.565e+01
  6 -1.625e+01
  7 -1.634e+01
  8 -1.634e+01
  9 -1.717e+01
    ...


------------------------------------------------------------------------------- 
                    LOCALIZED MOLECULAR ORBITAL COMPOSITIONS                   
------------------------------------------------------------------------------- 

The Mulliken populations for each LMO on each atom are computed
The LMO`s will be ordered according to atom index and type
  (A) Strongly localized MO`s have populations of >=0.950 on one atom
  (B) Two center bond orbitals have populations of >=0.850 on two atoms
  (C) Other MO`s are considered to be `delocalized`

FOUND  -   0 strongly local MO`s
       -  16 two center bond MO`s
       -   0 significantly delocalized MO`s

Bond-like localized orbitals:
MO  20:  16H  -   0.431719  and   3C  -   0.590010
MO  19:  15H  -   0.441044  and   3C  -   0.582565
MO  18:  14H  -   0.433850  and   3C  -   0.586856
MO  17:  13H  -   0.428828  and   2N  -   0.576083
MO  16:  12H  -   0.441045  and   4C  -   0.582565
MO  15:  11H  -   0.433850  and   4C  -   0.586856
MO  14:  10H  -   0.431719  and   4C  -   0.590010
MO  13:   9H  -   0.429366  and   1C  -   0.595811
MO  12:   8H  -   0.429369  and   1C  -   0.595808
MO  11:   7H  -   0.454836  and   0C  -   0.568530
MO  10:   6H  -   0.454835  and   0C  -   0.568531
MO   9:   5H  -   0.435897  and   0C  -   0.582565
MO   8:   4C  -   0.351202  and   2N  -   0.654519
MO   7:   3C  -   0.351200  and   2N  -   0.654520
MO   6:   2N  -   0.672417  and   1C  -   0.334741
MO   5:   1C  -   0.572901  and   0C  -   0.449039
Localized MO's were stored in: EtdiMeNH_g.proc0.loc

Localizing the core orbitals
------------------------------------------------------------------------------
                           ORCA ORBITAL LOCALIZATION
------------------------------------------------------------------------------

Input orbitals are from                  ... EtdiMeNH_g.proc0.loc
Output orbitals are to                   ... EtdiMeNH_g.proc0.loc
Max. number of iterations                ... 128
Localizations seeded randomly            ... off
Convergence tolerance                    ... 1.000e-06
Using relative localization threshhold   ... 1.000e-08
Treshold for strong local MOs            ... 9.500e-01
Treshold for bond MOs                    ... 8.500e-01
Operator                                 ... 0
Orbital range for localization           ... 0 to 4
Localization criterion                   ... FOSTER-BOYS (AUGMENTED HESSIAN)
Doing the dipole integrals     ... o.k.
Initial value of the localization sum :    38.871685
ITERATION   0 : L=   38.8716863099 DL=  9.23e-07 (AVERGE_DL)=    0.0003037911 
LOCALIZATION SUM CONVERGED

------------------------------------------------------
AUGMENTED HESSIAN OPTIMIZATION OF FOSTER-BOYS ORBITALS
------------------------------------------------------

Spin operator:           0
Orbital window:          0 to 4
Number of iterations:    128
Gradient tolerance:      1.000e-06
Number of pairs:         10
Davidson threshold:      2000
Diagonalization method:  LAPACK
Iter:    0   L: 38.8716863099   Grad. norm: 6.665488e-07
   *** Likely close to a maximum now. ***
       Augmented Hessian eigenvalues:  4.95e-15 -3.24e+01 -3.24e+01 -3.31e+01 ... 
Iter:    1   L: 38.8716863099   Grad. norm: 6.547620e-21
LOCALIZATION HAS CONVERGED.

Eigenvalues of the Hessian:
  0 -3.242e+01
  1 -3.242e+01
  2 -3.305e+01
  3 -3.356e+01
  4 -8.874e+01
  5 -9.202e+01
  6 -9.202e+01
  7 -9.415e+01
  8 -1.394e+02
  9 -1.394e+02


------------------------------------------------------------------------------- 
                    LOCALIZED MOLECULAR ORBITAL COMPOSITIONS                   
------------------------------------------------------------------------------- 

The Mulliken populations for each LMO on each atom are computed
The LMO`s will be ordered according to atom index and type
  (A) Strongly localized MO`s have populations of >=0.950 on one atom
  (B) Two center bond orbitals have populations of >=0.850 on two atoms
  (C) Other MO`s are considered to be `delocalized`

FOUND  -   5 strongly local MO`s
       -   0 two center bond MO`s
       -   0 significantly delocalized MO`s

Rather strongly localized orbitals:
MO   4:   4C  -   1.000944
MO   3:   3C  -   1.000945
MO   2:   2N  -   1.000240
MO   1:   1C  -   1.001241
MO   0:   0C  -   1.001061
Localized MO's were stored in: EtdiMeNH_g.proc0.loc

Warning: internal orbitals are localized - no re-canonicalization of internal orbitals

--------------------------
CLOSED-SHELL FOCK OPERATOR
--------------------------

RI-JK section for the Fock operator:
  RHF full Fock operator         ... done
  RHF frozen core Fock operator  ... done
Time needed for Fock operator              ...            3.912 sec
Reference energy                           ...   -212.766788677

--------------
DLPNO SETTINGS (2015 fully linear scaling implementation)
--------------

TCutMKN:           1.000e-03
TCutPAO:           1.000e-03
TCutPNO:           1.000e-07
TCutPNOSingles:    3.000e-09
TCutEN:            9.700e-01
TCutPAOExt:        1.000e-01
TCutPairs:         1.000e-05
TCutPre:           1.000e-07
TCutOSV:           1.000e-06
TCutDOij:          1.000e-05
TCutDO:            5.000e-03
TCutC:             1.000e-04
TCutCPAO:          1.000e-03
TCutCMO:           1.000e-03
TScaleDOMP2PreScr: 2.000e+00
TScaleMKNMP2PreScr:1.000e+01
TScalePNOMP2PreScr:1.000e+00
PAO overlap thresh 1.000e-08
Using PNOs for Singles Fock computation
Use new domains
Use fully linear algorithm
TCutTNO:           1.000e-09
TCutMP2Pairs:      1.000e-06
TCutDOStrong:      2.000e-03
TCutMKNStrong:     1.000e-02
TCutMKNWeak:       1.000e-01
TCutDOWeak:        4.000e-03
NTCutTNO:          1

--------------------------
Calculating differential overlap integrals ... ok
--------------------------
ELECTRON PAIR PRESCREENING
--------------------------

Dipole-based pair screening          .... used

   TCutDOij = 1.000000e-05
   TCutPre  = 1.000000e-07
   .... Finished loop over pairs
Total time spent in the prescreening                  ...     0.000 sec
sum of pair energies estimated for screened out pairs ...       0.000000000000 Eh
Thresholds for map construction and integral transformation for crude MP2:
   TCutMKN                    ...     1.0e-02
   TCutDO                     ...     1.0e-02
   TCutPairs                  ...     1.0e-05
   TCutPNO_CrudeMP2           ...     1.0e-07
   TCutPNOSingles_CrudeMP2    ...     3.0e-09
--------------------------------
LOCAL RI TRANSFORMATION (IAVPAO)
--------------------------------

Orbital window:       5 to 20
Number of PAOs:     318
Basis functions:    318 (122 shells)
Aux. functions:     765 (235 shells)

Processing maps (0.0 sec)
Average map sizes:
   Aux shells -> MOs              16.0
   Aux shells -> PAOs            318.0
   MOs        -> AO shells       121.2
   PAOs       -> AO shells       122.0

Calculating integrals (0.6 sec, 29.705 MB)
Sorting integrals (0.1 sec, 29.696 MB)
Total time for the integral transformation: 0.6 sec
--------------------------------
INITIAL GUESS AND PNO GENERATION
--------------------------------

PNO truncation parameters                   .... 
    PAOOverlapThresh   =        1.000e-08

    TCutPairs          =        1.000e-05
    TCutPNO            =        1.000e-07
    TCutPNOSingles     =        3.000e-09
    TCutMP2Pairs       =        1.000e-06
    TCutMKN            =        1.000e-02
    TCutDO             =        1.000e-02

Pair selection                          .... not used
Type of local MP2 treatment                 .... semi-local MP2
Strategy for PNO selection                  .... occupation number selection
Pair density normalization                  .... MP2 norm
Spin component scaling                      .... not used

   .... Finished loop over pairs
Making pair pair interaction lists          ... done

                       ===========================
                        136 OF  136 PAIRS ARE KEPT CCSD PAIRS
                          0 OF  136 PAIRS ARE KEPT MP2 PAIRS FOR (T)
                          0 OF  136 PAIRS ARE SKIPPED
                       ===========================

Total time spent in the initial guess                 ...     1.177 sec
SL-MP2 correlation energy (all non-screened pairs)    ...      -0.896986252894 Eh

Initial PNO correlation energy                        ...      -0.896157089383 Eh
sum of pair energies prescreened and skipped MP2 pairs...       0.000000000000 Eh
sum of pair energies of crude MP2 skipped pairs only  ...       0.000000000000 Eh
sum of MP2 pair energies for pairs that were not kept ...       0.000000000000 Eh
sum of PNO error estimates for the kept pairs         ...      -0.000829163511 Eh
                                                          --------------------
sum of all corrections                                         -0.000829163511
Initial total correlation energy                               -0.896986252894
Thresholds for map construction and integral transformation for fine MP2 and CCSD(T) calculation:
   TCutMKN   ...     1.0e-03
   TCutDO    ...     5.0e-03
   TCutPairs ...     1.0e-05
   TCutCMO   ...     1.0e-03
   TCutCPAO  ...     1.0e-03

Thresholds for map construction and integral transformation for strong Triples:
   TCutMKN   ...     1.0e-02
   TCutDO    ...     1.0e-02
   TCutCMO   ...     1.0e-03
   TCutCPAO  ...     1.0e-03

Thresholds for map construction and integral transformation for weak Triples:
   TCutMKN   ...     1.0e-01
   TCutDO    ...     2.0e-02
   TCutCMO   ...     1.0e-03
   TCutCPAO  ...     1.0e-03

--------------------------------
LOCAL RI TRANSFORMATION (IAVPAO)
--------------------------------

Orbital window:       5 to 20
Number of PAOs:     318
Basis functions:    318 (122 shells)
Aux. functions:     765 (235 shells)

Processing maps (0.0 sec)
Average map sizes:
   Aux shells -> MOs              16.0
   Aux shells -> PAOs            318.0
   MOs        -> AO shells       121.2
   PAOs       -> AO shells       122.0

Calculating integrals (1.3 sec, 29.705 MB)
Sorting integrals (0.1 sec, 29.696 MB)
Total time for the integral transformation: 1.4 sec
--------------------------------
INITIAL GUESS AND PNO GENERATION
--------------------------------

PNO truncation parameters                   .... 
    ScaleTCutPNO       =        1.000e-02
    PAOOverlapThresh   =        1.000e-08

    TCutPairs          =        1.000e-05
    TCutPNO            =        1.000e-07
    TCutPNOSingles     =        3.000e-09
    TCutMP2Pairs       =        1.000e-06
    TCutMKN            =        1.000e-03
    TCutDO             =        5.000e-03

Pair selection                          .... not used
Type of local MP2 treatment                 .... full local PMP2
Strategy for PNO selection                  .... occupation number selection
Pair density normalization                  .... MP2 norm
Spin component scaling                      .... not used

PASS-1: Formation of initial guess LMP2 amplitudes
Initial amplitudes guess done. Entering LMP2 iteration loop:
   Max. no of iterations          ...  50
   Energy convergence tolerance   ...    1.0e-07
   Residual convergence tolerance ...    5.0e-07
   Fock matrix cutoff             ...    1.0e-05 Eh
   DIIS convergence acceleration parameters:
        Max # vectors in DIIS     ... 7
        Start iteration of DIIS   ... 0
        Levelshift                ... 2.000e-01
        Damping factor 1          ... 5.000e-01
        Damping factor 2          ... 1.000e+00
   L-MP2 PNO cut-off              ...   1.0e-09
   L-MP2 PNO cut-off (core)       ...   1.0e-11
                           *** Turning on DIIS ***
LMP2-Iter=   0:  ELMP2= -0.911339388211  DE=   1.4e-02 RMAX=   5.2e-03
LMP2-Iter=   1:  ELMP2= -0.918731465426  DE=   7.4e-03 RMAX=   2.2e-03
LMP2-Iter=   2:  ELMP2= -0.919765921483  DE=   1.0e-03 RMAX=   3.5e-04
LMP2-Iter=   3:  ELMP2= -0.919855190283  DE=   8.9e-05 RMAX=   1.0e-04
LMP2-Iter=   4:  ELMP2= -0.919857094090  DE=   1.9e-06 RMAX=   1.0e-05
LMP2-Iter=   5:  ELMP2= -0.919856220944  DE=   8.7e-07 RMAX=   2.8e-06
LMP2-Iter=   6:  ELMP2= -0.919856126716  DE=   9.4e-08 RMAX=   2.8e-07
LMP2-Iter=   7:  ELMP2= -0.919856119745  DE=   7.0e-09 RMAX=   7.2e-08 => CONVERGED
PASS-2: Formation of Pair natural orbitals
   .... Finished loop over pairs

 PNO Occupation Number Statistics: 
  | Av. % of trace(Dij) retained        ...  99.684937964700
  | sigma^2 in % of trace(Dij) retained ...   1.18e-01
  | Av. % of trace(Di) retained         ...  99.999772616957
  | sigma^2 in % of trace(Di) retained  ...   2.47e-09
 Distributions of % trace(Dij) recovered:
  |       >= 99.9  ...    46 ( 33.8 % of all pairs)
  |   [90.0, 99.0) ...     8 (  5.9 % of all pairs)
  |   [99.0, 99.9) ...    82 ( 60.3 % of all pairs)
 Distributions of % trace(Di) recovered :
  |       >= 99.9  ...    16 (100.0 % of all I-pairs )

Making pair pair interaction lists          ... done

                       ===========================
                        136 OF  136 PAIRS ARE KEPT
                       ===========================

Total time spent in the initial guess                 ...     7.313 sec
L-MP2 correlation energy (all non-screened pairs)     ...      -0.919856119745 Eh
L-MP2 PNO error correction                            ...      -0.000017147161 Eh
                                                          --------------------
Initial total L-MP2 energy (non-screened pairs)       ...      -0.919873266906 Eh

Initial PNO correlation energy                        ...      -0.919059851423 Eh
sum of pair energies estimated for screened out pairs ...       0.000000000000 Eh
sum of MP2 pair energies for pairs that were not kept ...       0.000000000000 Eh
sum of PNO error estimates for the kept pairs         ...      -0.000813415483 Eh
                                                          --------------------
sum of all corrections                                         -0.000813415483
Initial total correlation energy                               -0.919873266906
Thresholds for map construction and integral transformation for fine MP2 and CCSD(T) calculation:
   TCutMKN   ...     1.0e-03
   TCutDO    ...     5.0e-03
   TCutPairs ...     1.0e-05
   TCutCMO   ...     1.0e-03
   TCutCPAO  ...     1.0e-03

Time for aux screen maps:            0.003
Time for maps after fine MP2:            0.009
-----------------------------
LOCAL RI TRANSFORMATION (IJV)
-----------------------------

Orbital window:       5 to 20
Basis functions:    318 (122 shells)
Aux. functions:     765 (235 shells)

Processing maps (0.0 sec)
Average map sizes:
   Aux shells -> MOs(i)           16.0
   Aux shells -> MOs(j)           16.0
   MOs        -> AO shells       121.2

Calculating integrals (0.5 sec, 1.503 MB)
Sorting integrals (0.0 sec, 1.494 MB)
Total time for the integral transformation: 0.6 sec
--------------------------------
LOCAL RI TRANSFORMATION (VABPAO)
--------------------------------

Number of PAOs:     318
Basis functions:    318 (122 shells)
Aux. functions:     765 (235 shells)

Processing maps (0.0 sec)
Average map sizes:
   Aux shells -> PAOs            318.0
   PAOs       -> AO shells       122.0

Calculating integrals (1.5 sec, 1103.283 MB)
Finished


-------------------------------------
Pair Pair Term precalculation with     
RI-(ij|mn) and (im|jn) transformation  
ON THE FLY                             
-------------------------------------

   IBatch   1 (of   1)              ... done (   28.304 sec)
Total EXT                           ...          28.304 sec

---------------------
RI-PNO TRANSFORMATION
---------------------

Total Number of PNOs                   ...  5948
Average number of PNOs per pair        ...    43
Maximal number of PNOs per pair        ...    68
   #pairs with  1 -  5 PNOs   :    0
   #pairs with  6 - 10 PNOs   :    0
   #pairs with 11 - 15 PNOs   :    4
   #pairs with 16 - 20 PNOs   :    6
   #pairs with 21 - 25 PNOs   :   14
   #pairs with 26 - 30 PNOs   :   14
   #pairs with 31 - 35 PNOs   :   12
   #pairs with 36 - 40 PNOs   :    4
   #pairs with 41 - 45 PNOs   :    4
   #pairs with 46 - 50 PNOs   :   26
   #pairs with 51 - 55 PNOs   :   18
   #pairs with 56 - 60 PNOs   :    3
   #pairs with 61 - 65 PNOs   :   22
   #pairs with 66 - 70 PNOs   :    9

Generation of (ij|ab)[P] integrals            ... on
Generation of (ia|bc)[P],(ja|bc)[P] integrals ... on
Storage of 3 and 4 external integrals         ... on
Generation of ALL (ka|bc)[P] integrals        ... on
Keep RI integrals in memory                   ... off

Ibatch:  1 (of  1)
Starting 2-4 index PNO integral generation ... done

Timings:
Total PNO integral transformation time     ...         12.752 sec
Size of the 3-external file                ...       123 MB
Size of the 4-external file                ...       891 MB
Size of the IKJL file                      ...         0 MB
Size of the all 3-external file            ...       989 MB
Size of the 1-external file                ...         2 MB

Making pair/pair overlap matrices          ... done (    1.210 sec)
Size of the pair overlap file              ... 204 MB
Redoing the guess amplitudes               ... done (    0.002 sec)

-------------------------
FINAL STARTUP INFORMATION
-------------------------

E(0)                                       ...   -212.766788677
E(L-MP2)                                   ...     -0.919873267
E(L-MP2) including corrections             ...     -0.919873267
Initial E(tot)                             ...   -213.686661944
<T|T>                                      ...      0.253783436
Number of pairs included                   ... 136
Total number of pairs                      ... 136

------------------------------------------------
                  RHF COUPLED CLUSTER ITERATIONS
------------------------------------------------

Number of PNO amplitudes to be optimized   ...       295456
Number of non-PNO amplitudes               ...     11996424
Untruncated number of regular amplitudes   ...     11996424

Iter       E(tot)           E(Corr)          Delta-E          Residual     Time
  0   -213.663795311     -0.896193218      0.023680048      0.015871797    7.85
                           *** Turning on DIIS ***
  1   -213.714979666     -0.947377574     -0.051184355      0.009399745    7.91
  2   -213.740818709     -0.973216616     -0.025839043      0.002564335    7.99
  3   -213.745255927     -0.977653834     -0.004437218      0.001187646    9.31
  4   -213.746097442     -0.978495350     -0.000841516      0.000245158    8.39
  5   -213.746235903     -0.978633810     -0.000138461      0.000090861    7.96
  6   -213.746263628     -0.978661535     -0.000027725      0.000026768    7.97
  7   -213.746266312     -0.978664219     -0.000002684      0.000008186    7.97
               --- The Coupled-Cluster iterations have converged ---

----------------------
COUPLED CLUSTER ENERGY
----------------------

E(0)                                       ...   -212.766788677
E(CORR)(strong-pairs)                      ...     -0.978664219
E(CORR)(weak-pairs)                        ...     -0.000813415
E(CORR)(corrected)                         ...     -0.979477634
E(TOT)                                     ...   -213.746266312
Singles Norm <S|S>**1/2                    ...      0.045011923  
T1 diagnostic                              ...      0.007957059  

------------------
LARGEST AMPLITUDES
------------------
   6-> 21   6-> 21       0.053185
   7-> 21   7-> 21       0.038738
   8-> 21   8-> 21       0.038736
  17-> 21  17-> 21       0.037292
  15-> 28  15-> 28       0.030716
  18-> 28  18-> 28       0.030716
   9-> 29   9-> 29       0.030623
  14-> 28  14-> 28       0.030132
  20-> 28  20-> 28       0.030132
  16-> 21  16-> 21       0.028431
  19-> 21  19-> 21       0.028431
  12-> 21  12-> 21       0.028426
  13-> 21  13-> 21       0.028425
  11-> 28  11-> 28       0.028291
  10-> 28  10-> 28       0.028290
  11-> 21  11-> 21       0.027935


-------------------------------------------
DLPNO BASED TRIPLES CORRECTION
-------------------------------------------

Singles multiplier          ...  1.000000
TCutTNO                     ... 1.000e-09
TCutMP2Pairs                ... 1.000e-06
TCutDOStrong                ... 1.000e-02
TCutMKNStrong               ... 1.000e-02
TCutDOWeak                  ... 2.000e-02
TCutMKNWeak                 ... 1.000e-01

Fragment selection                          .... not used
Number of Triples that are to be computed   ...       800

 . . . . . . . . .
10% done  
20% done  
30% done  
40% done  
50% done  
60% done  
70% done  
80% done  
90% done               (     68.997 sec)
Triples timings:
Total time for T0               ...    74.437 sec
Total time for Iterative (T)    ...     0.000 sec
Total time of overall (T)       ...    75.088 sec

Triples List generation         ...     0.000 sec
TNO generation                  ...     5.428 sec
Pair density generation         ...     0.003 sec
Look up tables                  ...     0.000 sec
Generating 3-index integrals    ...    40.971 sec
  Make 4-ind.int. from 3-ind.int...     8.738 sec
  Projecting amplitudes (D + S) ...     5.612 sec
  Downprojecting integrals      ...     0.002 sec
  Energy contr. (sum over a,b,c)...     3.999 sec
Fitting ET(->0)                 ...     0.000 sec

Everything after 3-index        ...    28.026 sec

Timing details:
 TNO integrals                  ...    48.958 sec
   Reading 3-index integrals    ...     0.207 sec
   Sorting integrals            ...     7.404 sec
       Sorting integrals 1      ...     0.001 sec
       Sorting integrals 2      ...     3.085 sec
       Sorting integrals 3      ...     0.201 sec
       Sorting integrals 4      ...     0.009 sec
       Sorting integrals 5      ...     0.063 sec
       Sorting integrals 6      ...     4.047 sec
   Calculating local VM**-1/2   ...     0.125 sec
   Orthogonal. integrals        ...     0.285 sec
   Multipl. 3-index integrals   ...    40.937 sec
   All concerning IRIab (w/TNO) ...     4.060 sec

 Calculate W0/W1                ...     9.668 sec
 W 3-ext contribution           ...     5.214 sec
 W 3-int contribution           ...     1.329 sec
 Sorting W                      ...     2.990 sec

 V exchange contribution        ...     1.281 sec

 Timings for Triples without generation
     of 3-index integrals       ...    28.025 sec
       0 weak pairs             ...    28.025 sec
       1 weak pair              ...     0.000 sec
       2 weak pairs             ...     0.000 sec
       3 weak pairs             ...     0.000 sec
  Extra time for extrapolation  ...     0.000 sec

Number of Triples   (0, 1, 2, 3 weak pairs; overall):    800       0       0       0  (   800)
Number of Atoms     (0, 1, 2, 3 weak pairs; overall):   16.7     0.0     0.0     0.0  (    17)
Number of PAOs      (0, 1, 2, 3 weak pairs; overall):  314.3     0.0     0.0     0.0  (   318)
Number of AuxFcns   (0, 1, 2, 3 weak pairs; overall):  301.9     0.0     0.0     0.0  (   765)
Number of TNOs      (0, 1, 2, 3 weak pairs         ):  102.3     0.0     0.0     0.0
Aver. Number of NTNO, Atoms, PAOs, AuxFcns / Triples:    800   102.3    16.7   314.3   301.9

Triples Correction (T)                     ...     -0.035552114
Final correlation energy                   ...     -1.015029749
E(CCSD)                                    ...   -213.746266312
E(CCSD(T))                                 ...   -213.781818426


Maximum memory used throughout the entire calculation: 4433.0 MB


------------------------------------------------------------------------------- 
                                     TIMINGS                                   
------------------------------------------------------------------------------- 


Total execution time                   ...      202.341 sec

Localization of occupied MO's          ...        0.528 sec (  0.3%)
Fock Matrix Formation                  ...        3.912 sec (  1.9%)
Global overlap, Fock, MKN matrices     ...        0.179 sec (  0.1%)
Differential overlap integrals         ...        0.098 sec (  0.0%)
Organizing maps                        ...        0.028 sec (  0.0%)
RI 3-index integral generations        ...        4.121 sec (  2.0%)
RI-PNO integral transformation         ...       43.980 sec ( 21.7%)
Initial Guess                          ...        8.527 sec (  4.2%)
DIIS Solver                            ...        0.880 sec (  0.4%)
State Vector Update                    ...        0.016 sec (  0.0%)
Sigma-vector construction              ...       65.208 sec ( 32.2%)
  <D|H|D>(0-ext)                       ...        1.090 sec (  1.7% of sigma)
  <D|H|D>(2-ext Fock)                  ...        0.007 sec (  0.0% of sigma)
  <D|H|D>(2-ext)                       ...        5.798 sec (  8.9% of sigma)
  <D|H|D>(4-ext)                       ...        9.049 sec ( 13.9% of sigma)
  <D|H|D>(4-ext-corr)                  ...       38.020 sec ( 58.3% of sigma)
  CCSD doubles correction              ...        0.088 sec (  0.1% of sigma)
  <S|H|S>                              ...        0.315 sec (  0.5% of sigma)
  <S|H|D>(1-ext)                       ...        0.165 sec (  0.3% of sigma)
  <D|H|S>(1-ext)                       ...        0.005 sec (  0.0% of sigma)
  <S|H|D>(3-ext)                       ...        0.300 sec (  0.5% of sigma)
  Fock-dressing                        ...        7.992 sec ( 12.3% of sigma)
  Singles amplitudes                   ...        0.203 sec (  0.3% of sigma)
  (ik|jl)-dressing                     ...        0.811 sec (  1.2% of sigma)
  (ij|ab),(ia|jb)-dressing             ...        1.041 sec (  1.6% of sigma)
  Pair energies                        ...        0.005 sec (  0.0% of sigma)
Total Time for computing (T)           ...       75.118 sec ( 37.1% of ALL)


-------------------------   --------------------
FINAL SINGLE POINT ENERGY      -213.781818425873
-------------------------   --------------------


                            ***************************************
                            *     ORCA property calculations      *
                            ***************************************

                                    ---------------------
                                    Active property flags
                                    ---------------------
   (+) Dipole Moment


------------------------------------------------------------------------------
                       ORCA ELECTRIC PROPERTIES CALCULATION
------------------------------------------------------------------------------

Dipole Moment Calculation                       ... on
Quadrupole Moment Calculation                   ... off
Polarizability Calculation                      ... off
GBWName                                         ... EtdiMeNH_g.gbw
Electron density file                           ... EtdiMeNH_g.scfp.tmp
The origin for moment calculation is the CENTER OF MASS  = ( 0.008854,  0.000000  0.025986)

-------------
DIPOLE MOMENT
-------------
                                X             Y             Z
Electronic contribution:      1.05267       0.00001       1.54036
Nuclear contribution   :     -0.38075       0.00000      -1.11725
                        -----------------------------------------
Total Dipole Moment    :      0.67192       0.00001       0.42311
                        -----------------------------------------
Magnitude (a.u.)       :      0.79404
Magnitude (Debye)      :      2.01830



--------------------
Rotational spectrum 
--------------------
 
Rotational constants in cm-1:     0.206973     0.125265     0.102323 
Rotational constants in MHz :  6204.901634  3755.339391  3067.560013 

 Dipole components along the rotational axes: 
x,y,z [a.u.] :     0.671238    -0.000009     0.424199 
x,y,z [Debye]:     1.706153    -0.000024     1.078228 

 

Timings for individual modules:

Sum of individual times         ...      224.144 sec (=   3.736 min)
GTO integral calculation        ...        0.611 sec (=   0.010 min)   0.3 %
SCF iterations                  ...       20.930 sec (=   0.349 min)   9.3 %
MDCI module                     ...      202.603 sec (=   3.377 min)  90.4 %
                             ****ORCA TERMINATED NORMALLY****
TOTAL RUN TIME: 0 days 0 hours 3 minutes 44 seconds 430 msec
EtdiMeNH_g.gbw -> /home1/pantazis/klk/xyz/Nitrogen_compounds/EtdiMeNH_g.gbw
EtdiMeNH_g.job -> /home1/pantazis/klk/xyz/Nitrogen_compounds/EtdiMeNH_g.job
EtdiMeNH_g.loc -> /home1/pantazis/klk/xyz/Nitrogen_compounds/EtdiMeNH_g.loc
EtdiMeNH_g.nodes -> /home1/pantazis/klk/xyz/Nitrogen_compounds/EtdiMeNH_g.nodes
EtdiMeNH_g.o158238 -> /home1/pantazis/klk/xyz/Nitrogen_compounds/EtdiMeNH_g.o158238
EtdiMeNH_g.prop -> /home1/pantazis/klk/xyz/Nitrogen_compounds/EtdiMeNH_g.prop
EtdiMeNH_g_property.txt -> /home1/pantazis/klk/xyz/Nitrogen_compounds/EtdiMeNH_g_property.txt
EtdiMeNH_g.xyz -> /home1/pantazis/klk/xyz/Nitrogen_compounds/EtdiMeNH_g.xyz
cp: cannot stat EtdiMeNH_g.asa.inp: No such file or directory
