! Job execution by suborca V 6.07 on ZEUS !
Job started from zeus1, running /scratch/pantazis/ethanediamineH_Tg__kQfitT/orca/orca copied from /opt/orca on zeussn153 in /scratch/pantazis/ethanediamineH_Tg__kQfitT
Job execution start: Fri Jun 28 09:10:10 CEST 2019
Shared library path: /scratch/pantazis/ethanediamineH_Tg__kQfitT/orca:/opt/openmpi_1.10.2/lib:/opt/intel/mkl/lib/intel64:/opt/intel/lib/intel64:
PBS Job ID is: 158342.icqc
izeussn153
izeussn153
izeussn153
izeussn153
izeussn153
izeussn153
izeussn153
izeussn153

                                 *****************
                                 * O   R   C   A *
                                 *****************

           --- An Ab Initio, DFT and Semiempirical electronic structure package ---

                  #######################################################
                  #                        -***-                        #
                  #          Department of theory and spectroscopy      #
                  #               Directorship: Frank Neese             #
                  #        Max Planck Institute fuer Kohlenforschung    #
                  #                Kaiser Wilhelm Platz 1               #
                  #                 D-45470 Muelheim/Ruhr               #
                  #                      Germany                        #
                  #                                                     #
                  #                  All rights reserved                #
                  #                        -***-                        #
                  #######################################################


                         Program Version 4.1.x  -  STABLE  -
                                (SVN: $Rev: 14094$)
                ($Date: 2019-06-14 15:01:15 +0200 (Fri, 14 Jun 2019) $)

                         (BUILD: $Sun Jun 23 06:18:31 CEST 2019$)


 With contributions from (in alphabetic order):
   Daniel Aravena         : Magnetic Properties
   Michael Atanasov       : Ab Initio Ligand Field Theory
   Alexander A. Auer      : GIAO ZORA
   Ute Becker             : Parallelization
   Giovanni Bistoni       : ED, Open-shell LED
   Martin Brehm           : Molecular dynamics
   Dmytro Bykov           : SCF Hessian
   Vijay G. Chilkuri      : MRCI spin determinant printing
   Dipayan Datta          : RHF DLPNO-CCSD density
   Achintya Kumar Dutta   : EOM-CC, STEOM-CC
   Dmitry Ganyushin       : Spin-Orbit,Spin-Spin,Magnetic field MRCI
   Miquel Garcia          : C-PCM Hessian
   Yang Guo               : DLPNO-NEVPT2, CIM, IAO-localization
   Andreas Hansen         : Spin unrestricted coupled pair/coupled cluster methods
   Benjamin Helmich-Paris : CASSCF linear response (MC-RPA)
   Lee Huntington         : MR-EOM, pCC
   Robert Izsak           : Overlap fitted RIJCOSX, COSX-SCS-MP3, EOM
   Christian Kollmar      : KDIIS, OOCD, Brueckner-CCSD(T), CCSD density
   Simone Kossmann        : Meta GGA functionals, TD-DFT gradient, OOMP2, MP2 Hessian
   Martin Krupicka        : AUTO-CI
   Lucas Lang             : DCDCAS
   Dagmar Lenk            : GEPOL surface, SMD
   Dimitrios Liakos       : Extrapolation schemes; parallel MDCI
   Dimitrios Manganas     : ROCIS; embedding schemes
   Dimitrios Pantazis     : SARC Basis sets
   Taras Petrenko         : DFT Hessian,TD-DFT gradient, ASA, ECA, R-Raman, ABS, FL, XAS/XES, NRVS
   Peter Pinski           : DLPNO-MP2, DLPNO-MP2 Gradient
   Christoph Reimann      : Effective Core Potentials
   Marius Retegan         : Local ZFS, SOC
   Christoph Riplinger    : Optimizer, TS searches, QM/MM, DLPNO-CCSD(T), (RO)-DLPNO pert. Triples
   Tobias Risthaus        : Range-separated hybrids, TD-DFT gradient, RPA, STAB
   Michael Roemelt        : Restricted open shell CIS
   Masaaki Saitow         : Open-shell DLPNO
   Barbara Sandhoefer     : DKH picture change effects
   Avijit Sen             : IP-ROCIS
   Kantharuban Sivalingam : CASSCF convergence, NEVPT2, FIC-MRCI
   Bernardo de Souza      : ESD, SOC TD-DFT
   Georgi Stoychev        : AutoAux, RI-MP2 NMR
   Willem Van den Heuvel  : Paramagnetic NMR
   Boris Wezisla          : Elementary symmetry handling
   Frank Wennmohs         : Technical directorship


 We gratefully acknowledge several colleagues who have allowed us to
 interface, adapt or use parts of their codes:
   Stefan Grimme, W. Hujo, H. Kruse,             : VdW corrections, initial TS optimization,
                  C. Bannwarth                     DFT functionals, gCP, sTDA/sTD-DF
   Ed Valeev                                     : LibInt (2-el integral package), F12 methods
   Garnet Chan, S. Sharma, J. Yang, R. Olivares  : DMRG
   Ulf Ekstrom                                   : XCFun DFT Library
   Mihaly Kallay                                 : mrcc  (arbitrary order and MRCC methods)
   Andreas Klamt, Michael Diedenhofen            : otool_cosmo (COSMO solvation model)
   Jiri Pittner, Ondrej Demel                    : Mk-CCSD
   Frank Weinhold                                : gennbo (NPA and NBO analysis)
   Christopher J. Cramer and Donald G. Truhlar   : smd solvation model
   Lars Goerigk                                  : TD-DFT with DH, B97 family of functionals
   V. Asgeirsson, H. Jonsson                     : NEB implementation
   FAccTs GmbH                                   : IRC, NEB, NEB-TS, Multilevel


 Your calculation uses the libint2 library for the computation of 2-el integrals
 For citations please refer to: http://libint.valeyev.net

 This ORCA versions uses:
   CBLAS   interface :  Fast vector & matrix operations
   LAPACKE interface :  Fast linear algebra routines
   SCALAPACK package :  Parallel linear algebra routines




***************************************
The coordinates will be read from file: ethanediamineH_Tg.xyz
***************************************


----- Orbital basis set information -----
Your calculation utilizes the basis: cc-pVTZ 
       H, B-Ne : Obtained from the ccRepo (grant-hill.group.shef.ac.uk/ccrepo) Feb. 2017
                 T. H. Dunning, Jr., J. Chem. Phys. 90, 1007 (1989)
            He : Obtained from the ccRepo (grant-hill.group.shef.ac.uk/ccrepo) Feb. 2017
                 D. E. Woon, T. H. Dunning, Jr., J. Chem. Phys. 100, 2975 (1994)
  Li-Be, Na-Mg : Obtained from the ccRepo (grant-hill.group.shef.ac.uk/ccrepo) Feb. 2017
                 B. P. Prascher, D. E. Woon, K. A. Peterson, T. H. Dunning, Jr., A. K. Wilson, Theor. Chem. Acc. 128, 69 (2011)
         Al-Ar : Obtained from the ccRepo (grant-hill.group.shef.ac.uk/ccrepo) Feb. 2017
                 D. E. Woon, T. H. Dunning, Jr., J. Chem. Phys. 98, 1358 (1993)
            Ca : Obtained from the Peterson Research Group Website (tyr0.chem.wsu.edu/~kipeters) Feb. 2017
                 J. Koput, K. A. Peterson, J. Phys. Chem. 106, 9595 (2002)
         Sc-Zn : Obtained from the ccRepo (grant-hill.group.shef.ac.uk/ccrepo) Feb. 2017
                 N. B. Balabanov, K. A. Peterson, J. Chem. Phys. 123, 064107 (2005)
                 N. B. Balabanov, K. A. Peterson, J. Chem. Phys. 125, 074110 (2006)
         Ga-Kr : Obtained from the ccRepo (grant-hill.group.shef.ac.uk/ccrepo) Feb. 2017
                 A. K. Wilson, D. E. Woon, K. A. Peterson, T. H. Dunning, Jr., J. Chem. Phys. 110, 7667 (1999)
             Y : Obtained from the ccRepo (grant-hill.group.shef.ac.uk/ccrepo) Feb. 2017
                 K. A. Peterson, D. Figgen, M. Dolg, H. Stoll, J. Chem. Phys. 126, 124101 (2007)
        Ag, Au : Obtained from the Peterson Research Group Website (tyr0.chem.wsu.edu/~kipeters) Feb. 2017
                 K. A. Peterson, C. Puzzarini, Theor. Chem. Acc. 114, 283 (2005)

----- AuxC basis set information -----
Your calculation utilizes the auxiliary basis: cc-pVTZ/C 
  Obtained from the EMSL Basis Set Exchange (bse.pnl.gov) Feb. 2017
  H-He, B-F, Al-Ar, Ga-Kr : F. Weigend, A. Kohn, C. Hattig, J. Chem. Phys. 116, 3175 (2002)
             Li-Be, Na-Mg : C. Haettig, Phys. Chem. Chem. Phys. 7, 59 (2005)
                       Ne : C. Haettig, Phys. Chem. Chem. Phys. 7, 59 (2005)
                            F. Weigend, A. Kohn, C. Hattig, J. Chem. Phys. 116, 3175 (2002)
                    Sc-Zn : J. G. Hill, J. A. Platts, J. Chem. Phys. 128, 044104 (2008)

----- AuxJK basis set information -----
Your calculation utilizes the auxiliary basis: cc-pVTZ/JK 
  H, B-F, Al-Cl, Ga-Br : Obtained from the TURBOMOLE 7.0 basis set library

================================================================================
                                        WARNINGS
                       Please study these warnings very carefully!
================================================================================


WARNING: MDCI localization with Augmented Hessian Foster-Boys
  ===> : Switching off randomization!

WARNING: Post HF methods need fully converged wavefunctions
  ===> : Setting SCFConvForced true
         You can overwrite this default with %scf ConvForced false 


INFO   : the flag for use of LIBINT has been found!

================================================================================
                                       INPUT FILE
================================================================================
NAME = ethanediamineH_Tg.inp
|  1> ! RHF DLPNO-CCSD(T) cc-pVTZ RIJK cc-pVTZ/JK cc-pVTZ/C
|  2> ! KDIIS SOSCF TightSCF TightPNO
|  3> 
|  4> %pal nprocs 8 end
|  5> 
|  6> %maxcore 8000
|  7> 
|  8> %scf maxiter 300
|  9>      shift shift 0.2 erroff 0.1 end
| 10> end
| 11> 
| 12> * xyzfile 1 1 ethanediamineH_Tg.xyz 
| 13> 
| 14> 
| 15>                          ****END OF INPUT****
================================================================================

                       ****************************
                       * Single Point Calculation *
                       ****************************

---------------------------------
CARTESIAN COORDINATES (ANGSTROEM)
---------------------------------
  C      0.470770   -0.534920   -0.056350
  N      1.854740    0.118650    0.018140
  C     -0.646780    0.514500    0.028270
  N     -1.907590   -0.200380   -0.032990
  H      0.422530   -1.244990    0.771750
  H      0.427600   -1.082090   -0.999100
  H     -0.519390    1.124810    0.937840
  H     -0.572140    1.194240   -0.828650
  H     -2.301510   -0.407550    0.877950
  H      2.604190   -0.580170   -0.023190
  H     -2.606900    0.269540   -0.595080
  H      1.971700    0.647710    0.889550
  H      1.999980    0.773080   -0.758640

----------------------------
CARTESIAN COORDINATES (A.U.)
----------------------------
  NO LB      ZA    FRAG     MASS         X           Y           Z
   0 C     6.0000    0    12.011    0.889626   -1.010852   -0.106486
   1 N     7.0000    0    14.007    3.504951    0.224216    0.034280
   2 C     6.0000    0    12.011   -1.222237    0.972264    0.053423
   3 N     7.0000    0    14.007   -3.604823   -0.378663   -0.062342
   4 H     1.0000    0     1.008    0.798466   -2.352690    1.458396
   5 H     1.0000    0     1.008    0.808047   -2.044854   -1.888025
   6 H     1.0000    0     1.008   -0.981505    2.125583    1.772261
   7 H     1.0000    0     1.008   -1.081188    2.256787   -1.565922
   8 H     1.0000    0     1.008   -4.349224   -0.770158    1.659085
   9 H     1.0000    0     1.008    4.921206   -1.096362   -0.043823
  10 H     1.0000    0     1.008   -4.926327    0.509357   -1.124538
  11 H     1.0000    0     1.008    3.725973    1.223995    1.681006
  12 H     1.0000    0     1.008    3.779414    1.460909   -1.433622

--------------------------------
INTERNAL COORDINATES (ANGSTROEM)
--------------------------------
 C      0   0   0     0.000000000000     0.00000000     0.00000000
 N      1   0   0     1.532343129296     0.00000000     0.00000000
 C      1   2   0     1.535369949979   111.29625681     0.00000000
 N      3   1   2     1.450671588644   107.06511864   180.72274382
 H      1   2   3     1.091913967536   106.28395085   238.11831398
 H      1   2   3     1.090887812885   106.95887831   121.64656880
 H      3   1   2     1.102734824471   109.85595517   305.09664695
 H      3   1   2     1.096325446024   109.33833800    62.33347236
 H      4   3   1     1.013856034603   113.60567865    94.92117961
 H      2   1   3     1.025540278975   111.55724921   179.10486179
 H      4   3   1     1.012820048479   113.25888136   219.95774577
 H      2   1   3     1.026128409752   111.35433210    58.87906645
 H      2   1   3     1.026041154584   111.28985334   299.16477986

---------------------------
INTERNAL COORDINATES (A.U.)
---------------------------
 C      0   0   0     0.000000000000     0.00000000     0.00000000
 N      1   0   0     2.895708857565     0.00000000     0.00000000
 C      1   2   0     2.901428719714   111.29625681     0.00000000
 N      3   1   2     2.741372012798   107.06511864   180.72274382
 H      1   2   3     2.063418360446   106.28395085   238.11831398
 H      1   2   3     2.061479209184   106.95887831   121.64656880
 H      3   1   2     2.083866816587   109.85595517   305.09664695
 H      3   1   2     2.071754846635   109.33833800    62.33347236
 H      4   3   1     1.915910244622   113.60567865    94.92117961
 H      2   1   3     1.937990266568   111.55724921   179.10486179
 H      4   3   1     1.913952514569   113.25888136   219.95774577
 H      2   1   3     1.939101672667   111.35433210    58.87906645
 H      2   1   3     1.938936784296   111.28985334   299.16477986

---------------------
BASIS SET INFORMATION
---------------------
There are 3 groups of distinct atoms

 Group   1 Type C   : 18s5p2d1f contracted to 4s3p2d1f pattern {8811/311/11/1}
 Group   2 Type N   : 18s5p2d1f contracted to 4s3p2d1f pattern {8811/311/11/1}
 Group   3 Type H   : 5s2p1d contracted to 3s2p1d pattern {311/11/1}

Atom   0C    basis set group =>   1
Atom   1N    basis set group =>   2
Atom   2C    basis set group =>   1
Atom   3N    basis set group =>   2
Atom   4H    basis set group =>   3
Atom   5H    basis set group =>   3
Atom   6H    basis set group =>   3
Atom   7H    basis set group =>   3
Atom   8H    basis set group =>   3
Atom   9H    basis set group =>   3
Atom  10H    basis set group =>   3
Atom  11H    basis set group =>   3
Atom  12H    basis set group =>   3
-------------------------------
AUXILIARY BASIS SET INFORMATION
-------------------------------
There are 3 groups of distinct atoms

 Group   1 Type C   : 8s6p5d3f1g contracted to 8s6p5d3f1g pattern {11111111/111111/11111/111/1}
 Group   2 Type N   : 8s6p5d3f1g contracted to 8s6p5d3f1g pattern {11111111/111111/11111/111/1}
 Group   3 Type H   : 4s3p2d1f contracted to 4s3p2d1f pattern {1111/111/11/1}

Atom   0C    basis set group =>   1
Atom   1N    basis set group =>   2
Atom   2C    basis set group =>   1
Atom   3N    basis set group =>   2
Atom   4H    basis set group =>   3
Atom   5H    basis set group =>   3
Atom   6H    basis set group =>   3
Atom   7H    basis set group =>   3
Atom   8H    basis set group =>   3
Atom   9H    basis set group =>   3
Atom  10H    basis set group =>   3
Atom  11H    basis set group =>   3
Atom  12H    basis set group =>   3
-------------------------------
AUXILIARY BASIS SET INFORMATION
-------------------------------
There are 3 groups of distinct atoms

 Group   1 Type C   : 10s7p5d2f1g contracted to 10s7p5d2f1g pattern {1111111111/1111111/11111/11/1}
 Group   2 Type N   : 10s7p5d2f1g contracted to 10s7p5d2f1g pattern {1111111111/1111111/11111/11/1}
 Group   3 Type H   : 4s3p2d1f contracted to 4s3p2d1f pattern {1111/111/11/1}

Atom   0C    basis set group =>   1
Atom   1N    basis set group =>   2
Atom   2C    basis set group =>   1
Atom   3N    basis set group =>   2
Atom   4H    basis set group =>   3
Atom   5H    basis set group =>   3
Atom   6H    basis set group =>   3
Atom   7H    basis set group =>   3
Atom   8H    basis set group =>   3
Atom   9H    basis set group =>   3
Atom  10H    basis set group =>   3
Atom  11H    basis set group =>   3
Atom  12H    basis set group =>   3


           ************************************************************
           *        Program running with 8 parallel MPI-processes     *
           *              working on a common directory               *
           ************************************************************
------------------------------------------------------------------------------
                           ORCA GTO INTEGRAL CALCULATION
                           -- RI-GTO INTEGRALS CHOSEN --
------------------------------------------------------------------------------

                         BASIS SET STATISTICS AND STARTUP INFO

Gaussian basis set:
 # of primitive gaussian shells          ...  176
 # of primitive gaussian functions       ...  344
 # of contracted shells                  ...   94
 # of contracted basis functions         ...  246
 Highest angular momentum                ...    3
 Maximum contraction depth               ...    8
Auxiliary gaussian basis set:
 # of primitive gaussian shells          ...  190
 # of primitive gaussian functions       ...  586
 # of contracted shells                  ...  190
 # of contracted aux-basis functions     ...  586
 Highest angular momentum                ...    4
 Maximum contraction depth               ...    1
Ratio of auxiliary to basis functions    ...  2.38
Integral package used                  ... LIBINT
 One Electron integrals                  ... done
 Ordering auxiliary basis shells         ... done
 Integral threshhold             Thresh  ...  2.500e-11
 Primitive cut-off               TCut    ...  2.500e-12
 Pre-screening matrix                    ... done
 Shell pair data                         ... 
 Ordering of the shell pairs             ... done (   0.001 sec) 4327 of 4465 pairs
 Determination of significant pairs      ... done (   0.000 sec)
 Creation of shell pair data             ... done (   0.001 sec)
 Storage of shell pair data              ... done (   0.001 sec)
 Shell pair data done in (   0.003 sec)
 Computing two index integrals           ... done
 Cholesky decomposition of the V-matrix  ... done


Timings:
 Total evaluation time                   ...   0.355 sec (  0.006 min)
 One electron matrix time                ...   0.069 sec (  0.001 min) = 19.5%
 Schwartz matrix evaluation time         ...   0.175 sec (  0.003 min) = 49.4%
 Two index repulsion integral time       ...   0.039 sec (  0.001 min) = 11.1%
 Cholesky decomposition of V             ...   0.042 sec (  0.001 min) = 11.7%
 Three index repulsion integral time     ...   0.000 sec (  0.000 min) =  0.0%



           ************************************************************
           *        Program running with 8 parallel MPI-processes     *
           *              working on a common directory               *
           ************************************************************
-------------------------------------------------------------------------------
                                 ORCA SCF
-------------------------------------------------------------------------------

------------
SCF SETTINGS
------------
Hamiltonian:
 Ab initio Hamiltonian  Method          .... Hartree-Fock(GTOs)
 RI-approximation to the Coulomb term is turned on
   Number of auxiliary basis functions  .... 586
   RI-JK (J+K treated both via RI)      .... on


General Settings:
 Integral files         IntName         .... ethanediamineH_Tg
 Hartree-Fock type      HFTyp           .... RHF
 Total Charge           Charge          ....    1
 Multiplicity           Mult            ....    1
 Number of Electrons    NEL             ....   34
 Basis Dimension        Dim             ....  246
 Nuclear Repulsion      ENuc            ....    139.3238186332 Eh

Convergence Acceleration:
 DIIS                   CNVDIIS         .... off
 Newton-Raphson         CNVNR           .... off
 SOSCF                  CNVSOSCF        .... on
   Start iteration      SOSCFMaxIt      ....   150
   Startup grad/error   SOSCFStart      ....  0.003300
 Level Shifting         CNVShift        .... on
   Level shift para.    LevelShift      ....    0.2000
   Turn off err/grad.   ShiftErr        ....    0.1000
 Zerner damping         CNVZerner       .... off
 Static damping         CNVDamp         .... off
 Fernandez-Rico         CNVRico         .... off

SCF Procedure:
 Maximum # iterations   MaxIter         ....   300
 SCF integral mode      SCFMode         .... Direct
   Integral package                     .... LIBINT
 Reset frequency        DirectResetFreq ....    20
 Integral Threshold     Thresh          ....  2.500e-11 Eh
 Primitive CutOff       TCut            ....  2.500e-12 Eh

Convergence Tolerance:
 Convergence Check Mode ConvCheckMode   .... Total+1el-Energy
 Convergence forced     ConvForced      .... 1
 Energy Change          TolE            ....  1.000e-08 Eh
 1-El. energy change                    ....  1.000e-05 Eh
 Orbital Gradient       TolG            ....  1.000e-05
 Orbital Rotation angle TolX            ....  1.000e-05


Diagonalization of the overlap matrix:
Smallest eigenvalue                        ... 6.151e-04
Time for diagonalization                   ...    0.018 sec
Threshold for overlap eigenvalues          ... 1.000e-08
Number of eigenvalues below threshold      ... 0
Time for construction of square roots      ...    0.013 sec
Total time needed                          ...    0.032 sec

-------------------
DFT GRID GENERATION
-------------------

General Integration Accuracy     IntAcc      ...  4.340
Radial Grid Type                 RadialGrid  ... Gauss-Chebyshev
Angular Grid (max. acc.)         AngularGrid ... Lebedev-110
Angular grid pruning method      GridPruning ... 3 (G Style)
Weight generation scheme         WeightScheme... Becke
Basis function cutoff            BFCut       ...    1.0000e-11
Integration weight cutoff        WCut        ...    1.0000e-14
Grids for H and He will be reduced by one unit

# of grid points (after initial pruning)     ...  13862 (   0.0 sec)
# of grid points (after weights+screening)   ...  13021 (   0.0 sec)
nearest neighbour list constructed           ...    0.0 sec
Grid point re-assignment to atoms done       ...    0.0 sec
Grid point division into batches done        ...    0.0 sec
Reduced shell lists constructed in    0.1 sec

Total number of grid points                  ...    13021
Total number of batches                      ...      211
Average number of points per batch           ...       61
Average number of grid points per atom       ...     1002
Average number of shells per batch           ...    83.25 (88.56%)
Average number of basis functions per batch  ...   215.25 (87.50%)
Average number of large shells per batch     ...    71.57 (85.97%)
Average number of large basis fcns per batch ...   183.64 (85.32%)
Average number of aux-shells per batch       ...    83.25 (43.82%)
Average number of aux functions per batch    ...   215.25 (36.73%)
Maximum spatial batch extension              ...   2.08,  1.97,  2.55 au
Average spatial batch extension              ...   0.18,  0.18,  0.19 au

Time for grid setup =    0.075 sec

------------------------------
INITIAL GUESS: MODEL POTENTIAL
------------------------------
Loading Hartree-Fock densities                     ... done
Calculating cut-offs                               ... done
Setting up the integral package                    ... done
Initializing the effective Hamiltonian             ... done
Starting the Coulomb interaction                   ... done (   0.0 sec)
Reading the grid                                   ... done
Mapping shells                                     ... done
Starting the XC term evaluation                    ... done (   0.0 sec)
Transforming the Hamiltonian                       ... done (   0.0 sec)
Diagonalizing the Hamiltonian                      ... done (   0.0 sec)
Back transforming the eigenvectors                 ... done (   0.0 sec)
Now organizing SCF variables                       ... done
                      ------------------
                      INITIAL GUESS DONE (   0.2 sec)
                      ------------------
--------------
SCF ITERATIONS
--------------
ITER       Energy         Delta-E        Max-DP      RMS-DP      [F,P]   Gradient Norm
                             ****Turning on KDIIS(Cayley)****
  0   -189.4945810997   0.000000000000 0.01422683  0.00030883  0.1216564   0.154851868
  1   -189.5584171045  -0.063836004767 0.01770866  0.00032869  0.1111981   0.133671438
  2   -189.6115194995  -0.053102395004 0.02914013  0.00054588  0.0896185   0.108442156
  3   -189.6758235910  -0.064304091523 0.04413526  0.00086330  0.0537732   0.066723980
  4   -189.7172565323  -0.041432941297 0.00270812  0.00006204  0.0034637   0.003614254
                      *** Initiating the SOSCF procedure ***
                           *** Shutting down KDIIS ***
                      *** Re-Reading the Fockian *** 
                      *** Removing any level shift *** 
ITER      Energy       Delta-E        Grad      Rot      Max-DP    RMS-DP
  5   -189.71748676  -0.0002302253  0.001413  0.001413  0.002496  0.000059
  6   -189.71753847  -0.0000517162  0.000221  0.000240  0.000950  0.000011
  7   -189.71753951  -0.0000010325  0.000177  0.000108  0.000223  0.000004
  8   -189.71754037  -0.0000008627  0.000041  0.000070  0.000253  0.000003
  9   -189.71754040  -0.0000000297  0.000014  0.000038  0.000138  0.000002
                  ***Gradient check signals convergence***
              ***Rediagonalizing the Fockian in SOSCF/NRSCF***

               *****************************************************
               *                     SUCCESS                       *
               *           SCF CONVERGED AFTER  10 CYCLES          *
               *****************************************************


----------------
TOTAL SCF ENERGY
----------------

Total Energy       :         -189.71754040 Eh           -5162.47673 eV

Components:
Nuclear Repulsion  :          139.32381863 Eh            3791.19385 eV
Electronic Energy  :         -329.04135904 Eh           -8953.67058 eV
One Electron Energy:         -524.85679567 Eh          -14282.07950 eV
Two Electron Energy:          195.81543664 Eh            5328.40892 eV

Virial components:
Potential Energy   :         -379.05216776 Eh          -10314.53387 eV
Kinetic Energy     :          189.33462736 Eh            5152.05714 eV
Virial Ratio       :            2.00202241


---------------
SCF CONVERGENCE
---------------

  Last Energy change         ...   -3.7471e-09  Tolerance :   1.0000e-08
  Last MAX-Density change    ...    6.7814e-06  Tolerance :   1.0000e-07
  Last RMS-Density change    ...    1.1461e-07  Tolerance :   5.0000e-09
  Last Orbital Gradient      ...    1.9920e-06  Tolerance :   1.0000e-05
  Last Orbital Rotation      ...    3.0407e-06  Tolerance :   1.0000e-05

             **** THE GBW FILE WAS UPDATED (ethanediamineH_Tg.gbw) ****
             **** DENSITY FILE WAS UPDATED (ethanediamineH_Tg.scfp.tmp) ****
             **** ENERGY FILE WAS UPDATED (ethanediamineH_Tg.en.tmp) ****
----------------
ORBITAL ENERGIES
----------------

  NO   OCC          E(Eh)            E(eV) 
   0   2.0000     -15.893034      -432.4714 
   1   2.0000     -15.689647      -426.9370 
   2   2.0000     -11.474846      -312.2464 
   3   2.0000     -11.435399      -311.1730 
   4   2.0000      -1.504742       -40.9461 
   5   2.0000      -1.338890       -36.4330 
   6   2.0000      -1.175919       -31.9984 
   7   2.0000      -1.030907       -28.0524 
   8   2.0000      -0.967476       -26.3264 
   9   2.0000      -0.950679       -25.8693 
  10   2.0000      -0.854156       -23.2428 
  11   2.0000      -0.837040       -22.7770 
  12   2.0000      -0.766849       -20.8670 
  13   2.0000      -0.750155       -20.4127 
  14   2.0000      -0.721481       -19.6325 
  15   2.0000      -0.674801       -18.3623 
  16   2.0000      -0.546930       -14.8827 
  17   0.0000      -0.076702        -2.0872 
  18   0.0000      -0.013025        -0.3544 
  19   0.0000      -0.012537        -0.3411 
  20   0.0000      -0.002031        -0.0553 
  21   0.0000       0.037537         1.0214 
  22   0.0000       0.051677         1.4062 
  23   0.0000       0.064674         1.7599 
  24   0.0000       0.069324         1.8864 
  25   0.0000       0.114619         3.1189 
  26   0.0000       0.125922         3.4265 
  27   0.0000       0.141895         3.8611 
  28   0.0000       0.177228         4.8226 
  29   0.0000       0.221166         6.0182 
  30   0.0000       0.226356         6.1594 
  31   0.0000       0.246975         6.7205 
  32   0.0000       0.254517         6.9258 
  33   0.0000       0.319877         8.7043 
  34   0.0000       0.335432         9.1276 
  35   0.0000       0.354126         9.6363 
  36   0.0000       0.392241        10.6734 
  37   0.0000       0.400039        10.8856 
  38   0.0000       0.416535        11.3345 
  39   0.0000       0.433479        11.7956 
  40   0.0000       0.439384        11.9562 
  41   0.0000       0.447596        12.1797 
  42   0.0000       0.460522        12.5314 
  43   0.0000       0.466401        12.6914 
  44   0.0000       0.488234        13.2855 
  45   0.0000       0.490567        13.3490 
  46   0.0000       0.511648        13.9226 
  47   0.0000       0.534063        14.5326 
  48   0.0000       0.538916        14.6647 
  49   0.0000       0.569527        15.4976 
  50   0.0000       0.598438        16.2843 
  51   0.0000       0.632437        17.2095 
  52   0.0000       0.638530        17.3753 
  53   0.0000       0.720160        19.5965 
  54   0.0000       0.733908        19.9707 
  55   0.0000       0.778720        21.1900 
  56   0.0000       0.799289        21.7498 
  57   0.0000       0.825541        22.4641 
  58   0.0000       0.864106        23.5135 
  59   0.0000       0.881223        23.9793 
  60   0.0000       0.923679        25.1346 
  61   0.0000       0.936590        25.4859 
  62   0.0000       0.981925        26.7195 
  63   0.0000       1.003972        27.3195 
  64   0.0000       1.036352        28.2006 
  65   0.0000       1.040929        28.3251 
  66   0.0000       1.080392        29.3990 
  67   0.0000       1.105452        30.0809 
  68   0.0000       1.124747        30.6059 
  69   0.0000       1.142069        31.0773 
  70   0.0000       1.153341        31.3840 
  71   0.0000       1.167426        31.7673 
  72   0.0000       1.176459        32.0131 
  73   0.0000       1.185900        32.2700 
  74   0.0000       1.196764        32.5656 
  75   0.0000       1.223616        33.2963 
  76   0.0000       1.243453        33.8361 
  77   0.0000       1.267621        34.4937 
  78   0.0000       1.279138        34.8071 
  79   0.0000       1.297632        35.3104 
  80   0.0000       1.326856        36.1056 
  81   0.0000       1.375513        37.4296 
  82   0.0000       1.385990        37.7147 
  83   0.0000       1.409693        38.3597 
  84   0.0000       1.440654        39.2022 
  85   0.0000       1.455865        39.6161 
  86   0.0000       1.498287        40.7705 
  87   0.0000       1.521283        41.3962 
  88   0.0000       1.533421        41.7265 
  89   0.0000       1.545875        42.0654 
  90   0.0000       1.573256        42.8105 
  91   0.0000       1.598858        43.5071 
  92   0.0000       1.634609        44.4800 
  93   0.0000       1.699993        46.2592 
  94   0.0000       1.727383        47.0045 
  95   0.0000       1.748244        47.5721 
  96   0.0000       1.799140        48.9571 
  97   0.0000       1.852047        50.3968 
  98   0.0000       1.855274        50.4846 
  99   0.0000       1.888999        51.4023 
 100   0.0000       1.935223        52.6601 
 101   0.0000       2.325004        63.2666 
 102   0.0000       2.393732        65.1368 
 103   0.0000       2.456910        66.8559 
 104   0.0000       2.460770        66.9610 
 105   0.0000       2.504366        68.1473 
 106   0.0000       2.551265        69.4235 
 107   0.0000       2.598497        70.7087 
 108   0.0000       2.612136        71.0798 
 109   0.0000       2.652221        72.1706 
 110   0.0000       2.680654        72.9443 
 111   0.0000       2.694732        73.3274 
 112   0.0000       2.769507        75.3621 
 113   0.0000       2.777926        75.5912 
 114   0.0000       2.870299        78.1048 
 115   0.0000       2.883191        78.4556 
 116   0.0000       2.919706        79.4492 
 117   0.0000       2.939432        79.9860 
 118   0.0000       2.954005        80.3826 
 119   0.0000       3.013057        81.9895 
 120   0.0000       3.048141        82.9441 
 121   0.0000       3.063226        83.3546 
 122   0.0000       3.108780        84.5942 
 123   0.0000       3.131432        85.2106 
 124   0.0000       3.142942        85.5238 
 125   0.0000       3.171554        86.3024 
 126   0.0000       3.181942        86.5850 
 127   0.0000       3.194308        86.9215 
 128   0.0000       3.220585        87.6366 
 129   0.0000       3.245233        88.3073 
 130   0.0000       3.259651        88.6996 
 131   0.0000       3.267549        88.9145 
 132   0.0000       3.278291        89.2068 
 133   0.0000       3.298285        89.7509 
 134   0.0000       3.351958        91.2114 
 135   0.0000       3.356275        91.3289 
 136   0.0000       3.363322        91.5206 
 137   0.0000       3.389717        92.2389 
 138   0.0000       3.414712        92.9190 
 139   0.0000       3.422127        93.1208 
 140   0.0000       3.432534        93.4040 
 141   0.0000       3.445541        93.7579 
 142   0.0000       3.482174        94.7548 
 143   0.0000       3.521771        95.8323 
 144   0.0000       3.559487        96.8586 
 145   0.0000       3.576009        97.3081 
 146   0.0000       3.589151        97.6658 
 147   0.0000       3.596925        97.8773 
 148   0.0000       3.606688        98.1430 
 149   0.0000       3.619507        98.4918 
 150   0.0000       3.676456       100.0415 
 151   0.0000       3.693408       100.5027 
 152   0.0000       3.708542       100.9146 
 153   0.0000       3.727711       101.4362 
 154   0.0000       3.757683       102.2517 
 155   0.0000       3.776888       102.7744 
 156   0.0000       3.810836       103.6981 
 157   0.0000       3.835434       104.3675 
 158   0.0000       3.851174       104.7958 
 159   0.0000       3.877556       105.5137 
 160   0.0000       3.924477       106.7905 
 161   0.0000       3.932391       107.0058 
 162   0.0000       3.946425       107.3877 
 163   0.0000       3.972630       108.1008 
 164   0.0000       3.988088       108.5214 
 165   0.0000       3.995192       108.7147 
 166   0.0000       4.013046       109.2005 
 167   0.0000       4.041452       109.9735 
 168   0.0000       4.065117       110.6175 
 169   0.0000       4.086521       111.1999 
 170   0.0000       4.105416       111.7141 
 171   0.0000       4.131307       112.4186 
 172   0.0000       4.165740       113.3556 
 173   0.0000       4.180925       113.7687 
 174   0.0000       4.195203       114.1573 
 175   0.0000       4.229493       115.0904 
 176   0.0000       4.244983       115.5119 
 177   0.0000       4.267714       116.1304 
 178   0.0000       4.274118       116.3047 
 179   0.0000       4.285552       116.6158 
 180   0.0000       4.320999       117.5804 
 181   0.0000       4.348167       118.3196 
 182   0.0000       4.356690       118.5516 
 183   0.0000       4.371406       118.9520 
 184   0.0000       4.402898       119.8089 
 185   0.0000       4.422984       120.3555 
 186   0.0000       4.433955       120.6541 
 187   0.0000       4.460047       121.3641 
 188   0.0000       4.473503       121.7302 
 189   0.0000       4.492688       122.2523 
 190   0.0000       4.506431       122.6262 
 191   0.0000       4.527060       123.1876 
 192   0.0000       4.583780       124.7310 
 193   0.0000       4.592080       124.9569 
 194   0.0000       4.634624       126.1145 
 195   0.0000       4.743128       129.0671 
 196   0.0000       4.782645       130.1424 
 197   0.0000       4.792371       130.4071 
 198   0.0000       4.896957       133.2530 
 199   0.0000       4.944132       134.5367 
 200   0.0000       5.029372       136.8562 
 201   0.0000       5.032608       136.9442 
 202   0.0000       5.054868       137.5500 
 203   0.0000       5.090519       138.5201 
 204   0.0000       5.130779       139.6156 
 205   0.0000       5.167586       140.6172 
 206   0.0000       5.171613       140.7268 
 207   0.0000       5.191144       141.2582 
 208   0.0000       5.227633       142.2511 
 209   0.0000       5.282173       143.7352 
 210   0.0000       5.335777       145.1939 
 211   0.0000       5.359861       145.8492 
 212   0.0000       5.384585       146.5220 
 213   0.0000       5.441426       148.0687 
 214   0.0000       5.488107       149.3390 
 215   0.0000       5.525027       150.3436 
 216   0.0000       5.583999       151.9483 
 217   0.0000       5.593807       152.2152 
 218   0.0000       5.614654       152.7825 
 219   0.0000       5.619882       152.9248 
 220   0.0000       5.659746       154.0095 
 221   0.0000       5.699860       155.1011 
 222   0.0000       5.798330       157.7806 
 223   0.0000       5.840944       158.9402 
 224   0.0000       5.933697       161.4641 
 225   0.0000       5.948180       161.8582 
 226   0.0000       5.964590       162.3048 
 227   0.0000       5.987139       162.9183 
 228   0.0000       6.026075       163.9778 
 229   0.0000       6.052961       164.7094 
 230   0.0000       6.102710       166.0632 
 231   0.0000       6.136214       166.9749 
 232   0.0000       6.148010       167.2959 
 233   0.0000       6.204862       168.8429 
 234   0.0000       6.230054       169.5284 
 235   0.0000       6.239923       169.7969 
 236   0.0000       6.289055       171.1339 
 237   0.0000       6.421723       174.7440 
 238   0.0000       6.545488       178.1118 
 239   0.0000       7.004206       190.5941 
 240   0.0000       7.034487       191.4181 
 241   0.0000       7.159752       194.8268 
 242   0.0000      12.185248       331.5774 
 243   0.0000      12.842420       349.4600 
 244   0.0000      13.764064       374.5392 
 245   0.0000      14.346518       390.3886 

                    ********************************
                    * MULLIKEN POPULATION ANALYSIS *
                    ********************************

-----------------------
MULLIKEN ATOMIC CHARGES
-----------------------
   0 C :   -0.089545
   1 N :    0.007762
   2 C :   -0.079373
   3 N :   -0.387438
   4 H :    0.158285
   5 H :    0.165369
   6 H :    0.110528
   7 H :    0.122780
   8 H :    0.177144
   9 H :    0.215548
  10 H :    0.187732
  11 H :    0.205150
  12 H :    0.206058
Sum of atomic charges:    1.0000000

--------------------------------
MULLIKEN REDUCED ORBITAL CHARGES
--------------------------------
  0 C s       :     3.217113  s :     3.217113
      pz      :     1.098864  p :     2.737174
      px      :     0.675231
      py      :     0.963080
      dz2     :     0.021403  d :     0.127618
      dxz     :     0.013443
      dyz     :     0.037168
      dx2y2   :     0.027150
      dxy     :     0.028454
      f0      :     0.000641  f :     0.007639
      f+1     :     0.001068
      f-1     :     0.001478
      f+2     :     0.000183
      f-2     :     0.000782
      f+3     :     0.001444
      f-3     :     0.002044
  1 N s       :     3.364267  s :     3.364267
      pz      :     1.166200  p :     3.585456
      px      :     1.240330
      py      :     1.178927
      dz2     :     0.006274  d :     0.041014
      dxz     :     0.005154
      dyz     :     0.010308
      dx2y2   :     0.007547
      dxy     :     0.011731
      f0      :     0.000103  f :     0.001501
      f+1     :     0.000098
      f-1     :     0.000520
      f+2     :    -0.000017
      f-2     :     0.000104
      f+3     :     0.000325
      f-3     :     0.000368
  2 C s       :     3.203050  s :     3.203050
      pz      :     1.024156  p :     2.733013
      px      :     0.804257
      py      :     0.904601
      dz2     :     0.018107  d :     0.134370
      dxz     :     0.016102
      dyz     :     0.037799
      dx2y2   :     0.027699
      dxy     :     0.034663
      f0      :     0.000738  f :     0.008939
      f+1     :     0.000946
      f-1     :     0.001766
      f+2     :     0.000275
      f-2     :     0.001062
      f+3     :     0.002287
      f-3     :     0.001864
  3 N s       :     3.505228  s :     3.505228
      pz      :     1.220502  p :     3.840989
      px      :     1.068014
      py      :     1.552473
      dz2     :     0.008717  d :     0.038659
      dxz     :     0.008974
      dyz     :     0.003669
      dx2y2   :     0.004395
      dxy     :     0.012904
      f0      :     0.000294  f :     0.002563
      f+1     :     0.000367
      f-1     :     0.000232
      f+2     :     0.000147
      f-2     :     0.000444
      f+3     :     0.000321
      f-3     :     0.000759
  4 H s       :     0.809513  s :     0.809513
      pz      :     0.010016  p :     0.029769
      px      :     0.006365
      py      :     0.013388
      dz2     :     0.000559  d :     0.002433
      dxz     :     0.000368
      dyz     :     0.000734
      dx2y2   :     0.000316
      dxy     :     0.000455
  5 H s       :     0.802797  s :     0.802797
      pz      :     0.012004  p :     0.029391
      px      :     0.006349
      py      :     0.011038
      dz2     :     0.000605  d :     0.002443
      dxz     :     0.000522
      dyz     :     0.000829
      dx2y2   :     0.000186
      dxy     :     0.000301
  6 H s       :     0.859147  s :     0.859147
      pz      :     0.009437  p :     0.027976
      px      :     0.006486
      py      :     0.012053
      dz2     :     0.000512  d :     0.002348
      dxz     :     0.000483
      dyz     :     0.000774
      dx2y2   :     0.000209
      dxy     :     0.000370
  7 H s       :     0.845592  s :     0.845592
      pz      :     0.008470  p :     0.029161
      px      :     0.006960
      py      :     0.013732
      dz2     :     0.000516  d :     0.002466
      dxz     :     0.000449
      dyz     :     0.000750
      dx2y2   :     0.000265
      dxy     :     0.000486
  8 H s       :     0.760139  s :     0.760139
      pz      :     0.018889  p :     0.057964
      px      :     0.015789
      py      :     0.023286
      dz2     :     0.001340  d :     0.004754
      dxz     :     0.001283
      dyz     :     0.001545
      dx2y2   :     0.000255
      dxy     :     0.000331
  9 H s       :     0.720633  s :     0.720633
      pz      :     0.012326  p :     0.059088
      px      :     0.026684
      py      :     0.020078
      dz2     :     0.000571  d :     0.004731
      dxz     :     0.000475
      dyz     :     0.000573
      dx2y2   :     0.001419
      dxy     :     0.001693
 10 H s       :     0.749376  s :     0.749376
      pz      :     0.019416  p :     0.058037
      px      :     0.019326
      py      :     0.019295
      dz2     :     0.001181  d :     0.004855
      dxz     :     0.001020
      dyz     :     0.000526
      dx2y2   :     0.000848
      dxy     :     0.001280
 11 H s       :     0.730932  s :     0.730932
      pz      :     0.026910  p :     0.059173
      px      :     0.013494
      py      :     0.018769
      dz2     :     0.001387  d :     0.004745
      dxz     :     0.000983
      dyz     :     0.001593
      dx2y2   :     0.000306
      dxy     :     0.000477
 12 H s       :     0.730280  s :     0.730280
      pz      :     0.023658  p :     0.058927
      px      :     0.013569
      py      :     0.021699
      dz2     :     0.001115  d :     0.004735
      dxz     :     0.000778
      dyz     :     0.001631
      dx2y2   :     0.000507
      dxy     :     0.000704


                     *******************************
                     * LOEWDIN POPULATION ANALYSIS *
                     *******************************

----------------------
LOEWDIN ATOMIC CHARGES
----------------------
   0 C :    0.109145
   1 N :    0.714288
   2 C :   -0.016174
   3 N :    0.355588
   4 H :   -0.007177
   5 H :   -0.004891
   6 H :   -0.029109
   7 H :   -0.017858
   8 H :   -0.087953
   9 H :    0.024353
  10 H :   -0.084964
  11 H :    0.021853
  12 H :    0.022899

-------------------------------
LOEWDIN REDUCED ORBITAL CHARGES
-------------------------------
  0 C s       :     2.692233  s :     2.692233
      pz      :     1.027699  p :     2.717185
      px      :     0.744506
      py      :     0.944980
      dz2     :     0.071511  d :     0.434508
      dxz     :     0.046809
      dyz     :     0.111155
      dx2y2   :     0.099878
      dxy     :     0.105154
      f0      :     0.004249  f :     0.046929
      f+1     :     0.006892
      f-1     :     0.004918
      f+2     :     0.004883
      f-2     :     0.005792
      f+3     :     0.009346
      f-3     :     0.010849
  1 N s       :     2.765831  s :     2.765831
      pz      :     1.113659  p :     3.333803
      px      :     1.107440
      py      :     1.112705
      dz2     :     0.031230  d :     0.175365
      dxz     :     0.018302
      dyz     :     0.049480
      dx2y2   :     0.027647
      dxy     :     0.048707
      f0      :     0.000656  f :     0.010712
      f+1     :     0.001753
      f-1     :     0.001923
      f+2     :     0.001900
      f-2     :     0.001173
      f+3     :     0.001705
      f-3     :     0.001602
  2 C s       :     2.672016  s :     2.672016
      pz      :     0.996779  p :     2.771965
      px      :     0.845533
      py      :     0.929653
      dz2     :     0.064640  d :     0.513973
      dxz     :     0.069220
      dyz     :     0.125149
      dx2y2   :     0.102892
      dxy     :     0.152073
      f0      :     0.005439  f :     0.058220
      f+1     :     0.006714
      f-1     :     0.005838
      f+2     :     0.005615
      f-2     :     0.008029
      f+3     :     0.016723
      f-3     :     0.009863
  3 N s       :     2.871989  s :     2.871989
      pz      :     1.182372  p :     3.610986
      px      :     1.050766
      py      :     1.377847
      dz2     :     0.027721  d :     0.150933
      dxz     :     0.044479
      dyz     :     0.014283
      dx2y2   :     0.024061
      dxy     :     0.040389
      f0      :     0.001634  f :     0.010505
      f+1     :     0.001930
      f-1     :     0.000541
      f+2     :     0.000774
      f-2     :     0.001961
      f+3     :     0.001863
      f-3     :     0.001803
  4 H s       :     0.829031  s :     0.829031
      pz      :     0.062859  p :     0.150255
      px      :     0.028380
      py      :     0.059016
      dz2     :     0.008612  d :     0.027891
      dxz     :     0.003646
      dyz     :     0.008093
      dx2y2   :     0.003749
      dxy     :     0.003791
  5 H s       :     0.826497  s :     0.826497
      pz      :     0.071034  p :     0.150347
      px      :     0.027921
      py      :     0.051392
      dz2     :     0.009405  d :     0.028047
      dxz     :     0.004955
      dyz     :     0.008969
      dx2y2   :     0.002299
      dxy     :     0.002419
  6 H s       :     0.853486  s :     0.853486
      pz      :     0.064927  p :     0.148702
      px      :     0.032971
      py      :     0.050805
      dz2     :     0.008529  d :     0.026921
      dxz     :     0.004960
      dyz     :     0.007868
      dx2y2   :     0.002408
      dxy     :     0.003155
  7 H s       :     0.842221  s :     0.842221
      pz      :     0.062826  p :     0.147954
      px      :     0.032499
      py      :     0.052629
      dz2     :     0.008448  d :     0.027683
      dxz     :     0.004554
      dyz     :     0.007785
      dx2y2   :     0.002921
      dxy     :     0.003975
  8 H s       :     0.764931  s :     0.764931
      pz      :     0.110912  p :     0.263221
      px      :     0.061264
      py      :     0.091045
      dz2     :     0.017759  d :     0.059801
      dxz     :     0.015256
      dyz     :     0.018798
      dx2y2   :     0.003644
      dxy     :     0.004344
  9 H s       :     0.706176  s :     0.706176
      pz      :     0.048696  p :     0.215202
      px      :     0.088641
      py      :     0.077865
      dz2     :     0.004980  d :     0.054269
      dxz     :     0.008197
      dyz     :     0.008932
      dx2y2   :     0.017532
      dxy     :     0.014627
 10 H s       :     0.760429  s :     0.760429
      pz      :     0.078866  p :     0.264488
      px      :     0.082000
      py      :     0.103623
      dz2     :     0.014418  d :     0.060047
      dxz     :     0.012593
      dyz     :     0.007862
      dx2y2   :     0.011104
      dxy     :     0.014070
 11 H s       :     0.709235  s :     0.709235
      pz      :     0.094346  p :     0.214681
      px      :     0.052734
      py      :     0.067602
      dz2     :     0.016786  d :     0.054231
      dxz     :     0.012426
      dyz     :     0.015485
      dx2y2   :     0.004143
      dxy     :     0.005391
 12 H s       :     0.708593  s :     0.708593
      pz      :     0.084598  p :     0.214265
      px      :     0.052988
      py      :     0.076679
      dz2     :     0.015313  d :     0.054243
      dxz     :     0.009876
      dyz     :     0.014561
      dx2y2   :     0.006440
      dxy     :     0.008052


                      *****************************
                      * MAYER POPULATION ANALYSIS *
                      *****************************

  NA   - Mulliken gross atomic population
  ZA   - Total nuclear charge
  QA   - Mulliken gross atomic charge
  VA   - Mayer's total valence
  BVA  - Mayer's bonded valence
  FA   - Mayer's free valence

  ATOM       NA         ZA         QA         VA         BVA        FA
  0 C      6.0895     6.0000    -0.0895     3.6977     3.6977     0.0000
  1 N      6.9922     7.0000     0.0078     3.6833     3.6833    -0.0000
  2 C      6.0794     6.0000    -0.0794     3.9438     3.9438    -0.0000
  3 N      7.3874     7.0000    -0.3874     2.9881     2.9881    -0.0000
  4 H      0.8417     1.0000     0.1583     0.9787     0.9787     0.0000
  5 H      0.8346     1.0000     0.1654     0.9830     0.9830     0.0000
  6 H      0.8895     1.0000     0.1105     0.9771     0.9771     0.0000
  7 H      0.8772     1.0000     0.1228     0.9813     0.9813    -0.0000
  8 H      0.8229     1.0000     0.1771     0.9989     0.9989    -0.0000
  9 H      0.7845     1.0000     0.2155     0.9734     0.9734     0.0000
 10 H      0.8123     1.0000     0.1877     0.9941     0.9941    -0.0000
 11 H      0.7948     1.0000     0.2052     0.9822     0.9822    -0.0000
 12 H      0.7939     1.0000     0.2061     0.9801     0.9801    -0.0000

  Mayer bond orders larger than 0.1
B(  0-C ,  1-N ) :   0.8162 B(  0-C ,  2-C ) :   0.9330 B(  0-C ,  4-H ) :   0.9697 
B(  0-C ,  5-H ) :   0.9652 B(  1-N ,  9-H ) :   0.9513 B(  1-N , 11-H ) :   0.9506 
B(  1-N , 12-H ) :   0.9512 B(  2-C ,  3-N ) :   1.0168 B(  2-C ,  6-H ) :   0.9833 
B(  2-C ,  7-H ) :   0.9802 B(  3-N ,  8-H ) :   0.9760 B(  3-N , 10-H ) :   0.9717 


-------
TIMINGS
-------

Total SCF time: 0 days 0 hours 0 min 5 sec 

Total time                  ....       5.348 sec
Sum of individual times     ....       5.142 sec  ( 96.1%)

Fock matrix formation       ....       4.770 sec  ( 89.2%)
Diagonalization             ....       0.048 sec  (  0.9%)
Density matrix formation    ....       0.007 sec  (  0.1%)
Population analysis         ....       0.034 sec  (  0.6%)
Initial guess               ....       0.172 sec  (  3.2%)
Orbital Transformation      ....       0.000 sec  (  0.0%)
Orbital Orthonormalization  ....       0.000 sec  (  0.0%)
DIIS solution               ....       0.000 sec  (  0.0%)
SOSCF solution              ....       0.034 sec  (  0.6%)


           ************************************************************
           *        Program running with 8 parallel MPI-processes     *
           *              working on a common directory               *
           ************************************************************


------------------------------------------------------------------------------- 
                              ORCA-MATRIX DRIVEN CI                            
------------------------------------------------------------------------------- 


Wavefunction type
-----------------
Correlation treatment                      ...      CCSD     
Single excitations                         ... ON
Orbital optimization                       ... OFF
Calculation of Z vector                    ... OFF
Calculation of Brueckner orbitals          ... OFF
Perturbative triple excitations            ... ON
Calculation of F12 correction              ... OFF
Frozen core treatment                      ... chemical core (8 el)
Reference Wavefunction                     ... RHF
  Internal Orbitals:     4 ...   16 ( 13 MO's/ 26 electrons)
  Virtual  Orbitals:    17 ...  245 (229 MO's              )
Number of AO's                             ...    246
Number of electrons                        ...     34
Number of correlated electrons             ...     26

Algorithmic settings
--------------------
Integral transformation                    ... All integrals via the RI transformation
K(C) Formation                             ... RI-DLPNO
   PNO-Integral Storage                    ... ON DISK
   PNO occupation number cut-off           ... 1.000e-07
   Singles PNO occupation number cut-off   ... 3.000e-09
   PNO Mulliken prescreening cut-off       ... 1.000e-03
   Domain cut-off (Mulliken population)    ... 1.000e-03
   PNO Normalization                       ...    1
Maximum number of iterations               ...        50
Convergence tolerance (max. residuum)      ... 1.000e-05
Level shift for amplitude update           ... 2.000e-01
Maximum number of DIIS vectors             ...         7
DIIS turned on at iteration                ...         0
Damping before turning on DIIS             ...     0.500
Damping after turning on DIIS              ...     0.000
Pair specific amplitude update             ... OFF
Natural orbital iterations                 ... OFF
Perturbative natural orbital generation    ... OFF
Printlevel                                 ... 2

Singles Fock matrix elements calculated using PNOs.

Memory handling:
----------------
Maximum memory for working arrays          ...   8000 MB
Data storage in matrix containers          ... UNCOMPRESSED
Data type for integral storage             ... DOUBLE
In-Core Storage of quantities:
   Amplitudes+Sigma Vector      ... NO
   J+K operators                ... NO
   DIIS vectors                 ... NO
   3-external integrals         ... NO
   4-external integrals         ... NO

Localization treatment:
-----------------------
Localization option                        ...    6
Localization threshhold                    ... -1.0e+00
Using relative localization threshhold     ... 1.0e-08
Neglect threshold for strong pairs         ... 1.000e-05 Eh
Prescreening threshold for very weak pairs ... 1.000e-07 Eh

Initializing the integral package          ... done
Localizing the valence orbitals
------------------------------------------------------------------------------
                           ORCA ORBITAL LOCALIZATION
------------------------------------------------------------------------------

Input orbitals are from                  ... ethanediamineH_Tg.proc0.gbw
Output orbitals are to                   ... ethanediamineH_Tg.proc0.loc
Max. number of iterations                ... 128
Localizations seeded randomly            ... off
Convergence tolerance                    ... 1.000e-06
Using relative localization threshhold   ... 1.000e-08
Treshold for strong local MOs            ... 9.500e-01
Treshold for bond MOs                    ... 8.500e-01
Operator                                 ... 0
Orbital range for localization           ... 4 to 16
Localization criterion                   ... FOSTER-BOYS (AUGMENTED HESSIAN)
Doing the dipole integrals     ... o.k.
Initial value of the localization sum :   105.741130
ITERATION   0 : L=  130.0021734948 DL=  2.43e+01 (AVERGE_DL)=    0.5577087251 
ITERATION   1 : L=  132.8560826842 DL=  2.85e+00 (AVERGE_DL)=    0.1912814140 
ITERATION   2 : L=  132.9236484558 DL=  6.76e-02 (AVERGE_DL)=    0.0294317489 
ITERATION   3 : L=  132.9241552907 DL=  5.07e-04 (AVERGE_DL)=    0.0025490945 
ITERATION   4 : L=  132.9241583296 DL=  3.04e-06 (AVERGE_DL)=    0.0001973832 
ITERATION   5 : L=  132.9241583605 DL=  3.09e-08 (AVERGE_DL)=    0.0000198942 
LOCALIZATION SUM CONVERGED

------------------------------------------------------
AUGMENTED HESSIAN OPTIMIZATION OF FOSTER-BOYS ORBITALS
------------------------------------------------------

Spin operator:           0
Orbital window:          4 to 16
Number of iterations:    128
Gradient tolerance:      1.000e-06
Number of pairs:         78
Davidson threshold:      2000
Diagonalization method:  LAPACK
Iter:    0   L: 132.9241583605   Grad. norm: 5.991525e-04
   *** Likely close to a maximum now. ***
       Augmented Hessian eigenvalues:  2.66e-09 -5.56e+00 -5.98e+00 -8.63e+00 ... 
Iter:    1   L: 132.9241583618   Grad. norm: 3.288754e-10
LOCALIZATION HAS CONVERGED.

Eigenvalues of the Hessian:
  0 -5.560e+00
  1 -5.978e+00
  2 -8.632e+00
  3 -9.342e+00
  4 -9.715e+00
  5 -9.721e+00
  6 -1.158e+01
  7 -1.409e+01
  8 -1.410e+01
  9 -1.451e+01
    ...


------------------------------------------------------------------------------- 
                    LOCALIZED MOLECULAR ORBITAL COMPOSITIONS                   
------------------------------------------------------------------------------- 

The Mulliken populations for each LMO on each atom are computed
The LMO`s will be ordered according to atom index and type
  (A) Strongly localized MO`s have populations of >=0.950 on one atom
  (B) Two center bond orbitals have populations of >=0.850 on two atoms
  (C) Other MO`s are considered to be `delocalized`

FOUND  -   1 strongly local MO`s
       -  12 two center bond MO`s
       -   0 significantly delocalized MO`s

Rather strongly localized orbitals:
MO   4:   3N  -   0.972824
Bond-like localized orbitals:
MO  16:  12H  -   0.405473  and   1N  -   0.602869
MO  15:  11H  -   0.405241  and   1N  -   0.602841
MO  14:  10H  -   0.414587  and   3N  -   0.596244
MO  13:   9H  -   0.401053  and   1N  -   0.608174
MO  12:   8H  -   0.419808  and   3N  -   0.592265
MO  11:   7H  -   0.453470  and   2C  -   0.576098
MO  10:   6H  -   0.461831  and   2C  -   0.580274
MO   9:   5H  -   0.423818  and   0C  -   0.599375
MO   8:   4H  -   0.430286  and   0C  -   0.591884
MO   7:   3N  -   0.567798  and   2C  -   0.445668
MO   6:   2C  -   0.442369  and   0C  -   0.594680
MO   5:   1N  -   0.706384  and   0C  -   0.298839
Localized MO's were stored in: ethanediamineH_Tg.proc0.loc

Localizing the core orbitals
------------------------------------------------------------------------------
                           ORCA ORBITAL LOCALIZATION
------------------------------------------------------------------------------

Input orbitals are from                  ... ethanediamineH_Tg.proc0.loc
Output orbitals are to                   ... ethanediamineH_Tg.proc0.loc
Max. number of iterations                ... 128
Localizations seeded randomly            ... off
Convergence tolerance                    ... 1.000e-06
Using relative localization threshhold   ... 1.000e-08
Treshold for strong local MOs            ... 9.500e-01
Treshold for bond MOs                    ... 8.500e-01
Operator                                 ... 0
Orbital range for localization           ... 0 to 3
Localization criterion                   ... FOSTER-BOYS (AUGMENTED HESSIAN)
Doing the dipole integrals     ... o.k.
Initial value of the localization sum :    29.745202
ITERATION   0 : L=   29.7452035941 DL=  1.12e-06 (AVERGE_DL)=    0.0004316400 
ITERATION   1 : L=   29.7452035941 DL=  0.00e+00 (AVERGE_DL)=    0.0000000000 
LOCALIZATION SUM CONVERGED

------------------------------------------------------
AUGMENTED HESSIAN OPTIMIZATION OF FOSTER-BOYS ORBITALS
------------------------------------------------------

Spin operator:           0
Orbital window:          0 to 3
Number of iterations:    128
Gradient tolerance:      1.000e-06
Number of pairs:         6
Davidson threshold:      2000
Diagonalization method:  LAPACK
Iter:    0   L: 29.7452035941   Grad. norm: 7.644332e-07
   *** Likely close to a maximum now. ***
       Augmented Hessian eigenvalues:  7.54e-15 -3.01e+01 -3.35e+01 -3.37e+01 ... 
Iter:    1   L: 29.7452035941   Grad. norm: 1.022087e-20
LOCALIZATION HAS CONVERGED.

Eigenvalues of the Hessian:
  0 -3.006e+01
  1 -3.353e+01
  2 -3.368e+01
  3 -8.242e+01
  4 -9.163e+01
  5 -2.037e+02


------------------------------------------------------------------------------- 
                    LOCALIZED MOLECULAR ORBITAL COMPOSITIONS                   
------------------------------------------------------------------------------- 

The Mulliken populations for each LMO on each atom are computed
The LMO`s will be ordered according to atom index and type
  (A) Strongly localized MO`s have populations of >=0.950 on one atom
  (B) Two center bond orbitals have populations of >=0.850 on two atoms
  (C) Other MO`s are considered to be `delocalized`

FOUND  -   4 strongly local MO`s
       -   0 two center bond MO`s
       -   0 significantly delocalized MO`s

Rather strongly localized orbitals:
MO   3:   3N  -   1.000123
MO   2:   2C  -   1.001145
MO   1:   1N  -   1.000520
MO   0:   0C  -   1.001059
Localized MO's were stored in: ethanediamineH_Tg.proc0.loc

Warning: internal orbitals are localized - no re-canonicalization of internal orbitals

--------------------------
CLOSED-SHELL FOCK OPERATOR
--------------------------

RI-JK section for the Fock operator:
  RHF full Fock operator         ... done
  RHF frozen core Fock operator  ... done
Time needed for Fock operator              ...            0.922 sec
Reference energy                           ...   -189.717540403

--------------
DLPNO SETTINGS (2015 fully linear scaling implementation)
--------------

TCutMKN:           1.000e-03
TCutPAO:           1.000e-03
TCutPNO:           1.000e-07
TCutPNOSingles:    3.000e-09
TCutEN:            9.700e-01
TCutPAOExt:        1.000e-01
TCutPairs:         1.000e-05
TCutPre:           1.000e-07
TCutOSV:           1.000e-06
TCutDOij:          1.000e-05
TCutDO:            5.000e-03
TCutC:             1.000e-04
TCutCPAO:          1.000e-03
TCutCMO:           1.000e-03
TScaleDOMP2PreScr: 2.000e+00
TScaleMKNMP2PreScr:1.000e+01
TScalePNOMP2PreScr:1.000e+00
PAO overlap thresh 1.000e-08
Using PNOs for Singles Fock computation
Use new domains
Use fully linear algorithm
TCutTNO:           1.000e-09
TCutMP2Pairs:      1.000e-06
TCutDOStrong:      2.000e-03
TCutMKNStrong:     1.000e-02
TCutMKNWeak:       1.000e-01
TCutDOWeak:        4.000e-03
NTCutTNO:          1

--------------------------
Calculating differential overlap integrals ... ok
--------------------------
ELECTRON PAIR PRESCREENING
--------------------------

Dipole-based pair screening          .... used

   TCutDOij = 1.000000e-05
   TCutPre  = 1.000000e-07
   .... Finished loop over pairs
Total time spent in the prescreening                  ...     0.000 sec
sum of pair energies estimated for screened out pairs ...       0.000000000000 Eh
Thresholds for map construction and integral transformation for crude MP2:
   TCutMKN                    ...     1.0e-02
   TCutDO                     ...     1.0e-02
   TCutPairs                  ...     1.0e-05
   TCutPNO_CrudeMP2           ...     1.0e-07
   TCutPNOSingles_CrudeMP2    ...     3.0e-09
--------------------------------
LOCAL RI TRANSFORMATION (IAVPAO)
--------------------------------

Orbital window:       4 to 16
Number of PAOs:     246
Basis functions:    246 (94 shells)
Aux. functions:     594 (182 shells)

Processing maps (0.0 sec)
Average map sizes:
   Aux shells -> MOs              13.0
   Aux shells -> PAOs            246.0
   MOs        -> AO shells        92.6
   PAOs       -> AO shells        94.0

Calculating integrals (0.4 sec, 14.500 MB)
Sorting integrals (0.0 sec, 14.493 MB)
Total time for the integral transformation: 0.4 sec
--------------------------------
INITIAL GUESS AND PNO GENERATION
--------------------------------

PNO truncation parameters                   .... 
    PAOOverlapThresh   =        1.000e-08

    TCutPairs          =        1.000e-05
    TCutPNO            =        1.000e-07
    TCutPNOSingles     =        3.000e-09
    TCutMP2Pairs       =        1.000e-06
    TCutMKN            =        1.000e-02
    TCutDO             =        1.000e-02

Pair selection                          .... not used
Type of local MP2 treatment                 .... semi-local MP2
Strategy for PNO selection                  .... occupation number selection
Pair density normalization                  .... MP2 norm
Spin component scaling                      .... not used

   .... Finished loop over pairs
Making pair pair interaction lists          ... done

                       ===========================
                         91 OF   91 PAIRS ARE KEPT CCSD PAIRS
                          0 OF   91 PAIRS ARE KEPT MP2 PAIRS FOR (T)
                          0 OF   91 PAIRS ARE SKIPPED
                       ===========================

Total time spent in the initial guess                 ...     0.501 sec
SL-MP2 correlation energy (all non-screened pairs)    ...      -0.758842759037 Eh

Initial PNO correlation energy                        ...      -0.758272777415 Eh
sum of pair energies prescreened and skipped MP2 pairs...       0.000000000000 Eh
sum of pair energies of crude MP2 skipped pairs only  ...       0.000000000000 Eh
sum of MP2 pair energies for pairs that were not kept ...       0.000000000000 Eh
sum of PNO error estimates for the kept pairs         ...      -0.000569981622 Eh
                                                          --------------------
sum of all corrections                                         -0.000569981622
Initial total correlation energy                               -0.758842759037
Thresholds for map construction and integral transformation for fine MP2 and CCSD(T) calculation:
   TCutMKN   ...     1.0e-03
   TCutDO    ...     5.0e-03
   TCutPairs ...     1.0e-05
   TCutCMO   ...     1.0e-03
   TCutCPAO  ...     1.0e-03

Thresholds for map construction and integral transformation for strong Triples:
   TCutMKN   ...     1.0e-02
   TCutDO    ...     1.0e-02
   TCutCMO   ...     1.0e-03
   TCutCPAO  ...     1.0e-03

Thresholds for map construction and integral transformation for weak Triples:
   TCutMKN   ...     1.0e-01
   TCutDO    ...     2.0e-02
   TCutCMO   ...     1.0e-03
   TCutCPAO  ...     1.0e-03

--------------------------------
LOCAL RI TRANSFORMATION (IAVPAO)
--------------------------------

Orbital window:       4 to 16
Number of PAOs:     246
Basis functions:    246 (94 shells)
Aux. functions:     594 (182 shells)

Processing maps (0.0 sec)
Average map sizes:
   Aux shells -> MOs              13.0
   Aux shells -> PAOs            246.0
   MOs        -> AO shells        92.6
   PAOs       -> AO shells        94.0

Calculating integrals (0.4 sec, 14.500 MB)
Sorting integrals (0.0 sec, 14.493 MB)
Total time for the integral transformation: 0.4 sec
--------------------------------
INITIAL GUESS AND PNO GENERATION
--------------------------------

PNO truncation parameters                   .... 
    ScaleTCutPNO       =        1.000e-02
    PAOOverlapThresh   =        1.000e-08

    TCutPairs          =        1.000e-05
    TCutPNO            =        1.000e-07
    TCutPNOSingles     =        3.000e-09
    TCutMP2Pairs       =        1.000e-06
    TCutMKN            =        1.000e-03
    TCutDO             =        5.000e-03

Pair selection                          .... not used
Type of local MP2 treatment                 .... full local PMP2
Strategy for PNO selection                  .... occupation number selection
Pair density normalization                  .... MP2 norm
Spin component scaling                      .... not used

PASS-1: Formation of initial guess LMP2 amplitudes
Initial amplitudes guess done. Entering LMP2 iteration loop:
   Max. no of iterations          ...  50
   Energy convergence tolerance   ...    1.0e-07
   Residual convergence tolerance ...    5.0e-07
   Fock matrix cutoff             ...    1.0e-05 Eh
   DIIS convergence acceleration parameters:
        Max # vectors in DIIS     ... 7
        Start iteration of DIIS   ... 0
        Levelshift                ... 2.000e-01
        Damping factor 1          ... 5.000e-01
        Damping factor 2          ... 1.000e+00
   L-MP2 PNO cut-off              ...   1.0e-09
   L-MP2 PNO cut-off (core)       ...   1.0e-11
                           *** Turning on DIIS ***
LMP2-Iter=   0:  ELMP2= -0.771088190228  DE=   1.2e-02 RMAX=   4.8e-03
LMP2-Iter=   1:  ELMP2= -0.777637128000  DE=   6.5e-03 RMAX=   2.1e-03
LMP2-Iter=   2:  ELMP2= -0.778546492013  DE=   9.1e-04 RMAX=   2.8e-04
LMP2-Iter=   3:  ELMP2= -0.778633488993  DE=   8.7e-05 RMAX=   7.9e-05
LMP2-Iter=   4:  ELMP2= -0.778636392242  DE=   2.9e-06 RMAX=   1.1e-05
LMP2-Iter=   5:  ELMP2= -0.778635869680  DE=   5.2e-07 RMAX=   3.4e-06
LMP2-Iter=   6:  ELMP2= -0.778635807854  DE=   6.2e-08 RMAX=   4.9e-07
LMP2-Iter=   7:  ELMP2= -0.778635804989  DE=   2.9e-09 RMAX=   1.5e-07
LMP2-Iter=   8:  ELMP2= -0.778635807187  DE=   2.2e-09 RMAX=   1.7e-08 => CONVERGED
PASS-2: Formation of Pair natural orbitals
   .... Finished loop over pairs

 PNO Occupation Number Statistics: 
  | Av. % of trace(Dij) retained        ...  99.593764246272
  | sigma^2 in % of trace(Dij) retained ...   4.83e-01
  | Av. % of trace(Di) retained         ...  99.999762648438
  | sigma^2 in % of trace(Di) retained  ...   3.42e-09
 Distributions of % trace(Dij) recovered:
  |       >= 99.9  ...    38 ( 41.8 % of all pairs)
  |   [90.0, 99.0) ...    10 ( 11.0 % of all pairs)
  |   [99.0, 99.9) ...    43 ( 47.3 % of all pairs)
 Distributions of % trace(Di) recovered :
  |       >= 99.9  ...    13 (100.0 % of all I-pairs )

Making pair pair interaction lists          ... done

                       ===========================
                         91 OF   91 PAIRS ARE KEPT
                       ===========================

Total time spent in the initial guess                 ...     3.934 sec
L-MP2 correlation energy (all non-screened pairs)     ...      -0.778635807187 Eh
L-MP2 PNO error correction                            ...      -0.000009917459 Eh
                                                          --------------------
Initial total L-MP2 energy (non-screened pairs)       ...      -0.778645724647 Eh

Initial PNO correlation energy                        ...      -0.778096962832 Eh
sum of pair energies estimated for screened out pairs ...       0.000000000000 Eh
sum of MP2 pair energies for pairs that were not kept ...       0.000000000000 Eh
sum of PNO error estimates for the kept pairs         ...      -0.000548761815 Eh
                                                          --------------------
sum of all corrections                                         -0.000548761815
Initial total correlation energy                               -0.778645724647
Thresholds for map construction and integral transformation for fine MP2 and CCSD(T) calculation:
   TCutMKN   ...     1.0e-03
   TCutDO    ...     5.0e-03
   TCutPairs ...     1.0e-05
   TCutCMO   ...     1.0e-03
   TCutCPAO  ...     1.0e-03

Time for aux screen maps:            0.002
Time for maps after fine MP2:            0.005
-----------------------------
LOCAL RI TRANSFORMATION (IJV)
-----------------------------

Orbital window:       4 to 16
Basis functions:    246 (94 shells)
Aux. functions:     594 (182 shells)

Processing maps (0.0 sec)
Average map sizes:
   Aux shells -> MOs(i)           13.0
   Aux shells -> MOs(j)           13.0
   MOs        -> AO shells        92.6

Calculating integrals (0.4 sec, 0.773 MB)
Sorting integrals (0.0 sec, 0.766 MB)
Total time for the integral transformation: 0.4 sec
--------------------------------
LOCAL RI TRANSFORMATION (VABPAO)
--------------------------------

Number of PAOs:     246
Basis functions:    246 (94 shells)
Aux. functions:     594 (182 shells)

Processing maps (0.0 sec)
Average map sizes:
   Aux shells -> PAOs            246.0
   PAOs       -> AO shells        94.0

Calculating integrals (0.8 sec, 517.579 MB)
Finished


-------------------------------------
Pair Pair Term precalculation with     
RI-(ij|mn) and (im|jn) transformation  
ON THE FLY                             
-------------------------------------

   IBatch   1 (of   1)              ... done (   16.710 sec)
Total EXT                           ...          16.710 sec

---------------------
RI-PNO TRANSFORMATION
---------------------

Total Number of PNOs                   ...  4164
Average number of PNOs per pair        ...    45
Maximal number of PNOs per pair        ...    69
   #pairs with  1 -  5 PNOs   :    0
   #pairs with  6 - 10 PNOs   :    2
   #pairs with 11 - 15 PNOs   :    3
   #pairs with 16 - 20 PNOs   :    3
   #pairs with 21 - 25 PNOs   :    8
   #pairs with 26 - 30 PNOs   :    7
   #pairs with 31 - 35 PNOs   :    1
   #pairs with 36 - 40 PNOs   :    4
   #pairs with 41 - 45 PNOs   :   10
   #pairs with 46 - 50 PNOs   :   12
   #pairs with 51 - 55 PNOs   :   12
   #pairs with 56 - 60 PNOs   :    6
   #pairs with 61 - 65 PNOs   :   15
   #pairs with 66 - 70 PNOs   :    8

Generation of (ij|ab)[P] integrals            ... on
Generation of (ia|bc)[P],(ja|bc)[P] integrals ... on
Storage of 3 and 4 external integrals         ... on
Generation of ALL (ka|bc)[P] integrals        ... on
Keep RI integrals in memory                   ... off

Ibatch:  1 (of  1)
Starting 2-4 index PNO integral generation ... done

Timings:
Total PNO integral transformation time     ...          8.617 sec
Size of the 3-external file                ...        92 MB
Size of the 4-external file                ...       677 MB
Size of the IKJL file                      ...         0 MB
Size of the all 3-external file            ...       601 MB
Size of the 1-external file                ...         1 MB

Making pair/pair overlap matrices          ... done (    0.416 sec)
Size of the pair overlap file              ... 105 MB
Redoing the guess amplitudes               ... done (    0.002 sec)

-------------------------
FINAL STARTUP INFORMATION
-------------------------

E(0)                                       ...   -189.717540403
E(L-MP2)                                   ...     -0.778645725
E(L-MP2) including corrections             ...     -0.778645725
Initial E(tot)                             ...   -190.496186127
<T|T>                                      ...      0.204201415
Number of pairs included                   ... 91
Total number of pairs                      ... 91

------------------------------------------------
                  RHF COUPLED CLUSTER ITERATIONS
------------------------------------------------

Number of PNO amplitudes to be optimized   ...       215398
Number of non-PNO amplitudes               ...      4772131
Untruncated number of regular amplitudes   ...      4772131

Iter       E(tot)           E(Corr)          Delta-E          Residual     Time
  0   -190.476388039     -0.758298874      0.020346850      0.015753276   14.02
                           *** Turning on DIIS ***
  1   -190.513543727     -0.795454562     -0.037155688      0.006045077   14.11
  2   -190.533692445     -0.815603280     -0.020148718      0.001799011   18.72
  3   -190.537316676     -0.819227511     -0.003624231      0.000718141   14.43
  4   -190.538021526     -0.819932362     -0.000704850      0.000277562   14.75
  5   -190.538137418     -0.820048253     -0.000115892      0.000125616   14.40
  6   -190.538165510     -0.820076346     -0.000028092      0.000068423   14.60
  7   -190.538169997     -0.820080832     -0.000004487      0.000028701   14.49
  8   -190.538171170     -0.820082006     -0.000001174      0.000011136   14.47
  9   -190.538170995     -0.820081831      0.000000175      0.000003351    9.91
               --- The Coupled-Cluster iterations have converged ---

----------------------
COUPLED CLUSTER ENERGY
----------------------

E(0)                                       ...   -189.717540403
E(CORR)(strong-pairs)                      ...     -0.820081831
E(CORR)(weak-pairs)                        ...     -0.000548762
E(CORR)(corrected)                         ...     -0.820630593
E(TOT)                                     ...   -190.538170995
Singles Norm <S|S>**1/2                    ...      0.039775376  
T1 diagnostic                              ...      0.007800593  

------------------
LARGEST AMPLITUDES
------------------
  13-> 17  13-> 17       0.035275
   5-> 18   5-> 18       0.031021
  15-> 17  15-> 17       0.029722
  16-> 17  16-> 17       0.029708
  10-> 23  10-> 23       0.029295
  10-> 17  10-> 17       0.028877
  11-> 17  11-> 17       0.028254
   8-> 17   8-> 17       0.028231
   9-> 17   9-> 17       0.027939
  13-> 17  13-> 24       0.027092
  13-> 24  13-> 17       0.027092
  11-> 23  11-> 23       0.026129
  16-> 17  16-> 24       0.026014
  16-> 24  16-> 17       0.026014
  16-> 24  16-> 24       0.025972
  12-> 17  12-> 17       0.025917


-------------------------------------------
DLPNO BASED TRIPLES CORRECTION
-------------------------------------------

Singles multiplier          ...  1.000000
TCutTNO                     ... 1.000e-09
TCutMP2Pairs                ... 1.000e-06
TCutDOStrong                ... 1.000e-02
TCutMKNStrong               ... 1.000e-02
TCutDOWeak                  ... 2.000e-02
TCutMKNWeak                 ... 1.000e-01

Fragment selection                          .... not used
Number of Triples that are to be computed   ...       442

 . . . . . . . . .
10% done  
20% done  
30% done  
40% done  
50% done  
60% done  
70% done  
80% done  
90% done               (     25.998 sec)
Triples timings:
Total time for T0               ...    27.712 sec
Total time for Iterative (T)    ...     0.000 sec
Total time of overall (T)       ...    31.235 sec

Triples List generation         ...     0.000 sec
TNO generation                  ...     1.710 sec
Pair density generation         ...     0.003 sec
Look up tables                  ...     0.000 sec
Generating 3-index integrals    ...    13.495 sec
  Make 4-ind.int. from 3-ind.int...     4.654 sec
  Projecting amplitudes (D + S) ...     1.530 sec
  Downprojecting integrals      ...     0.001 sec
  Energy contr. (sum over a,b,c)...     1.708 sec
Fitting ET(->0)                 ...     0.000 sec

Everything after 3-index        ...    12.503 sec

Timing details:
 TNO integrals                  ...    17.470 sec
   Reading 3-index integrals    ...     0.095 sec
   Sorting integrals            ...     3.177 sec
       Sorting integrals 1      ...     0.000 sec
       Sorting integrals 2      ...     0.909 sec
       Sorting integrals 3      ...     0.155 sec
       Sorting integrals 4      ...     0.004 sec
       Sorting integrals 5      ...     0.025 sec
       Sorting integrals 6      ...     2.084 sec
   Calculating local VM**-1/2   ...     0.067 sec
   Orthogonal. integrals        ...     0.143 sec
   Multipl. 3-index integrals   ...    13.989 sec
   All concerning IRIab (w/TNO) ...     2.240 sec

 Calculate W0/W1                ...     4.604 sec
 W 3-ext contribution           ...     2.433 sec
 W 3-int contribution           ...     0.622 sec
 Sorting W                      ...     1.483 sec

 V exchange contribution        ...     0.566 sec

 Timings for Triples without generation
     of 3-index integrals       ...    12.503 sec
       0 weak pairs             ...    12.503 sec
       1 weak pair              ...     0.000 sec
       2 weak pairs             ...     0.000 sec
       3 weak pairs             ...     0.000 sec
  Extra time for extrapolation  ...     0.000 sec

Number of Triples   (0, 1, 2, 3 weak pairs; overall):    442       0       0       0  (   442)
Number of Atoms     (0, 1, 2, 3 weak pairs; overall):   12.7     0.0     0.0     0.0  (    13)
Number of PAOs      (0, 1, 2, 3 weak pairs; overall):  241.4     0.0     0.0     0.0  (   246)
Number of AuxFcns   (0, 1, 2, 3 weak pairs; overall):  306.6     0.0     0.0     0.0  (   594)
Number of TNOs      (0, 1, 2, 3 weak pairs         ):  101.1     0.0     0.0     0.0
Aver. Number of NTNO, Atoms, PAOs, AuxFcns / Triples:    442   101.1    12.7   241.4   306.6

Triples Correction (T)                     ...     -0.029030181
Final correlation energy                   ...     -0.849660774
E(CCSD)                                    ...   -190.538170995
E(CCSD(T))                                 ...   -190.567201177


Maximum memory used throughout the entire calculation: 2582.3 MB


------------------------------------------------------------------------------- 
                                     TIMINGS                                   
------------------------------------------------------------------------------- 


Total execution time                   ...      211.068 sec

Localization of occupied MO's          ...        0.467 sec (  0.2%)
Fock Matrix Formation                  ...        0.922 sec (  0.4%)
Global overlap, Fock, MKN matrices     ...        0.169 sec (  0.1%)
Differential overlap integrals         ...        0.078 sec (  0.0%)
Organizing maps                        ...        0.016 sec (  0.0%)
RI 3-index integral generations        ...        2.099 sec (  1.0%)
RI-PNO integral transformation         ...       27.337 sec ( 13.0%)
Initial Guess                          ...        4.463 sec (  2.1%)
DIIS Solver                            ...        0.689 sec (  0.3%)
State Vector Update                    ...        0.016 sec (  0.0%)
Sigma-vector construction              ...      143.746 sec ( 68.1%)
  <D|H|D>(0-ext)                       ...        0.683 sec (  0.5% of sigma)
  <D|H|D>(2-ext Fock)                  ...        0.010 sec (  0.0% of sigma)
  <D|H|D>(2-ext)                       ...        2.981 sec (  2.1% of sigma)
  <D|H|D>(4-ext)                       ...       20.545 sec ( 14.3% of sigma)
  <D|H|D>(4-ext-corr)                  ...      103.307 sec ( 71.9% of sigma)
  CCSD doubles correction              ...        0.064 sec (  0.0% of sigma)
  <S|H|S>                              ...        0.253 sec (  0.2% of sigma)
  <S|H|D>(1-ext)                       ...        0.125 sec (  0.1% of sigma)
  <D|H|S>(1-ext)                       ...        0.004 sec (  0.0% of sigma)
  <S|H|D>(3-ext)                       ...        0.240 sec (  0.2% of sigma)
  Fock-dressing                        ...        4.565 sec (  3.2% of sigma)
  Singles amplitudes                   ...        0.146 sec (  0.1% of sigma)
  (ik|jl)-dressing                     ...        4.818 sec (  3.4% of sigma)
  (ij|ab),(ia|jb)-dressing             ...        0.993 sec (  0.7% of sigma)
  Pair energies                        ...        0.005 sec (  0.0% of sigma)
Total Time for computing (T)           ...       31.253 sec ( 14.8% of ALL)


-------------------------   --------------------
FINAL SINGLE POINT ENERGY      -190.567201176753
-------------------------   --------------------


                            ***************************************
                            *     ORCA property calculations      *
                            ***************************************

                                    ---------------------
                                    Active property flags
                                    ---------------------
   (+) Dipole Moment


------------------------------------------------------------------------------
                       ORCA ELECTRIC PROPERTIES CALCULATION
------------------------------------------------------------------------------

Dipole Moment Calculation                       ... on
Quadrupole Moment Calculation                   ... off
Polarizability Calculation                      ... off
GBWName                                         ... ethanediamineH_Tg.gbw
Electron density file                           ... ethanediamineH_Tg.scfp.tmp
The origin for moment calculation is the CENTER OF MASS  = (-0.043815, -0.021335 -0.008370)

-------------
DIPOLE MOMENT
-------------
                                X             Y             Z
Electronic contribution:      0.86328      -0.23078      -0.07553
Nuclear contribution   :      1.53363       0.74664       0.29295
                        -----------------------------------------
Total Dipole Moment    :      2.39691       0.51586       0.21742
                        -----------------------------------------
Magnitude (a.u.)       :      2.46142
Magnitude (Debye)      :      6.25642



--------------------
Rotational spectrum 
--------------------
 
Rotational constants in cm-1:     0.835044     0.119977     0.112992 
Rotational constants in MHz : 25034.000122  3596.831293  3387.417037 

 Dipole components along the rotational axes: 
x,y,z [a.u.] :     2.400476    -0.509635     0.191207 
x,y,z [Debye]:     6.101525    -1.295389     0.486010 

 

Timings for individual modules:

Sum of individual times         ...      230.155 sec (=   3.836 min)
GTO integral calculation        ...       13.407 sec (=   0.223 min)   5.8 %
SCF iterations                  ...        5.470 sec (=   0.091 min)   2.4 %
MDCI module                     ...      211.278 sec (=   3.521 min)  91.8 %
                             ****ORCA TERMINATED NORMALLY****
TOTAL RUN TIME: 0 days 0 hours 3 minutes 50 seconds 400 msec
ethanediamineH_Tg.gbw -> /home1/pantazis/klk/xyz/Nitrogen_compounds/ethanediamineH_Tg.gbw
ethanediamineH_Tg.job -> /home1/pantazis/klk/xyz/Nitrogen_compounds/ethanediamineH_Tg.job
ethanediamineH_Tg.loc -> /home1/pantazis/klk/xyz/Nitrogen_compounds/ethanediamineH_Tg.loc
ethanediamineH_Tg.nodes -> /home1/pantazis/klk/xyz/Nitrogen_compounds/ethanediamineH_Tg.nodes
ethanediamineH_Tg.prop -> /home1/pantazis/klk/xyz/Nitrogen_compounds/ethanediamineH_Tg.prop
ethanediamineH_Tg_property.txt -> /home1/pantazis/klk/xyz/Nitrogen_compounds/ethanediamineH_Tg_property.txt
ethanediamineH_Tg.xyz -> /home1/pantazis/klk/xyz/Nitrogen_compounds/ethanediamineH_Tg.xyz
cp: cannot stat ethanediamineH_Tg.asa.inp: No such file or directory
