! Job execution by suborca V 6.07 on ZEUS !
Job started from zeus1, running /scratch/pantazis/ethanediamine_g_plus_g_plus_g_plus__meXkJU/orca/orca copied from /opt/orca on zeussn143 in /scratch/pantazis/ethanediamine_g_plus_g_plus_g_plus__meXkJU
Job execution start: Fri Jun 28 00:09:50 CEST 2019
Shared library path: /scratch/pantazis/ethanediamine_g_plus_g_plus_g_plus__meXkJU/orca:/opt/openmpi_1.10.2/lib:/opt/intel/mkl/lib/intel64:/opt/intel/lib/intel64:
PBS Job ID is: 158239.icqc
izeussn143
izeussn143
izeussn143
izeussn143
izeussn143
izeussn143
izeussn143
izeussn143

                                 *****************
                                 * O   R   C   A *
                                 *****************

           --- An Ab Initio, DFT and Semiempirical electronic structure package ---

                  #######################################################
                  #                        -***-                        #
                  #          Department of theory and spectroscopy      #
                  #               Directorship: Frank Neese             #
                  #        Max Planck Institute fuer Kohlenforschung    #
                  #                Kaiser Wilhelm Platz 1               #
                  #                 D-45470 Muelheim/Ruhr               #
                  #                      Germany                        #
                  #                                                     #
                  #                  All rights reserved                #
                  #                        -***-                        #
                  #######################################################


                         Program Version 4.1.x  -  STABLE  -
                                (SVN: $Rev: 14094$)
                ($Date: 2019-06-14 15:01:15 +0200 (Fri, 14 Jun 2019) $)

                         (BUILD: $Sun Jun 23 06:18:31 CEST 2019$)


 With contributions from (in alphabetic order):
   Daniel Aravena         : Magnetic Properties
   Michael Atanasov       : Ab Initio Ligand Field Theory
   Alexander A. Auer      : GIAO ZORA
   Ute Becker             : Parallelization
   Giovanni Bistoni       : ED, Open-shell LED
   Martin Brehm           : Molecular dynamics
   Dmytro Bykov           : SCF Hessian
   Vijay G. Chilkuri      : MRCI spin determinant printing
   Dipayan Datta          : RHF DLPNO-CCSD density
   Achintya Kumar Dutta   : EOM-CC, STEOM-CC
   Dmitry Ganyushin       : Spin-Orbit,Spin-Spin,Magnetic field MRCI
   Miquel Garcia          : C-PCM Hessian
   Yang Guo               : DLPNO-NEVPT2, CIM, IAO-localization
   Andreas Hansen         : Spin unrestricted coupled pair/coupled cluster methods
   Benjamin Helmich-Paris : CASSCF linear response (MC-RPA)
   Lee Huntington         : MR-EOM, pCC
   Robert Izsak           : Overlap fitted RIJCOSX, COSX-SCS-MP3, EOM
   Christian Kollmar      : KDIIS, OOCD, Brueckner-CCSD(T), CCSD density
   Simone Kossmann        : Meta GGA functionals, TD-DFT gradient, OOMP2, MP2 Hessian
   Martin Krupicka        : AUTO-CI
   Lucas Lang             : DCDCAS
   Dagmar Lenk            : GEPOL surface, SMD
   Dimitrios Liakos       : Extrapolation schemes; parallel MDCI
   Dimitrios Manganas     : ROCIS; embedding schemes
   Dimitrios Pantazis     : SARC Basis sets
   Taras Petrenko         : DFT Hessian,TD-DFT gradient, ASA, ECA, R-Raman, ABS, FL, XAS/XES, NRVS
   Peter Pinski           : DLPNO-MP2, DLPNO-MP2 Gradient
   Christoph Reimann      : Effective Core Potentials
   Marius Retegan         : Local ZFS, SOC
   Christoph Riplinger    : Optimizer, TS searches, QM/MM, DLPNO-CCSD(T), (RO)-DLPNO pert. Triples
   Tobias Risthaus        : Range-separated hybrids, TD-DFT gradient, RPA, STAB
   Michael Roemelt        : Restricted open shell CIS
   Masaaki Saitow         : Open-shell DLPNO
   Barbara Sandhoefer     : DKH picture change effects
   Avijit Sen             : IP-ROCIS
   Kantharuban Sivalingam : CASSCF convergence, NEVPT2, FIC-MRCI
   Bernardo de Souza      : ESD, SOC TD-DFT
   Georgi Stoychev        : AutoAux, RI-MP2 NMR
   Willem Van den Heuvel  : Paramagnetic NMR
   Boris Wezisla          : Elementary symmetry handling
   Frank Wennmohs         : Technical directorship


 We gratefully acknowledge several colleagues who have allowed us to
 interface, adapt or use parts of their codes:
   Stefan Grimme, W. Hujo, H. Kruse,             : VdW corrections, initial TS optimization,
                  C. Bannwarth                     DFT functionals, gCP, sTDA/sTD-DF
   Ed Valeev                                     : LibInt (2-el integral package), F12 methods
   Garnet Chan, S. Sharma, J. Yang, R. Olivares  : DMRG
   Ulf Ekstrom                                   : XCFun DFT Library
   Mihaly Kallay                                 : mrcc  (arbitrary order and MRCC methods)
   Andreas Klamt, Michael Diedenhofen            : otool_cosmo (COSMO solvation model)
   Jiri Pittner, Ondrej Demel                    : Mk-CCSD
   Frank Weinhold                                : gennbo (NPA and NBO analysis)
   Christopher J. Cramer and Donald G. Truhlar   : smd solvation model
   Lars Goerigk                                  : TD-DFT with DH, B97 family of functionals
   V. Asgeirsson, H. Jonsson                     : NEB implementation
   FAccTs GmbH                                   : IRC, NEB, NEB-TS, Multilevel


 Your calculation uses the libint2 library for the computation of 2-el integrals
 For citations please refer to: http://libint.valeyev.net

 This ORCA versions uses:
   CBLAS   interface :  Fast vector & matrix operations
   LAPACKE interface :  Fast linear algebra routines
   SCALAPACK package :  Parallel linear algebra routines




***************************************
The coordinates will be read from file: ethanediamine_g_plus_g_plus_g_plus.xyz
***************************************


----- Orbital basis set information -----
Your calculation utilizes the basis: cc-pVTZ 
       H, B-Ne : Obtained from the ccRepo (grant-hill.group.shef.ac.uk/ccrepo) Feb. 2017
                 T. H. Dunning, Jr., J. Chem. Phys. 90, 1007 (1989)
            He : Obtained from the ccRepo (grant-hill.group.shef.ac.uk/ccrepo) Feb. 2017
                 D. E. Woon, T. H. Dunning, Jr., J. Chem. Phys. 100, 2975 (1994)
  Li-Be, Na-Mg : Obtained from the ccRepo (grant-hill.group.shef.ac.uk/ccrepo) Feb. 2017
                 B. P. Prascher, D. E. Woon, K. A. Peterson, T. H. Dunning, Jr., A. K. Wilson, Theor. Chem. Acc. 128, 69 (2011)
         Al-Ar : Obtained from the ccRepo (grant-hill.group.shef.ac.uk/ccrepo) Feb. 2017
                 D. E. Woon, T. H. Dunning, Jr., J. Chem. Phys. 98, 1358 (1993)
            Ca : Obtained from the Peterson Research Group Website (tyr0.chem.wsu.edu/~kipeters) Feb. 2017
                 J. Koput, K. A. Peterson, J. Phys. Chem. 106, 9595 (2002)
         Sc-Zn : Obtained from the ccRepo (grant-hill.group.shef.ac.uk/ccrepo) Feb. 2017
                 N. B. Balabanov, K. A. Peterson, J. Chem. Phys. 123, 064107 (2005)
                 N. B. Balabanov, K. A. Peterson, J. Chem. Phys. 125, 074110 (2006)
         Ga-Kr : Obtained from the ccRepo (grant-hill.group.shef.ac.uk/ccrepo) Feb. 2017
                 A. K. Wilson, D. E. Woon, K. A. Peterson, T. H. Dunning, Jr., J. Chem. Phys. 110, 7667 (1999)
             Y : Obtained from the ccRepo (grant-hill.group.shef.ac.uk/ccrepo) Feb. 2017
                 K. A. Peterson, D. Figgen, M. Dolg, H. Stoll, J. Chem. Phys. 126, 124101 (2007)
        Ag, Au : Obtained from the Peterson Research Group Website (tyr0.chem.wsu.edu/~kipeters) Feb. 2017
                 K. A. Peterson, C. Puzzarini, Theor. Chem. Acc. 114, 283 (2005)

----- AuxC basis set information -----
Your calculation utilizes the auxiliary basis: cc-pVTZ/C 
  Obtained from the EMSL Basis Set Exchange (bse.pnl.gov) Feb. 2017
  H-He, B-F, Al-Ar, Ga-Kr : F. Weigend, A. Kohn, C. Hattig, J. Chem. Phys. 116, 3175 (2002)
             Li-Be, Na-Mg : C. Haettig, Phys. Chem. Chem. Phys. 7, 59 (2005)
                       Ne : C. Haettig, Phys. Chem. Chem. Phys. 7, 59 (2005)
                            F. Weigend, A. Kohn, C. Hattig, J. Chem. Phys. 116, 3175 (2002)
                    Sc-Zn : J. G. Hill, J. A. Platts, J. Chem. Phys. 128, 044104 (2008)

----- AuxJK basis set information -----
Your calculation utilizes the auxiliary basis: cc-pVTZ/JK 
  H, B-F, Al-Cl, Ga-Br : Obtained from the TURBOMOLE 7.0 basis set library

================================================================================
                                        WARNINGS
                       Please study these warnings very carefully!
================================================================================


WARNING: MDCI localization with Augmented Hessian Foster-Boys
  ===> : Switching off randomization!

WARNING: Post HF methods need fully converged wavefunctions
  ===> : Setting SCFConvForced true
         You can overwrite this default with %scf ConvForced false 


INFO   : the flag for use of LIBINT has been found!

================================================================================
                                       INPUT FILE
================================================================================
NAME = ethanediamine_g_plus_g_plus_g_plus.inp
|  1> ! RHF DLPNO-CCSD(T) cc-pVTZ RIJK cc-pVTZ/JK cc-pVTZ/C
|  2> ! KDIIS SOSCF TightSCF TightPNO
|  3> 
|  4> %pal nprocs 8 end
|  5> 
|  6> %maxcore 8000
|  7> 
|  8> %scf maxiter 300
|  9>      shift shift 0.2 erroff 0.1 end
| 10> end
| 11> 
| 12> * xyzfile 0 1 ethanediamine_g_plus_g_plus_g_plus.xyz 
| 13> 
| 14> 
| 15>                          ****END OF INPUT****
================================================================================

                       ****************************
                       * Single Point Calculation *
                       ****************************

---------------------------------
CARTESIAN COORDINATES (ANGSTROEM)
---------------------------------
  C     -0.721790    0.623650   -0.251730
  N     -1.423580   -0.586640    0.201640
  C      0.721720    0.623630    0.251770
  N      1.423570   -0.586600   -0.201630
  H     -1.239620    1.494970    0.165940
  H     -0.715270    0.730780   -1.348470
  H      1.239530    1.495010   -0.165800
  H      0.715200    0.730680    1.348510
  H     -2.429600   -0.481440    0.112210
  H     -1.155800   -1.380020   -0.375070
  H      2.429620   -0.481040   -0.113070
  H      1.156490   -1.379910    0.375480

----------------------------
CARTESIAN COORDINATES (A.U.)
----------------------------
  NO LB      ZA    FRAG     MASS         X           Y           Z
   0 C     6.0000    0    12.011   -1.363985    1.178528   -0.475701
   1 N     7.0000    0    14.007   -2.690176   -1.108589    0.381044
   2 C     6.0000    0    12.011    1.363853    1.178490    0.475776
   3 N     7.0000    0    14.007    2.690157   -1.108513   -0.381025
   4 H     1.0000    0     1.008   -2.342542    2.825084    0.313581
   5 H     1.0000    0     1.008   -1.351664    1.380974   -2.548239
   6 H     1.0000    0     1.008    2.342372    2.825159   -0.313317
   7 H     1.0000    0     1.008    1.351532    1.380785    2.548315
   8 H     1.0000    0     1.008   -4.591279   -0.909790    0.212046
   9 H     1.0000    0     1.008   -2.184145   -2.607860   -0.708780
  10 H     1.0000    0     1.008    4.591316   -0.909034   -0.213671
  11 H     1.0000    0     1.008    2.185449   -2.607652    0.709554

--------------------------------
INTERNAL COORDINATES (ANGSTROEM)
--------------------------------
 C      0   0   0     0.000000000000     0.00000000     0.00000000
 N      1   0   0     1.470664966979     0.00000000     0.00000000
 C      1   2   0     1.528801285485   110.42804366     0.00000000
 N      3   1   2     1.470653472236   110.43147147    57.15438353
 H      1   2   3     1.096263964654   108.13361080   241.19011675
 H      1   2   3     1.101979117270   112.93195020   122.06584031
 H      3   1   2     1.096264112976   108.69502810   175.62522495
 H      3   1   2     1.101971342867   108.79551977   292.68548735
 H      2   1   3     1.015451133881   111.12189281   163.62005151
 H      2   1   3     1.016736139271   109.97619906   281.86736900
 H      4   3   1     1.015441967667   111.12406799   163.56207603
 H      4   3   1     1.016724365106   109.98248438   281.81864743

---------------------------
INTERNAL COORDINATES (A.U.)
---------------------------
 C      0   0   0     0.000000000000     0.00000000     0.00000000
 N      1   0   0     2.779154022343     0.00000000     0.00000000
 C      1   2   0     2.889015742753   110.42804366     0.00000000
 N      3   1   2     2.779132300427   110.43147147    57.15438353
 H      1   2   3     2.071638663684   108.13361080   241.19011675
 H      1   2   3     2.082438736941   112.93195020   122.06584031
 H      3   1   2     2.071638943972   108.69502810   175.62522495
 H      3   1   2     2.082424045448   108.79551977   292.68548735
 H      2   1   3     1.918924545415   111.12189281   163.62005151
 H      2   1   3     1.921352853683   109.97619906   281.86736900
 H      4   3   1     1.918907223781   111.12406799   163.56207603
 H      4   3   1     1.921330603735   109.98248438   281.81864743

---------------------
BASIS SET INFORMATION
---------------------
There are 3 groups of distinct atoms

 Group   1 Type C   : 18s5p2d1f contracted to 4s3p2d1f pattern {8811/311/11/1}
 Group   2 Type N   : 18s5p2d1f contracted to 4s3p2d1f pattern {8811/311/11/1}
 Group   3 Type H   : 5s2p1d contracted to 3s2p1d pattern {311/11/1}

Atom   0C    basis set group =>   1
Atom   1N    basis set group =>   2
Atom   2C    basis set group =>   1
Atom   3N    basis set group =>   2
Atom   4H    basis set group =>   3
Atom   5H    basis set group =>   3
Atom   6H    basis set group =>   3
Atom   7H    basis set group =>   3
Atom   8H    basis set group =>   3
Atom   9H    basis set group =>   3
Atom  10H    basis set group =>   3
Atom  11H    basis set group =>   3
-------------------------------
AUXILIARY BASIS SET INFORMATION
-------------------------------
There are 3 groups of distinct atoms

 Group   1 Type C   : 8s6p5d3f1g contracted to 8s6p5d3f1g pattern {11111111/111111/11111/111/1}
 Group   2 Type N   : 8s6p5d3f1g contracted to 8s6p5d3f1g pattern {11111111/111111/11111/111/1}
 Group   3 Type H   : 4s3p2d1f contracted to 4s3p2d1f pattern {1111/111/11/1}

Atom   0C    basis set group =>   1
Atom   1N    basis set group =>   2
Atom   2C    basis set group =>   1
Atom   3N    basis set group =>   2
Atom   4H    basis set group =>   3
Atom   5H    basis set group =>   3
Atom   6H    basis set group =>   3
Atom   7H    basis set group =>   3
Atom   8H    basis set group =>   3
Atom   9H    basis set group =>   3
Atom  10H    basis set group =>   3
Atom  11H    basis set group =>   3
-------------------------------
AUXILIARY BASIS SET INFORMATION
-------------------------------
There are 3 groups of distinct atoms

 Group   1 Type C   : 10s7p5d2f1g contracted to 10s7p5d2f1g pattern {1111111111/1111111/11111/11/1}
 Group   2 Type N   : 10s7p5d2f1g contracted to 10s7p5d2f1g pattern {1111111111/1111111/11111/11/1}
 Group   3 Type H   : 4s3p2d1f contracted to 4s3p2d1f pattern {1111/111/11/1}

Atom   0C    basis set group =>   1
Atom   1N    basis set group =>   2
Atom   2C    basis set group =>   1
Atom   3N    basis set group =>   2
Atom   4H    basis set group =>   3
Atom   5H    basis set group =>   3
Atom   6H    basis set group =>   3
Atom   7H    basis set group =>   3
Atom   8H    basis set group =>   3
Atom   9H    basis set group =>   3
Atom  10H    basis set group =>   3
Atom  11H    basis set group =>   3


           ************************************************************
           *        Program running with 8 parallel MPI-processes     *
           *              working on a common directory               *
           ************************************************************
------------------------------------------------------------------------------
                           ORCA GTO INTEGRAL CALCULATION
                           -- RI-GTO INTEGRALS CHOSEN --
------------------------------------------------------------------------------

                         BASIS SET STATISTICS AND STARTUP INFO

Gaussian basis set:
 # of primitive gaussian shells          ...  168
 # of primitive gaussian functions       ...  328
 # of contracted shells                  ...   88
 # of contracted basis functions         ...  232
 Highest angular momentum                ...    3
 Maximum contraction depth               ...    8
Auxiliary gaussian basis set:
 # of primitive gaussian shells          ...  180
 # of primitive gaussian functions       ...  556
 # of contracted shells                  ...  180
 # of contracted aux-basis functions     ...  556
 Highest angular momentum                ...    4
 Maximum contraction depth               ...    1
Ratio of auxiliary to basis functions    ...  2.40
Integral package used                  ... LIBINT
 One Electron integrals                  ... done
 Ordering auxiliary basis shells         ... done
 Integral threshhold             Thresh  ...  2.500e-11
 Primitive cut-off               TCut    ...  2.500e-12
 Pre-screening matrix                    ... done
 Shell pair data                         ... 
 Ordering of the shell pairs             ... done (   0.001 sec) 3857 of 3916 pairs
 Determination of significant pairs      ... done (   0.000 sec)
 Creation of shell pair data             ... done (   0.001 sec)
 Storage of shell pair data              ... done (   0.009 sec)
 Shell pair data done in (   0.010 sec)
 Computing two index integrals           ... done
 Cholesky decomposition of the V-matrix  ... done


Timings:
 Total evaluation time                   ...   0.371 sec (  0.006 min)
 One electron matrix time                ...   0.060 sec (  0.001 min) = 16.2%
 Schwartz matrix evaluation time         ...   0.169 sec (  0.003 min) = 45.5%
 Two index repulsion integral time       ...   0.052 sec (  0.001 min) = 14.1%
 Cholesky decomposition of V             ...   0.045 sec (  0.001 min) = 12.0%
 Three index repulsion integral time     ...   0.000 sec (  0.000 min) =  0.0%



           ************************************************************
           *        Program running with 8 parallel MPI-processes     *
           *              working on a common directory               *
           ************************************************************
-------------------------------------------------------------------------------
                                 ORCA SCF
-------------------------------------------------------------------------------

------------
SCF SETTINGS
------------
Hamiltonian:
 Ab initio Hamiltonian  Method          .... Hartree-Fock(GTOs)
 RI-approximation to the Coulomb term is turned on
   Number of auxiliary basis functions  .... 556
   RI-JK (J+K treated both via RI)      .... on


General Settings:
 Integral files         IntName         .... ethanediamine_g_plus_g_plus_g_plus
 Hartree-Fock type      HFTyp           .... RHF
 Total Charge           Charge          ....    0
 Multiplicity           Mult            ....    1
 Number of Electrons    NEL             ....   34
 Basis Dimension        Dim             ....  232
 Nuclear Repulsion      ENuc            ....    134.1207960228 Eh

Convergence Acceleration:
 DIIS                   CNVDIIS         .... off
 Newton-Raphson         CNVNR           .... off
 SOSCF                  CNVSOSCF        .... on
   Start iteration      SOSCFMaxIt      ....   150
   Startup grad/error   SOSCFStart      ....  0.003300
 Level Shifting         CNVShift        .... on
   Level shift para.    LevelShift      ....    0.2000
   Turn off err/grad.   ShiftErr        ....    0.1000
 Zerner damping         CNVZerner       .... off
 Static damping         CNVDamp         .... off
 Fernandez-Rico         CNVRico         .... off

SCF Procedure:
 Maximum # iterations   MaxIter         ....   300
 SCF integral mode      SCFMode         .... Direct
   Integral package                     .... LIBINT
 Reset frequency        DirectResetFreq ....    20
 Integral Threshold     Thresh          ....  2.500e-11 Eh
 Primitive CutOff       TCut            ....  2.500e-12 Eh

Convergence Tolerance:
 Convergence Check Mode ConvCheckMode   .... Total+1el-Energy
 Convergence forced     ConvForced      .... 1
 Energy Change          TolE            ....  1.000e-08 Eh
 1-El. energy change                    ....  1.000e-05 Eh
 Orbital Gradient       TolG            ....  1.000e-05
 Orbital Rotation angle TolX            ....  1.000e-05


Diagonalization of the overlap matrix:
Smallest eigenvalue                        ... 6.025e-04
Time for diagonalization                   ...    0.013 sec
Threshold for overlap eigenvalues          ... 1.000e-08
Number of eigenvalues below threshold      ... 0
Time for construction of square roots      ...    0.010 sec
Total time needed                          ...    0.024 sec

-------------------
DFT GRID GENERATION
-------------------

General Integration Accuracy     IntAcc      ...  4.340
Radial Grid Type                 RadialGrid  ... Gauss-Chebyshev
Angular Grid (max. acc.)         AngularGrid ... Lebedev-110
Angular grid pruning method      GridPruning ... 3 (G Style)
Weight generation scheme         WeightScheme... Becke
Basis function cutoff            BFCut       ...    1.0000e-11
Integration weight cutoff        WCut        ...    1.0000e-14
Grids for H and He will be reduced by one unit

# of grid points (after initial pruning)     ...  13068 (   0.0 sec)
# of grid points (after weights+screening)   ...  12320 (   0.0 sec)
nearest neighbour list constructed           ...    0.0 sec
Grid point re-assignment to atoms done       ...    0.0 sec
Grid point division into batches done        ...    0.0 sec
Reduced shell lists constructed in    0.1 sec

Total number of grid points                  ...    12320
Total number of batches                      ...      198
Average number of points per batch           ...       62
Average number of grid points per atom       ...     1027
Average number of shells per batch           ...    78.46 (89.16%)
Average number of basis functions per batch  ...   205.46 (88.56%)
Average number of large shells per batch     ...    67.38 (85.88%)
Average number of large basis fcns per batch ...   174.23 (84.80%)
Average number of aux-shells per batch       ...    78.46 (43.59%)
Average number of aux functions per batch    ...   205.46 (36.95%)
Maximum spatial batch extension              ...   3.39,  7.89,  5.32 au
Average spatial batch extension              ...   0.20,  0.22,  0.21 au

Time for grid setup =    0.094 sec

------------------------------
INITIAL GUESS: MODEL POTENTIAL
------------------------------
Loading Hartree-Fock densities                     ... done
Calculating cut-offs                               ... done
Setting up the integral package                    ... done
Initializing the effective Hamiltonian             ... done
Starting the Coulomb interaction                   ... done (   0.0 sec)
Reading the grid                                   ... done
Mapping shells                                     ... done
Starting the XC term evaluation                    ... done (   0.0 sec)
Transforming the Hamiltonian                       ... done (   0.0 sec)
Diagonalizing the Hamiltonian                      ... done (   0.0 sec)
Back transforming the eigenvectors                 ... done (   0.0 sec)
Now organizing SCF variables                       ... done
                      ------------------
                      INITIAL GUESS DONE (   0.3 sec)
                      ------------------
--------------
SCF ITERATIONS
--------------
ITER       Energy         Delta-E        Max-DP      RMS-DP      [F,P]   Gradient Norm
                             ****Turning on KDIIS(Cayley)****
  0   -189.0499711663   0.000000000000 0.01735127  0.00038623  0.0800996   0.169657974
  1   -189.1424979125  -0.092526746275 0.01767467  0.00037521  0.0730481   0.143996424
  2   -189.2099739951  -0.067476082568 0.02906523  0.00063659  0.0588788   0.117212746
  3   -189.2926721970  -0.082698201883 0.04474700  0.00103067  0.0360022   0.072667279
  4   -189.3473907125  -0.054718515539 0.00246094  0.00009848  0.0034431   0.005050023
                      *** Initiating the SOSCF procedure ***
                           *** Shutting down KDIIS ***
                      *** Re-Reading the Fockian *** 
                      *** Removing any level shift *** 
ITER      Energy       Delta-E        Grad      Rot      Max-DP    RMS-DP
  5   -189.34781182  -0.0004211056  0.001414  0.001414  0.002835  0.000105
  6   -189.34787973  -0.0000679155  0.000476  0.000587  0.000966  0.000020
  7   -189.34788434  -0.0000046020  0.000291  0.000183  0.000385  0.000008
  8   -189.34788781  -0.0000034751  0.000026  0.000040  0.000064  0.000002
  9   -189.34788784  -0.0000000271  0.000014  0.000027  0.000040  0.000001
 10   -189.34788785  -0.0000000078  0.000004  0.000009  0.000013  0.000000
                 **** Energy Check signals convergence ****
              ***Rediagonalizing the Fockian in SOSCF/NRSCF***

               *****************************************************
               *                     SUCCESS                       *
               *           SCF CONVERGED AFTER  11 CYCLES          *
               *****************************************************


----------------
TOTAL SCF ENERGY
----------------

Total Energy       :         -189.34788785 Eh           -5152.41797 eV

Components:
Nuclear Repulsion  :          134.12079602 Eh            3649.61240 eV
Electronic Energy  :         -323.46868387 Eh           -8802.03037 eV
One Electron Energy:         -522.02515538 Eh          -14205.02665 eV
Two Electron Energy:          198.55647152 Eh            5402.99627 eV

Virial components:
Potential Energy   :         -378.36691867 Eh          -10295.88729 eV
Kinetic Energy     :          189.01903082 Eh            5143.46932 eV
Virial Ratio       :            2.00173981


---------------
SCF CONVERGENCE
---------------

  Last Energy change         ...   -5.2393e-10  Tolerance :   1.0000e-08
  Last MAX-Density change    ...    8.1820e-06  Tolerance :   1.0000e-07
  Last RMS-Density change    ...    1.7310e-07  Tolerance :   5.0000e-09
  Last Orbital Gradient      ...    1.6608e-06  Tolerance :   1.0000e-05
  Last Orbital Rotation      ...    5.8831e-06  Tolerance :   1.0000e-05

             **** THE GBW FILE WAS UPDATED (ethanediamine_g_plus_g_plus_g_plus.gbw) ****
             **** DENSITY FILE WAS UPDATED (ethanediamine_g_plus_g_plus_g_plus.scfp.tmp) ****
             **** ENERGY FILE WAS UPDATED (ethanediamine_g_plus_g_plus_g_plus.en.tmp) ****
----------------
ORBITAL ENERGIES
----------------

  NO   OCC          E(Eh)            E(eV) 
   0   2.0000     -15.532055      -422.6487 
   1   2.0000     -15.532045      -422.6484 
   2   2.0000     -11.242228      -305.9166 
   3   2.0000     -11.241612      -305.8998 
   4   2.0000      -1.186937       -32.2982 
   5   2.0000      -1.143393       -31.1133 
   6   2.0000      -0.951902       -25.9026 
   7   2.0000      -0.798000       -21.7147 
   8   2.0000      -0.678383       -18.4597 
   9   2.0000      -0.654589       -17.8123 
  10   2.0000      -0.600606       -16.3433 
  11   2.0000      -0.593371       -16.1464 
  12   2.0000      -0.534218       -14.5368 
  13   2.0000      -0.505417       -13.7531 
  14   2.0000      -0.486478       -13.2378 
  15   2.0000      -0.400554       -10.8996 
  16   2.0000      -0.374314       -10.1856 
  17   0.0000       0.141612         3.8535 
  18   0.0000       0.167285         4.5521 
  19   0.0000       0.168994         4.5986 
  20   0.0000       0.194164         5.2835 
  21   0.0000       0.210450         5.7266 
  22   0.0000       0.221433         6.0255 
  23   0.0000       0.251665         6.8482 
  24   0.0000       0.255352         6.9485 
  25   0.0000       0.341544         9.2939 
  26   0.0000       0.343677         9.3519 
  27   0.0000       0.363168         9.8823 
  28   0.0000       0.406354        11.0575 
  29   0.0000       0.477613        12.9965 
  30   0.0000       0.489132        13.3100 
  31   0.0000       0.496825        13.5193 
  32   0.0000       0.529333        14.4039 
  33   0.0000       0.549984        14.9658 
  34   0.0000       0.550828        14.9888 
  35   0.0000       0.588003        16.0004 
  36   0.0000       0.610146        16.6029 
  37   0.0000       0.611361        16.6360 
  38   0.0000       0.627096        17.0642 
  39   0.0000       0.664424        18.0799 
  40   0.0000       0.684608        18.6291 
  41   0.0000       0.685423        18.6513 
  42   0.0000       0.690183        18.7808 
  43   0.0000       0.713896        19.4261 
  44   0.0000       0.719348        19.5744 
  45   0.0000       0.733907        19.9706 
  46   0.0000       0.740133        20.1400 
  47   0.0000       0.760809        20.7027 
  48   0.0000       0.790245        21.5037 
  49   0.0000       0.828415        22.5423 
  50   0.0000       0.832896        22.6643 
  51   0.0000       0.922539        25.1036 
  52   0.0000       0.948754        25.8169 
  53   0.0000       0.960970        26.1493 
  54   0.0000       1.020282        27.7633 
  55   0.0000       1.031194        28.0602 
  56   0.0000       1.052933        28.6518 
  57   0.0000       1.101799        29.9815 
  58   0.0000       1.128561        30.7097 
  59   0.0000       1.157023        31.4842 
  60   0.0000       1.189226        32.3605 
  61   0.0000       1.194718        32.5099 
  62   0.0000       1.240793        33.7637 
  63   0.0000       1.260499        34.2999 
  64   0.0000       1.299791        35.3691 
  65   0.0000       1.315112        35.7860 
  66   0.0000       1.327719        36.1291 
  67   0.0000       1.349484        36.7213 
  68   0.0000       1.368901        37.2497 
  69   0.0000       1.391799        37.8728 
  70   0.0000       1.421755        38.6879 
  71   0.0000       1.425847        38.7993 
  72   0.0000       1.460800        39.7504 
  73   0.0000       1.473961        40.1085 
  74   0.0000       1.497834        40.7581 
  75   0.0000       1.525745        41.5176 
  76   0.0000       1.557929        42.3934 
  77   0.0000       1.561399        42.4878 
  78   0.0000       1.597336        43.4657 
  79   0.0000       1.601116        43.5686 
  80   0.0000       1.646156        44.7942 
  81   0.0000       1.670875        45.4668 
  82   0.0000       1.727166        46.9986 
  83   0.0000       1.754096        47.7314 
  84   0.0000       1.767171        48.0872 
  85   0.0000       1.775307        48.3086 
  86   0.0000       1.860768        50.6341 
  87   0.0000       1.870022        50.8859 
  88   0.0000       1.909908        51.9712 
  89   0.0000       1.919627        52.2357 
  90   0.0000       1.975487        53.7557 
  91   0.0000       1.980561        53.8938 
  92   0.0000       2.058354        56.0107 
  93   0.0000       2.059642        56.0457 
  94   0.0000       2.090521        56.8860 
  95   0.0000       2.135895        58.1206 
  96   0.0000       2.580872        70.2291 
  97   0.0000       2.643987        71.9465 
  98   0.0000       2.678684        72.8907 
  99   0.0000       2.746882        74.7465 
 100   0.0000       2.770713        75.3949 
 101   0.0000       2.776781        75.5600 
 102   0.0000       2.831561        77.0507 
 103   0.0000       2.843896        77.3863 
 104   0.0000       2.892316        78.7039 
 105   0.0000       2.923491        79.5522 
 106   0.0000       2.953102        80.3580 
 107   0.0000       3.033880        82.5561 
 108   0.0000       3.067270        83.4647 
 109   0.0000       3.105546        84.5062 
 110   0.0000       3.148449        85.6737 
 111   0.0000       3.178676        86.4962 
 112   0.0000       3.189374        86.7873 
 113   0.0000       3.226907        87.8086 
 114   0.0000       3.252437        88.5033 
 115   0.0000       3.267755        88.9201 
 116   0.0000       3.279277        89.2337 
 117   0.0000       3.288628        89.4881 
 118   0.0000       3.341509        90.9271 
 119   0.0000       3.364430        91.5508 
 120   0.0000       3.381368        92.0117 
 121   0.0000       3.395442        92.3947 
 122   0.0000       3.428314        93.2892 
 123   0.0000       3.439328        93.5889 
 124   0.0000       3.449369        93.8621 
 125   0.0000       3.493713        95.0688 
 126   0.0000       3.533826        96.1603 
 127   0.0000       3.579860        97.4129 
 128   0.0000       3.585625        97.5698 
 129   0.0000       3.606208        98.1299 
 130   0.0000       3.619597        98.4942 
 131   0.0000       3.635848        98.9365 
 132   0.0000       3.656482        99.4979 
 133   0.0000       3.670510        99.8797 
 134   0.0000       3.704850       100.8141 
 135   0.0000       3.739477       101.7563 
 136   0.0000       3.742794       101.8466 
 137   0.0000       3.784111       102.9709 
 138   0.0000       3.798650       103.3665 
 139   0.0000       3.814864       103.8077 
 140   0.0000       3.825710       104.1029 
 141   0.0000       3.849119       104.7399 
 142   0.0000       3.869017       105.2813 
 143   0.0000       3.875475       105.4570 
 144   0.0000       3.903802       106.2279 
 145   0.0000       3.922013       106.7234 
 146   0.0000       3.966435       107.9322 
 147   0.0000       3.990025       108.5741 
 148   0.0000       3.996502       108.7503 
 149   0.0000       4.050785       110.2275 
 150   0.0000       4.096183       111.4628 
 151   0.0000       4.128029       112.3294 
 152   0.0000       4.131091       112.4127 
 153   0.0000       4.155496       113.0768 
 154   0.0000       4.168216       113.4229 
 155   0.0000       4.179531       113.7308 
 156   0.0000       4.183384       113.8357 
 157   0.0000       4.245014       115.5127 
 158   0.0000       4.266850       116.1069 
 159   0.0000       4.274567       116.3169 
 160   0.0000       4.291861       116.7875 
 161   0.0000       4.305834       117.1677 
 162   0.0000       4.307089       117.2019 
 163   0.0000       4.349298       118.3504 
 164   0.0000       4.353027       118.4519 
 165   0.0000       4.391506       119.4990 
 166   0.0000       4.394269       119.5741 
 167   0.0000       4.414556       120.1262 
 168   0.0000       4.454191       121.2047 
 169   0.0000       4.461514       121.4040 
 170   0.0000       4.492499       122.2471 
 171   0.0000       4.533825       123.3716 
 172   0.0000       4.578517       124.5878 
 173   0.0000       4.588676       124.8642 
 174   0.0000       4.594335       125.0182 
 175   0.0000       4.623917       125.8232 
 176   0.0000       4.640874       126.2846 
 177   0.0000       4.667823       127.0179 
 178   0.0000       4.710608       128.1822 
 179   0.0000       4.735969       128.8723 
 180   0.0000       4.757044       129.4458 
 181   0.0000       4.785189       130.2116 
 182   0.0000       4.792856       130.4203 
 183   0.0000       4.867364       132.4477 
 184   0.0000       4.893330       133.1543 
 185   0.0000       5.025727       136.7570 
 186   0.0000       5.028457       136.8313 
 187   0.0000       5.064114       137.8015 
 188   0.0000       5.174350       140.8012 
 189   0.0000       5.223838       142.1479 
 190   0.0000       5.230087       142.3179 
 191   0.0000       5.252023       142.9148 
 192   0.0000       5.288365       143.9037 
 193   0.0000       5.383580       146.4947 
 194   0.0000       5.399885       146.9384 
 195   0.0000       5.403573       147.0387 
 196   0.0000       5.426396       147.6597 
 197   0.0000       5.456510       148.4792 
 198   0.0000       5.464097       148.6856 
 199   0.0000       5.579147       151.8163 
 200   0.0000       5.591524       152.1531 
 201   0.0000       5.599805       152.3784 
 202   0.0000       5.675539       154.4393 
 203   0.0000       5.695016       154.9693 
 204   0.0000       5.707393       155.3060 
 205   0.0000       5.764323       156.8552 
 206   0.0000       5.812126       158.1560 
 207   0.0000       5.877419       159.9327 
 208   0.0000       5.897550       160.4805 
 209   0.0000       5.918734       161.0569 
 210   0.0000       5.973154       162.5378 
 211   0.0000       5.987084       162.9168 
 212   0.0000       6.070833       165.1958 
 213   0.0000       6.113490       166.3565 
 214   0.0000       6.167117       167.8158 
 215   0.0000       6.220252       169.2617 
 216   0.0000       6.266436       170.5184 
 217   0.0000       6.312438       171.7702 
 218   0.0000       6.325158       172.1163 
 219   0.0000       6.366775       173.2487 
 220   0.0000       6.415211       174.5668 
 221   0.0000       6.445822       175.3997 
 222   0.0000       6.553986       178.3430 
 223   0.0000       6.562445       178.5732 
 224   0.0000       6.624003       180.2483 
 225   0.0000       6.653069       181.0392 
 226   0.0000       7.265864       197.7142 
 227   0.0000       7.407066       201.5565 
 228   0.0000      12.334548       335.6401 
 229   0.0000      12.921288       351.6061 
 230   0.0000      13.526384       368.0716 
 231   0.0000      13.629034       370.8649 

                    ********************************
                    * MULLIKEN POPULATION ANALYSIS *
                    ********************************

-----------------------
MULLIKEN ATOMIC CHARGES
-----------------------
   0 C :   -0.037358
   1 N :   -0.408239
   2 C :   -0.037452
   3 N :   -0.408268
   4 H :    0.081769
   5 H :    0.067306
   6 H :    0.081776
   7 H :    0.067342
   8 H :    0.144907
   9 H :    0.151633
  10 H :    0.144928
  11 H :    0.151655
Sum of atomic charges:   -0.0000000

--------------------------------
MULLIKEN REDUCED ORBITAL CHARGES
--------------------------------
  0 C s       :     3.183299  s :     3.183299
      pz      :     0.966660  p :     2.724848
      px      :     0.894603
      py      :     0.863585
      dz2     :     0.030488  d :     0.120657
      dxz     :     0.016174
      dyz     :     0.019379
      dx2y2   :     0.024763
      dxy     :     0.029855
      f0      :     0.001714  f :     0.008553
      f+1     :     0.000844
      f-1     :     0.000870
      f+2     :     0.001098
      f-2     :     0.000934
      f+3     :     0.001759
      f-3     :     0.001334
  1 N s       :     3.511944  s :     3.511944
      pz      :     1.661573  p :     3.852846
      px      :     1.097798
      py      :     1.093475
      dz2     :     0.003921  d :     0.041146
      dxz     :     0.003813
      dyz     :     0.013485
      dx2y2   :     0.013092
      dxy     :     0.006834
      f0      :     0.000419  f :     0.002303
      f+1     :     0.000331
      f-1     :     0.000292
      f+2     :     0.000113
      f-2     :     0.000294
      f+3     :     0.000543
      f-3     :     0.000311
  2 C s       :     3.183343  s :     3.183343
      pz      :     0.966696  p :     2.724892
      px      :     0.894619
      py      :     0.863577
      dz2     :     0.030491  d :     0.120664
      dxz     :     0.016171
      dyz     :     0.019378
      dx2y2   :     0.024766
      dxy     :     0.029857
      f0      :     0.001714  f :     0.008553
      f+1     :     0.000844
      f-1     :     0.000870
      f+2     :     0.001098
      f-2     :     0.000934
      f+3     :     0.001759
      f-3     :     0.001334
  3 N s       :     3.511938  s :     3.511938
      pz      :     1.661334  p :     3.852885
      px      :     1.097993
      py      :     1.093559
      dz2     :     0.003926  d :     0.041141
      dxz     :     0.003799
      dyz     :     0.013490
      dx2y2   :     0.013095
      dxy     :     0.006831
      f0      :     0.000418  f :     0.002303
      f+1     :     0.000332
      f-1     :     0.000292
      f+2     :     0.000113
      f-2     :     0.000294
      f+3     :     0.000543
      f-3     :     0.000311
  4 H s       :     0.887523  s :     0.887523
      pz      :     0.007370  p :     0.028206
      px      :     0.009307
      py      :     0.011530
      dz2     :     0.000500  d :     0.002501
      dxz     :     0.000167
      dyz     :     0.000405
      dx2y2   :     0.000797
      dxy     :     0.000633
  5 H s       :     0.904807  s :     0.904807
      pz      :     0.011838  p :     0.025461
      px      :     0.007046
      py      :     0.006578
      dz2     :     0.000803  d :     0.002426
      dxz     :     0.000850
      dyz     :     0.000711
      dx2y2   :     0.000033
      dxy     :     0.000030
  6 H s       :     0.887515  s :     0.887515
      pz      :     0.007370  p :     0.028208
      px      :     0.009306
      py      :     0.011533
      dz2     :     0.000500  d :     0.002501
      dxz     :     0.000167
      dyz     :     0.000405
      dx2y2   :     0.000797
      dxy     :     0.000633
  7 H s       :     0.904769  s :     0.904769
      pz      :     0.011839  p :     0.025463
      px      :     0.007046
      py      :     0.006578
      dz2     :     0.000803  d :     0.002426
      dxz     :     0.000850
      dyz     :     0.000711
      dx2y2   :     0.000033
      dxy     :     0.000030
  8 H s       :     0.792855  s :     0.792855
      pz      :     0.024190  p :     0.057398
      px      :     0.021682
      py      :     0.011526
      dz2     :     0.000423  d :     0.004839
      dxz     :     0.002015
      dyz     :     0.000061
      dx2y2   :     0.001242
      dxy     :     0.001098
  9 H s       :     0.788124  s :     0.788124
      pz      :     0.022533  p :     0.055657
      px      :     0.014548
      py      :     0.018575
      dz2     :     0.001337  d :     0.004587
      dxz     :     0.000335
      dyz     :     0.001380
      dx2y2   :     0.000801
      dxy     :     0.000734
 10 H s       :     0.792832  s :     0.792832
      pz      :     0.024193  p :     0.057400
      px      :     0.021684
      py      :     0.011524
      dz2     :     0.000423  d :     0.004839
      dxz     :     0.002015
      dyz     :     0.000061
      dx2y2   :     0.001242
      dxy     :     0.001098
 11 H s       :     0.788102  s :     0.788102
      pz      :     0.022528  p :     0.055657
      px      :     0.014553
      py      :     0.018576
      dz2     :     0.001338  d :     0.004587
      dxz     :     0.000335
      dyz     :     0.001380
      dx2y2   :     0.000800
      dxy     :     0.000734


                     *******************************
                     * LOEWDIN POPULATION ANALYSIS *
                     *******************************

----------------------
LOEWDIN ATOMIC CHARGES
----------------------
   0 C :   -0.017746
   1 N :    0.310991
   2 C :   -0.017745
   3 N :    0.311018
   4 H :   -0.031866
   5 H :   -0.043485
   6 H :   -0.031861
   7 H :   -0.043476
   8 H :   -0.109949
   9 H :   -0.107964
  10 H :   -0.109952
  11 H :   -0.107965

-------------------------------
LOEWDIN REDUCED ORBITAL CHARGES
-------------------------------
  0 C s       :     2.677183  s :     2.677183
      pz      :     0.976431  p :     2.777496
      px      :     0.922854
      py      :     0.878212
      dz2     :     0.128056  d :     0.507156
      dxz     :     0.069265
      dyz     :     0.088120
      dx2y2   :     0.104400
      dxy     :     0.117314
      f0      :     0.007161  f :     0.055910
      f+1     :     0.005898
      f-1     :     0.005263
      f+2     :     0.009083
      f-2     :     0.009286
      f+3     :     0.009216
      f-3     :     0.010002
  1 N s       :     2.894816  s :     2.894816
      pz      :     1.456840  p :     3.631282
      px      :     1.096887
      py      :     1.077555
      dz2     :     0.018066  d :     0.152223
      dxz     :     0.007880
      dyz     :     0.036811
      dx2y2   :     0.057653
      dxy     :     0.031812
      f0      :     0.000463  f :     0.010688
      f+1     :     0.001005
      f-1     :     0.001205
      f+2     :     0.001942
      f-2     :     0.002011
      f+3     :     0.002238
      f-3     :     0.001824
  2 C s       :     2.677177  s :     2.677177
      pz      :     0.976432  p :     2.777499
      px      :     0.922848
      py      :     0.878220
      dz2     :     0.128057  d :     0.507157
      dxz     :     0.069261
      dyz     :     0.088101
      dx2y2   :     0.104418
      dxy     :     0.117319
      f0      :     0.007161  f :     0.055912
      f+1     :     0.005898
      f-1     :     0.005263
      f+2     :     0.009085
      f-2     :     0.009285
      f+3     :     0.009217
      f-3     :     0.010003
  3 N s       :     2.894786  s :     2.894786
      pz      :     1.456667  p :     3.631286
      px      :     1.097000
      py      :     1.077619
      dz2     :     0.018069  d :     0.152222
      dxz     :     0.007860
      dyz     :     0.036839
      dx2y2   :     0.057659
      dxy     :     0.031794
      f0      :     0.000462  f :     0.010688
      f+1     :     0.001007
      f-1     :     0.001206
      f+2     :     0.001941
      f-2     :     0.002008
      f+3     :     0.002237
      f-3     :     0.001826
  4 H s       :     0.857079  s :     0.857079
      pz      :     0.043364  p :     0.147090
      px      :     0.045875
      py      :     0.057851
      dz2     :     0.005084  d :     0.027697
      dxz     :     0.002502
      dyz     :     0.005940
      dx2y2   :     0.007318
      dxy     :     0.006853
  5 H s       :     0.867936  s :     0.867936
      pz      :     0.077588  p :     0.148389
      px      :     0.036880
      py      :     0.033921
      dz2     :     0.009574  d :     0.027160
      dxz     :     0.008999
      dyz     :     0.008249
      dx2y2   :     0.000136
      dxy     :     0.000203
  6 H s       :     0.857074  s :     0.857074
      pz      :     0.043363  p :     0.147090
      px      :     0.045873
      py      :     0.057854
      dz2     :     0.005084  d :     0.027697
      dxz     :     0.002502
      dyz     :     0.005940
      dx2y2   :     0.007319
      dxy     :     0.006853
  7 H s       :     0.867924  s :     0.867924
      pz      :     0.077589  p :     0.148391
      px      :     0.036881
      py      :     0.033922
      dz2     :     0.009574  d :     0.027161
      dxz     :     0.008999
      dyz     :     0.008249
      dx2y2   :     0.000136
      dxy     :     0.000203
  8 H s       :     0.782105  s :     0.782105
      pz      :     0.099736  p :     0.268225
      px      :     0.114084
      py      :     0.054405
      dz2     :     0.004568  d :     0.059620
      dxz     :     0.024194
      dyz     :     0.000406
      dx2y2   :     0.014120
      dxy     :     0.016331
  9 H s       :     0.781061  s :     0.781061
      pz      :     0.118376  p :     0.267295
      px      :     0.058994
      py      :     0.089925
      dz2     :     0.015761  d :     0.059608
      dxz     :     0.005333
      dyz     :     0.015372
      dx2y2   :     0.011585
      dxy     :     0.011558
 10 H s       :     0.782100  s :     0.782100
      pz      :     0.099707  p :     0.268231
      px      :     0.114112
      py      :     0.054412
      dz2     :     0.004565  d :     0.059621
      dxz     :     0.024193
      dyz     :     0.000407
      dx2y2   :     0.014125
      dxy     :     0.016332
 11 H s       :     0.781059  s :     0.781059
      pz      :     0.118385  p :     0.267296
      px      :     0.058988
      py      :     0.089924
      dz2     :     0.015774  d :     0.059610
      dxz     :     0.005334
      dyz     :     0.015370
      dx2y2   :     0.011576
      dxy     :     0.011556


                      *****************************
                      * MAYER POPULATION ANALYSIS *
                      *****************************

  NA   - Mulliken gross atomic population
  ZA   - Total nuclear charge
  QA   - Mulliken gross atomic charge
  VA   - Mayer's total valence
  BVA  - Mayer's bonded valence
  FA   - Mayer's free valence

  ATOM       NA         ZA         QA         VA         BVA        FA
  0 C      6.0374     6.0000    -0.0374     3.8875     3.8875    -0.0000
  1 N      7.4082     7.0000    -0.4082     2.9454     2.9454     0.0000
  2 C      6.0375     6.0000    -0.0375     3.8876     3.8876     0.0000
  3 N      7.4083     7.0000    -0.4083     2.9454     2.9454    -0.0000
  4 H      0.9182     1.0000     0.0818     0.9862     0.9862    -0.0000
  5 H      0.9327     1.0000     0.0673     0.9835     0.9835    -0.0000
  6 H      0.9182     1.0000     0.0818     0.9862     0.9862    -0.0000
  7 H      0.9327     1.0000     0.0673     0.9835     0.9835     0.0000
  8 H      0.8551     1.0000     0.1449     1.0071     1.0071     0.0000
  9 H      0.8484     1.0000     0.1516     1.0078     1.0078     0.0000
 10 H      0.8551     1.0000     0.1449     1.0071     1.0071    -0.0000
 11 H      0.8483     1.0000     0.1517     1.0077     1.0077    -0.0000

  Mayer bond orders larger than 0.1
B(  0-C ,  1-N ) :   0.9742 B(  0-C ,  2-C ) :   0.9448 B(  0-C ,  4-H ) :   0.9897 
B(  0-C ,  5-H ) :   0.9863 B(  1-N ,  8-H ) :   0.9909 B(  1-N ,  9-H ) :   0.9814 
B(  2-C ,  3-N ) :   0.9742 B(  2-C ,  6-H ) :   0.9897 B(  2-C ,  7-H ) :   0.9863 
B(  3-N , 10-H ) :   0.9909 B(  3-N , 11-H ) :   0.9814 

-------
TIMINGS
-------

Total SCF time: 0 days 0 hours 0 min 6 sec 

Total time                  ....       6.726 sec
Sum of individual times     ....       6.534 sec  ( 97.2%)

Fock matrix formation       ....       6.147 sec  ( 91.4%)
Diagonalization             ....       0.049 sec  (  0.7%)
Density matrix formation    ....       0.006 sec  (  0.1%)
Population analysis         ....       0.028 sec  (  0.4%)
Initial guess               ....       0.179 sec  (  2.7%)
Orbital Transformation      ....       0.000 sec  (  0.0%)
Orbital Orthonormalization  ....       0.000 sec  (  0.0%)
DIIS solution               ....       0.000 sec  (  0.0%)
SOSCF solution              ....       0.031 sec  (  0.5%)


           ************************************************************
           *        Program running with 8 parallel MPI-processes     *
           *              working on a common directory               *
           ************************************************************


------------------------------------------------------------------------------- 
                              ORCA-MATRIX DRIVEN CI                            
------------------------------------------------------------------------------- 


Wavefunction type
-----------------
Correlation treatment                      ...      CCSD     
Single excitations                         ... ON
Orbital optimization                       ... OFF
Calculation of Z vector                    ... OFF
Calculation of Brueckner orbitals          ... OFF
Perturbative triple excitations            ... ON
Calculation of F12 correction              ... OFF
Frozen core treatment                      ... chemical core (8 el)
Reference Wavefunction                     ... RHF
  Internal Orbitals:     4 ...   16 ( 13 MO's/ 26 electrons)
  Virtual  Orbitals:    17 ...  231 (215 MO's              )
Number of AO's                             ...    232
Number of electrons                        ...     34
Number of correlated electrons             ...     26

Algorithmic settings
--------------------
Integral transformation                    ... All integrals via the RI transformation
K(C) Formation                             ... RI-DLPNO
   PNO-Integral Storage                    ... ON DISK
   PNO occupation number cut-off           ... 1.000e-07
   Singles PNO occupation number cut-off   ... 3.000e-09
   PNO Mulliken prescreening cut-off       ... 1.000e-03
   Domain cut-off (Mulliken population)    ... 1.000e-03
   PNO Normalization                       ...    1
Maximum number of iterations               ...        50
Convergence tolerance (max. residuum)      ... 1.000e-05
Level shift for amplitude update           ... 2.000e-01
Maximum number of DIIS vectors             ...         7
DIIS turned on at iteration                ...         0
Damping before turning on DIIS             ...     0.500
Damping after turning on DIIS              ...     0.000
Pair specific amplitude update             ... OFF
Natural orbital iterations                 ... OFF
Perturbative natural orbital generation    ... OFF
Printlevel                                 ... 2

Singles Fock matrix elements calculated using PNOs.

Memory handling:
----------------
Maximum memory for working arrays          ...   8000 MB
Data storage in matrix containers          ... UNCOMPRESSED
Data type for integral storage             ... DOUBLE
In-Core Storage of quantities:
   Amplitudes+Sigma Vector      ... NO
   J+K operators                ... NO
   DIIS vectors                 ... NO
   3-external integrals         ... NO
   4-external integrals         ... NO

Localization treatment:
-----------------------
Localization option                        ...    6
Localization threshhold                    ... -1.0e+00
Using relative localization threshhold     ... 1.0e-08
Neglect threshold for strong pairs         ... 1.000e-05 Eh
Prescreening threshold for very weak pairs ... 1.000e-07 Eh

Initializing the integral package          ... done
Localizing the valence orbitals
------------------------------------------------------------------------------
                           ORCA ORBITAL LOCALIZATION
------------------------------------------------------------------------------

Input orbitals are from                  ... ethanediamine_g_plus_g_plus_g_plus.proc0.gbw
Output orbitals are to                   ... ethanediamine_g_plus_g_plus_g_plus.proc0.loc
Max. number of iterations                ... 128
Localizations seeded randomly            ... off
Convergence tolerance                    ... 1.000e-06
Using relative localization threshhold   ... 1.000e-08
Treshold for strong local MOs            ... 9.500e-01
Treshold for bond MOs                    ... 8.500e-01
Operator                                 ... 0
Orbital range for localization           ... 4 to 16
Localization criterion                   ... FOSTER-BOYS (AUGMENTED HESSIAN)
Doing the dipole integrals     ... o.k.
Initial value of the localization sum :    82.777564
ITERATION   0 : L=  110.4116108033 DL=  2.76e+01 (AVERGE_DL)=    0.5952164692 
ITERATION   1 : L=  112.8064906703 DL=  2.39e+00 (AVERGE_DL)=    0.1752243934 
ITERATION   2 : L=  112.8261477298 DL=  1.97e-02 (AVERGE_DL)=    0.0158749357 
ITERATION   3 : L=  112.8261828592 DL=  3.51e-05 (AVERGE_DL)=    0.0006711014 
ITERATION   4 : L=  112.8261835490 DL=  6.90e-07 (AVERGE_DL)=    0.0000940384 
LOCALIZATION SUM CONVERGED

------------------------------------------------------
AUGMENTED HESSIAN OPTIMIZATION OF FOSTER-BOYS ORBITALS
------------------------------------------------------

Spin operator:           0
Orbital window:          4 to 16
Number of iterations:    128
Gradient tolerance:      1.000e-06
Number of pairs:         78
Davidson threshold:      2000
Diagonalization method:  LAPACK
Iter:    0   L: 112.8261835490   Grad. norm: 6.084051e-04
   *** Likely close to a maximum now. ***
       Augmented Hessian eigenvalues:  2.76e-08 -6.13e+00 -6.13e+00 -6.51e+00 ... 
Iter:    1   L: 112.8261835628   Grad. norm: 5.616610e-09
LOCALIZATION HAS CONVERGED.

Eigenvalues of the Hessian:
  0 -6.131e+00
  1 -6.132e+00
  2 -6.511e+00
  3 -6.512e+00
  4 -9.518e+00
  5 -9.519e+00
  6 -1.139e+01
  7 -1.139e+01
  8 -1.508e+01
  9 -1.508e+01
    ...


------------------------------------------------------------------------------- 
                    LOCALIZED MOLECULAR ORBITAL COMPOSITIONS                   
------------------------------------------------------------------------------- 

The Mulliken populations for each LMO on each atom are computed
The LMO`s will be ordered according to atom index and type
  (A) Strongly localized MO`s have populations of >=0.950 on one atom
  (B) Two center bond orbitals have populations of >=0.850 on two atoms
  (C) Other MO`s are considered to be `delocalized`

FOUND  -   2 strongly local MO`s
       -  11 two center bond MO`s
       -   0 significantly delocalized MO`s

Rather strongly localized orbitals:
MO   5:   3N  -   0.981453
MO   4:   1N  -   0.981462
Bond-like localized orbitals:
MO  16:  11H  -   0.435204  and   3N  -   0.583986
MO  15:  10H  -   0.440364  and   3N  -   0.575483
MO  14:   9H  -   0.435205  and   1N  -   0.583985
MO  13:   8H  -   0.440377  and   1N  -   0.575470
MO  12:   7H  -   0.485843  and   2C  -   0.558219
MO  11:   6H  -   0.477458  and   2C  -   0.553809
MO  10:   5H  -   0.485865  and   0C  -   0.558184
MO   9:   4H  -   0.477462  and   0C  -   0.553792
MO   8:   3N  -   0.602982  and   2C  -   0.413614
MO   7:   2C  -   0.518994  and   0C  -   0.519031
MO   6:   1N  -   0.602969  and   0C  -   0.413636
Localized MO's were stored in: ethanediamine_g_plus_g_plus_g_plus.proc0.loc

Localizing the core orbitals
------------------------------------------------------------------------------
                           ORCA ORBITAL LOCALIZATION
------------------------------------------------------------------------------

Input orbitals are from                  ... ethanediamine_g_plus_g_plus_g_plus.proc0.loc
Output orbitals are to                   ... ethanediamine_g_plus_g_plus_g_plus.proc0.loc
Max. number of iterations                ... 128
Localizations seeded randomly            ... off
Convergence tolerance                    ... 1.000e-06
Using relative localization threshhold   ... 1.000e-08
Treshold for strong local MOs            ... 9.500e-01
Treshold for bond MOs                    ... 8.500e-01
Operator                                 ... 0
Orbital range for localization           ... 0 to 3
Localization criterion                   ... FOSTER-BOYS (AUGMENTED HESSIAN)
Doing the dipole integrals     ... o.k.
Initial value of the localization sum :    24.173118
ITERATION   0 : L=   24.1731184781 DL=  8.34e-07 (AVERGE_DL)=    0.0003727871 
LOCALIZATION SUM CONVERGED

------------------------------------------------------
AUGMENTED HESSIAN OPTIMIZATION OF FOSTER-BOYS ORBITALS
------------------------------------------------------

Spin operator:           0
Orbital window:          0 to 3
Number of iterations:    128
Gradient tolerance:      1.000e-06
Number of pairs:         6
Davidson threshold:      2000
Diagonalization method:  LAPACK
Iter:    0   L: 24.1731184781   Grad. norm: 1.956975e-07
   *** Likely close to a maximum now. ***
       Augmented Hessian eigenvalues:  1.09e-15 -3.09e+01 -3.09e+01 -3.34e+01 ... 
Iter:    1   L: 24.1731184781   Grad. norm: 4.088298e-21
LOCALIZATION HAS CONVERGED.

Eigenvalues of the Hessian:
  0 -3.089e+01
  1 -3.089e+01
  2 -3.339e+01
  3 -8.670e+01
  4 -8.670e+01
  5 -1.181e+02


------------------------------------------------------------------------------- 
                    LOCALIZED MOLECULAR ORBITAL COMPOSITIONS                   
------------------------------------------------------------------------------- 

The Mulliken populations for each LMO on each atom are computed
The LMO`s will be ordered according to atom index and type
  (A) Strongly localized MO`s have populations of >=0.950 on one atom
  (B) Two center bond orbitals have populations of >=0.850 on two atoms
  (C) Other MO`s are considered to be `delocalized`

FOUND  -   4 strongly local MO`s
       -   0 two center bond MO`s
       -   0 significantly delocalized MO`s

Rather strongly localized orbitals:
MO   3:   3N  -   1.000134
MO   2:   2C  -   1.001213
MO   1:   1N  -   1.000134
MO   0:   0C  -   1.001213
Localized MO's were stored in: ethanediamine_g_plus_g_plus_g_plus.proc0.loc

Warning: internal orbitals are localized - no re-canonicalization of internal orbitals

--------------------------
CLOSED-SHELL FOCK OPERATOR
--------------------------

RI-JK section for the Fock operator:
  RHF full Fock operator         ... done
  RHF frozen core Fock operator  ... done
Time needed for Fock operator              ...            0.822 sec
Reference energy                           ...   -189.347887846

--------------
DLPNO SETTINGS (2015 fully linear scaling implementation)
--------------

TCutMKN:           1.000e-03
TCutPAO:           1.000e-03
TCutPNO:           1.000e-07
TCutPNOSingles:    3.000e-09
TCutEN:            9.700e-01
TCutPAOExt:        1.000e-01
TCutPairs:         1.000e-05
TCutPre:           1.000e-07
TCutOSV:           1.000e-06
TCutDOij:          1.000e-05
TCutDO:            5.000e-03
TCutC:             1.000e-04
TCutCPAO:          1.000e-03
TCutCMO:           1.000e-03
TScaleDOMP2PreScr: 2.000e+00
TScaleMKNMP2PreScr:1.000e+01
TScalePNOMP2PreScr:1.000e+00
PAO overlap thresh 1.000e-08
Using PNOs for Singles Fock computation
Use new domains
Use fully linear algorithm
TCutTNO:           1.000e-09
TCutMP2Pairs:      1.000e-06
TCutDOStrong:      2.000e-03
TCutMKNStrong:     1.000e-02
TCutMKNWeak:       1.000e-01
TCutDOWeak:        4.000e-03
NTCutTNO:          1

--------------------------
Calculating differential overlap integrals ... ok
--------------------------
ELECTRON PAIR PRESCREENING
--------------------------

Dipole-based pair screening          .... used

   TCutDOij = 1.000000e-05
   TCutPre  = 1.000000e-07
   .... Finished loop over pairs
Total time spent in the prescreening                  ...     0.000 sec
sum of pair energies estimated for screened out pairs ...       0.000000000000 Eh
Thresholds for map construction and integral transformation for crude MP2:
   TCutMKN                    ...     1.0e-02
   TCutDO                     ...     1.0e-02
   TCutPairs                  ...     1.0e-05
   TCutPNO_CrudeMP2           ...     1.0e-07
   TCutPNOSingles_CrudeMP2    ...     3.0e-09
--------------------------------
LOCAL RI TRANSFORMATION (IAVPAO)
--------------------------------

Orbital window:       4 to 16
Number of PAOs:     232
Basis functions:    232 (88 shells)
Aux. functions:     564 (172 shells)

Processing maps (0.0 sec)
Average map sizes:
   Aux shells -> MOs              13.0
   Aux shells -> PAOs            232.0
   MOs        -> AO shells        88.0
   PAOs       -> AO shells        88.0

Calculating integrals (0.3 sec, 12.984 MB)
Sorting integrals (0.0 sec, 12.978 MB)
Total time for the integral transformation: 0.4 sec
--------------------------------
INITIAL GUESS AND PNO GENERATION
--------------------------------

PNO truncation parameters                   .... 
    PAOOverlapThresh   =        1.000e-08

    TCutPairs          =        1.000e-05
    TCutPNO            =        1.000e-07
    TCutPNOSingles     =        3.000e-09
    TCutMP2Pairs       =        1.000e-06
    TCutMKN            =        1.000e-02
    TCutDO             =        1.000e-02

Pair selection                          .... not used
Type of local MP2 treatment                 .... semi-local MP2
Strategy for PNO selection                  .... occupation number selection
Pair density normalization                  .... MP2 norm
Spin component scaling                      .... not used

   .... Finished loop over pairs
Making pair pair interaction lists          ... done

                       ===========================
                         91 OF   91 PAIRS ARE KEPT CCSD PAIRS
                          0 OF   91 PAIRS ARE KEPT MP2 PAIRS FOR (T)
                          0 OF   91 PAIRS ARE SKIPPED
                       ===========================

Total time spent in the initial guess                 ...     0.420 sec
SL-MP2 correlation energy (all non-screened pairs)    ...      -0.766759439793 Eh

Initial PNO correlation energy                        ...      -0.766190781482 Eh
sum of pair energies prescreened and skipped MP2 pairs...       0.000000000000 Eh
sum of pair energies of crude MP2 skipped pairs only  ...       0.000000000000 Eh
sum of MP2 pair energies for pairs that were not kept ...       0.000000000000 Eh
sum of PNO error estimates for the kept pairs         ...      -0.000568658311 Eh
                                                          --------------------
sum of all corrections                                         -0.000568658311
Initial total correlation energy                               -0.766759439793
Thresholds for map construction and integral transformation for fine MP2 and CCSD(T) calculation:
   TCutMKN   ...     1.0e-03
   TCutDO    ...     5.0e-03
   TCutPairs ...     1.0e-05
   TCutCMO   ...     1.0e-03
   TCutCPAO  ...     1.0e-03

Thresholds for map construction and integral transformation for strong Triples:
   TCutMKN   ...     1.0e-02
   TCutDO    ...     1.0e-02
   TCutCMO   ...     1.0e-03
   TCutCPAO  ...     1.0e-03

Thresholds for map construction and integral transformation for weak Triples:
   TCutMKN   ...     1.0e-01
   TCutDO    ...     2.0e-02
   TCutCMO   ...     1.0e-03
   TCutCPAO  ...     1.0e-03

--------------------------------
LOCAL RI TRANSFORMATION (IAVPAO)
--------------------------------

Orbital window:       4 to 16
Number of PAOs:     232
Basis functions:    232 (88 shells)
Aux. functions:     564 (172 shells)

Processing maps (0.0 sec)
Average map sizes:
   Aux shells -> MOs              13.0
   Aux shells -> PAOs            232.0
   MOs        -> AO shells        88.0
   PAOs       -> AO shells        88.0

Calculating integrals (0.3 sec, 12.984 MB)
Sorting integrals (0.0 sec, 12.978 MB)
Total time for the integral transformation: 0.4 sec
--------------------------------
INITIAL GUESS AND PNO GENERATION
--------------------------------

PNO truncation parameters                   .... 
    ScaleTCutPNO       =        1.000e-02
    PAOOverlapThresh   =        1.000e-08

    TCutPairs          =        1.000e-05
    TCutPNO            =        1.000e-07
    TCutPNOSingles     =        3.000e-09
    TCutMP2Pairs       =        1.000e-06
    TCutMKN            =        1.000e-03
    TCutDO             =        5.000e-03

Pair selection                          .... not used
Type of local MP2 treatment                 .... full local PMP2
Strategy for PNO selection                  .... occupation number selection
Pair density normalization                  .... MP2 norm
Spin component scaling                      .... not used

PASS-1: Formation of initial guess LMP2 amplitudes
Initial amplitudes guess done. Entering LMP2 iteration loop:
   Max. no of iterations          ...  50
   Energy convergence tolerance   ...    1.0e-07
   Residual convergence tolerance ...    5.0e-07
   Fock matrix cutoff             ...    1.0e-05 Eh
   DIIS convergence acceleration parameters:
        Max # vectors in DIIS     ... 7
        Start iteration of DIIS   ... 0
        Levelshift                ... 2.000e-01
        Damping factor 1          ... 5.000e-01
        Damping factor 2          ... 1.000e+00
   L-MP2 PNO cut-off              ...   1.0e-09
   L-MP2 PNO cut-off (core)       ...   1.0e-11
                           *** Turning on DIIS ***
LMP2-Iter=   0:  ELMP2= -0.779665220739  DE=   1.3e-02 RMAX=   4.4e-03
LMP2-Iter=   1:  ELMP2= -0.786654018154  DE=   7.0e-03 RMAX=   1.5e-03
LMP2-Iter=   2:  ELMP2= -0.787666475217  DE=   1.0e-03 RMAX=   2.6e-04
LMP2-Iter=   3:  ELMP2= -0.787766755514  DE=   1.0e-04 RMAX=   8.4e-05
LMP2-Iter=   4:  ELMP2= -0.787770657019  DE=   3.9e-06 RMAX=   1.1e-05
LMP2-Iter=   5:  ELMP2= -0.787770067872  DE=   5.9e-07 RMAX=   3.6e-06
LMP2-Iter=   6:  ELMP2= -0.787769992454  DE=   7.5e-08 RMAX=   4.5e-07
LMP2-Iter=   7:  ELMP2= -0.787769988696  DE=   3.8e-09 RMAX=   1.4e-07
LMP2-Iter=   8:  ELMP2= -0.787769991588  DE=   2.9e-09 RMAX=   1.4e-08 => CONVERGED
PASS-2: Formation of Pair natural orbitals
   .... Finished loop over pairs

 PNO Occupation Number Statistics: 
  | Av. % of trace(Dij) retained        ...  99.751272343139
  | sigma^2 in % of trace(Dij) retained ...   8.64e-02
  | Av. % of trace(Di) retained         ...  99.999769698660
  | sigma^2 in % of trace(Di) retained  ...   3.93e-09
 Distributions of % trace(Dij) recovered:
  |       >= 99.9  ...    39 ( 42.9 % of all pairs)
  |   [90.0, 99.0) ...     1 (  1.1 % of all pairs)
  |   [99.0, 99.9) ...    51 ( 56.0 % of all pairs)
 Distributions of % trace(Di) recovered :
  |       >= 99.9  ...    13 (100.0 % of all I-pairs )

Making pair pair interaction lists          ... done

                       ===========================
                         91 OF   91 PAIRS ARE KEPT
                       ===========================

Total time spent in the initial guess                 ...     3.265 sec
L-MP2 correlation energy (all non-screened pairs)     ...      -0.787769991588 Eh
L-MP2 PNO error correction                            ...      -0.000009781801 Eh
                                                          --------------------
Initial total L-MP2 energy (non-screened pairs)       ...      -0.787779773390 Eh

Initial PNO correlation energy                        ...      -0.787229766025 Eh
sum of pair energies estimated for screened out pairs ...       0.000000000000 Eh
sum of MP2 pair energies for pairs that were not kept ...       0.000000000000 Eh
sum of PNO error estimates for the kept pairs         ...      -0.000550007365 Eh
                                                          --------------------
sum of all corrections                                         -0.000550007365
Initial total correlation energy                               -0.787779773390
Thresholds for map construction and integral transformation for fine MP2 and CCSD(T) calculation:
   TCutMKN   ...     1.0e-03
   TCutDO    ...     5.0e-03
   TCutPairs ...     1.0e-05
   TCutCMO   ...     1.0e-03
   TCutCPAO  ...     1.0e-03

Time for aux screen maps:            0.001
Time for maps after fine MP2:            0.005
-----------------------------
LOCAL RI TRANSFORMATION (IJV)
-----------------------------

Orbital window:       4 to 16
Basis functions:    232 (88 shells)
Aux. functions:     564 (172 shells)

Processing maps (0.0 sec)
Average map sizes:
   Aux shells -> MOs(i)           13.0
   Aux shells -> MOs(j)           13.0
   MOs        -> AO shells        88.0

Calculating integrals (0.3 sec, 0.734 MB)
Sorting integrals (0.0 sec, 0.727 MB)
Total time for the integral transformation: 0.3 sec
--------------------------------
LOCAL RI TRANSFORMATION (VABPAO)
--------------------------------

Number of PAOs:     232
Basis functions:    232 (88 shells)
Aux. functions:     564 (172 shells)

Processing maps (0.0 sec)
Average map sizes:
   Aux shells -> PAOs            232.0
   PAOs       -> AO shells        88.0

Calculating integrals (0.6 sec, 436.938 MB)
Finished


-------------------------------------
Pair Pair Term precalculation with     
RI-(ij|mn) and (im|jn) transformation  
ON THE FLY                             
-------------------------------------

   IBatch   1 (of   1)              ... done (   11.473 sec)
Total EXT                           ...          11.473 sec

---------------------
RI-PNO TRANSFORMATION
---------------------

Total Number of PNOs                   ...  4269
Average number of PNOs per pair        ...    46
Maximal number of PNOs per pair        ...    67
   #pairs with  1 -  5 PNOs   :    0
   #pairs with  6 - 10 PNOs   :    0
   #pairs with 11 - 15 PNOs   :    0
   #pairs with 16 - 20 PNOs   :    3
   #pairs with 21 - 25 PNOs   :    9
   #pairs with 26 - 30 PNOs   :    9
   #pairs with 31 - 35 PNOs   :    2
   #pairs with 36 - 40 PNOs   :    5
   #pairs with 41 - 45 PNOs   :    7
   #pairs with 46 - 50 PNOs   :   18
   #pairs with 51 - 55 PNOs   :    7
   #pairs with 56 - 60 PNOs   :   10
   #pairs with 61 - 65 PNOs   :   13
   #pairs with 66 - 70 PNOs   :    8

Generation of (ij|ab)[P] integrals            ... on
Generation of (ia|bc)[P],(ja|bc)[P] integrals ... on
Storage of 3 and 4 external integrals         ... on
Generation of ALL (ka|bc)[P] integrals        ... on
Keep RI integrals in memory                   ... off

Ibatch:  1 (of  1)
Starting 2-4 index PNO integral generation ... done

Timings:
Total PNO integral transformation time     ...          7.067 sec
Size of the 3-external file                ...        93 MB
Size of the 4-external file                ...       680 MB
Size of the IKJL file                      ...         0 MB
Size of the all 3-external file            ...       609 MB
Size of the 1-external file                ...         1 MB

Making pair/pair overlap matrices          ... done (    0.382 sec)
Size of the pair overlap file              ... 109 MB
Redoing the guess amplitudes               ... done (    0.002 sec)

-------------------------
FINAL STARTUP INFORMATION
-------------------------

E(0)                                       ...   -189.347887846
E(L-MP2)                                   ...     -0.787779773
E(L-MP2) including corrections             ...     -0.787779773
Initial E(tot)                             ...   -190.135667620
<T|T>                                      ...      0.210827451
Number of pairs included                   ... 91
Total number of pairs                      ... 91

------------------------------------------------
                  RHF COUPLED CLUSTER ITERATIONS
------------------------------------------------

Number of PNO amplitudes to be optimized   ...       220135
Number of non-PNO amplitudes               ...      4206475
Untruncated number of regular amplitudes   ...      4206475

Iter       E(tot)           E(Corr)          Delta-E          Residual     Time
  0   -190.114561044     -0.766123190      0.021656583      0.014618433    4.69
                           *** Turning on DIIS ***
  1   -190.149176798     -0.800738944     -0.034615754      0.005803684    4.77
  2   -190.169183079     -0.820745225     -0.020006281      0.001652264    4.97
  3   -190.172882584     -0.824444731     -0.003699505      0.000506916    5.07
  4   -190.173609363     -0.825171510     -0.000726779      0.000243337    5.32
  5   -190.173726638     -0.825288784     -0.000117275      0.000114478    5.64
  6   -190.173752297     -0.825314444     -0.000025659      0.000064026   10.16
  7   -190.173755925     -0.825318071     -0.000003628      0.000037420   12.01
  8   -190.173756819     -0.825318965     -0.000000894      0.000015755    6.58
  9   -190.173756552     -0.825318698      0.000000266      0.000005320    5.73
               --- The Coupled-Cluster iterations have converged ---

----------------------
COUPLED CLUSTER ENERGY
----------------------

E(0)                                       ...   -189.347887846
E(CORR)(strong-pairs)                      ...     -0.825318698
E(CORR)(weak-pairs)                        ...     -0.000550007
E(CORR)(corrected)                         ...     -0.825868706
E(TOT)                                     ...   -190.173756552
Singles Norm <S|S>**1/2                    ...      0.041075704  
T1 diagnostic                              ...      0.008055608  

------------------
LARGEST AMPLITUDES
------------------
  16-> 23  16-> 23       0.032946
  14-> 23  14-> 23       0.032936
   9-> 23   9-> 23       0.031402
  11-> 23  11-> 23       0.031396
   7-> 27   7-> 27       0.028684
  10-> 17  10-> 17       0.028006
  12-> 17  12-> 17       0.028005
  11-> 17  11-> 17       0.027683
   9-> 17   9-> 17       0.027683
  16-> 17  16-> 23       0.026569
  16-> 23  16-> 17       0.026569
  14-> 23  14-> 17       0.026566
  14-> 17  14-> 23       0.026566
  14-> 17  14-> 17       0.026028
  16-> 17  16-> 17       0.026027
   9-> 17   9-> 23       0.025777


-------------------------------------------
DLPNO BASED TRIPLES CORRECTION
-------------------------------------------

Singles multiplier          ...  1.000000
TCutTNO                     ... 1.000e-09
TCutMP2Pairs                ... 1.000e-06
TCutDOStrong                ... 1.000e-02
TCutMKNStrong               ... 1.000e-02
TCutDOWeak                  ... 2.000e-02
TCutMKNWeak                 ... 1.000e-01

Fragment selection                          .... not used
Number of Triples that are to be computed   ...       442

 . . . . . . . . .
10% done  
20% done  
30% done  
40% done  
50% done  
60% done  
70% done  
80% done  
90% done               (     28.414 sec)
Triples timings:
Total time for T0               ...    29.921 sec
Total time for Iterative (T)    ...     0.000 sec
Total time of overall (T)       ...    29.921 sec

Triples List generation         ...     0.000 sec
TNO generation                  ...     1.503 sec
Pair density generation         ...     0.003 sec
Look up tables                  ...     0.000 sec
Generating 3-index integrals    ...    13.690 sec
  Make 4-ind.int. from 3-ind.int...     5.208 sec
  Projecting amplitudes (D + S) ...     1.550 sec
  Downprojecting integrals      ...     0.001 sec
  Energy contr. (sum over a,b,c)...     2.228 sec
Fitting ET(->0)                 ...     0.000 sec

Everything after 3-index        ...    14.724 sec

Timing details:
 TNO integrals                  ...    18.480 sec
   Reading 3-index integrals    ...     0.082 sec
   Sorting integrals            ...     3.291 sec
       Sorting integrals 1      ...     0.000 sec
       Sorting integrals 2      ...     0.916 sec
       Sorting integrals 3      ...     0.120 sec
       Sorting integrals 4      ...     0.004 sec
       Sorting integrals 5      ...     0.028 sec
       Sorting integrals 6      ...     2.223 sec
   Calculating local VM**-1/2   ...     0.079 sec
   Orthogonal. integrals        ...     0.174 sec
   Multipl. 3-index integrals   ...    14.853 sec
   All concerning IRIab (w/TNO) ...     2.594 sec

 Calculate W0/W1                ...     5.733 sec
 W 3-ext contribution           ...     3.216 sec
 W 3-int contribution           ...     0.724 sec
 Sorting W                      ...     1.713 sec

 V exchange contribution        ...     0.742 sec

 Timings for Triples without generation
     of 3-index integrals       ...    14.724 sec
       0 weak pairs             ...    14.724 sec
       1 weak pair              ...     0.000 sec
       2 weak pairs             ...     0.000 sec
       3 weak pairs             ...     0.000 sec
  Extra time for extrapolation  ...     0.000 sec

Number of Triples   (0, 1, 2, 3 weak pairs; overall):    442       0       0       0  (   442)
Number of Atoms     (0, 1, 2, 3 weak pairs; overall):   11.8     0.0     0.0     0.0  (    12)
Number of PAOs      (0, 1, 2, 3 weak pairs; overall):  228.7     0.0     0.0     0.0  (   232)
Number of AuxFcns   (0, 1, 2, 3 weak pairs; overall):  326.9     0.0     0.0     0.0  (   564)
Number of TNOs      (0, 1, 2, 3 weak pairs         ):  103.2     0.0     0.0     0.0
Aver. Number of NTNO, Atoms, PAOs, AuxFcns / Triples:    442   103.2    11.8   228.7   326.9

Triples Correction (T)                     ...     -0.030358822
Final correlation energy                   ...     -0.856227528
E(CCSD)                                    ...   -190.173756552
E(CCSD(T))                                 ...   -190.204115374


Maximum memory used throughout the entire calculation: 2685.1 MB


------------------------------------------------------------------------------- 
                                     TIMINGS                                   
------------------------------------------------------------------------------- 


Total execution time                   ...      121.522 sec

Localization of occupied MO's          ...        0.439 sec (  0.4%)
Fock Matrix Formation                  ...        0.822 sec (  0.7%)
Global overlap, Fock, MKN matrices     ...        0.190 sec (  0.2%)
Differential overlap integrals         ...        0.073 sec (  0.1%)
Organizing maps                        ...        0.014 sec (  0.0%)
RI 3-index integral generations        ...        1.703 sec (  1.4%)
RI-PNO integral transformation         ...       19.282 sec ( 15.9%)
Initial Guess                          ...        3.711 sec (  3.1%)
DIIS Solver                            ...        0.675 sec (  0.6%)
State Vector Update                    ...        0.018 sec (  0.0%)
Sigma-vector construction              ...       64.760 sec ( 53.3%)
  <D|H|D>(0-ext)                       ...        0.686 sec (  1.1% of sigma)
  <D|H|D>(2-ext Fock)                  ...        0.007 sec (  0.0% of sigma)
  <D|H|D>(2-ext)                       ...        2.738 sec (  4.2% of sigma)
  <D|H|D>(4-ext)                       ...        7.931 sec ( 12.2% of sigma)
  <D|H|D>(4-ext-corr)                  ...       31.754 sec ( 49.0% of sigma)
  CCSD doubles correction              ...        0.063 sec (  0.1% of sigma)
  <S|H|S>                              ...        0.178 sec (  0.3% of sigma)
  <S|H|D>(1-ext)                       ...        0.116 sec (  0.2% of sigma)
  <D|H|S>(1-ext)                       ...        0.004 sec (  0.0% of sigma)
  <S|H|D>(3-ext)                       ...        0.240 sec (  0.4% of sigma)
  Fock-dressing                        ...        4.467 sec (  6.9% of sigma)
  Singles amplitudes                   ...        0.146 sec (  0.2% of sigma)
  (ik|jl)-dressing                     ...        4.984 sec (  7.7% of sigma)
  (ij|ab),(ia|jb)-dressing             ...        1.016 sec (  1.6% of sigma)
  Pair energies                        ...        0.004 sec (  0.0% of sigma)
Total Time for computing (T)           ...       29.938 sec ( 24.6% of ALL)


-------------------------   --------------------
FINAL SINGLE POINT ENERGY      -190.204115374461
-------------------------   --------------------


                            ***************************************
                            *     ORCA property calculations      *
                            ***************************************

                                    ---------------------
                                    Active property flags
                                    ---------------------
   (+) Dipole Moment


------------------------------------------------------------------------------
                       ORCA ELECTRIC PROPERTIES CALCULATION
------------------------------------------------------------------------------

Dipole Moment Calculation                       ... on
Quadrupole Moment Calculation                   ... off
Polarizability Calculation                      ... off
GBWName                                         ... ethanediamine_g_plus_g_plus_g_plus.gbw
Electron density file                           ... ethanediamine_g_plus_g_plus_g_plus.scfp.tmp
The origin for moment calculation is the CENTER OF MASS  = (-0.000013, -0.022564  0.000011)

-------------
DIPOLE MOMENT
-------------
                                X             Y             Z
Electronic contribution:     -0.00012      -0.63318       0.00009
Nuclear contribution   :      0.00057       0.76725      -0.00030
                        -----------------------------------------
Total Dipole Moment    :      0.00045       0.13407      -0.00020
                        -----------------------------------------
Magnitude (a.u.)       :      0.13407
Magnitude (Debye)      :      0.34078



--------------------
Rotational spectrum 
--------------------
 
Rotational constants in cm-1:     0.474674     0.178006     0.144189 
Rotational constants in MHz : 14230.371457  5336.495514  4322.670115 

 Dipole components along the rotational axes: 
x,y,z [a.u.] :     0.000456    -0.134070    -0.000193 
x,y,z [Debye]:     0.001159    -0.340779    -0.000491 

 

Timings for individual modules:

Sum of individual times         ...      129.175 sec (=   2.153 min)
GTO integral calculation        ...        0.557 sec (=   0.009 min)   0.4 %
SCF iterations                  ...        6.876 sec (=   0.115 min)   5.3 %
MDCI module                     ...      121.742 sec (=   2.029 min)  94.2 %
                             ****ORCA TERMINATED NORMALLY****
TOTAL RUN TIME: 0 days 0 hours 2 minutes 9 seconds 456 msec
ethanediamine_g_plus_g_plus_g_plus.gbw -> /home1/pantazis/klk/xyz/Nitrogen_compounds/ethanediamine_g_plus_g_plus_g_plus.gbw
ethanediamine_g_plus_g_plus_g_plus.job -> /home1/pantazis/klk/xyz/Nitrogen_compounds/ethanediamine_g_plus_g_plus_g_plus.job
ethanediamine_g_plus_g_plus_g_plus.loc -> /home1/pantazis/klk/xyz/Nitrogen_compounds/ethanediamine_g_plus_g_plus_g_plus.loc
ethanediamine_g_plus_g_plus_g_plus.nodes -> /home1/pantazis/klk/xyz/Nitrogen_compounds/ethanediamine_g_plus_g_plus_g_plus.nodes
ethanediamine_g_plus_g_plus_g_plus.prop -> /home1/pantazis/klk/xyz/Nitrogen_compounds/ethanediamine_g_plus_g_plus_g_plus.prop
ethanediamine_g_plus_g_plus_g_plus_property.txt -> /home1/pantazis/klk/xyz/Nitrogen_compounds/ethanediamine_g_plus_g_plus_g_plus_property.txt
ethanediamine_g_plus_g_plus_g_plus.xyz -> /home1/pantazis/klk/xyz/Nitrogen_compounds/ethanediamine_g_plus_g_plus_g_plus.xyz
cp: cannot stat ethanediamine_g_plus_g_plus_g_plus.asa.inp: No such file or directory
