! Job execution by suborca V 6.07 on ZEUS !
Job started from zeus1, running /scratch/pantazis/ethanethiol_ecl__pQ2QPO/orca/orca copied from /opt/orca on zeussn124 in /scratch/pantazis/ethanethiol_ecl__pQ2QPO
Job execution start: Fri Jun 28 01:56:13 CEST 2019
Shared library path: /scratch/pantazis/ethanethiol_ecl__pQ2QPO/orca:/opt/openmpi_1.10.2/lib:/opt/intel/mkl/lib/intel64:/opt/intel/lib/intel64:
PBS Job ID is: 158311.icqc
izeussn124
izeussn124
izeussn124
izeussn124
izeussn124
izeussn124
izeussn124
izeussn124

                                 *****************
                                 * O   R   C   A *
                                 *****************

           --- An Ab Initio, DFT and Semiempirical electronic structure package ---

                  #######################################################
                  #                        -***-                        #
                  #          Department of theory and spectroscopy      #
                  #               Directorship: Frank Neese             #
                  #        Max Planck Institute fuer Kohlenforschung    #
                  #                Kaiser Wilhelm Platz 1               #
                  #                 D-45470 Muelheim/Ruhr               #
                  #                      Germany                        #
                  #                                                     #
                  #                  All rights reserved                #
                  #                        -***-                        #
                  #######################################################


                         Program Version 4.1.x  -  STABLE  -
                                (SVN: $Rev: 14094$)
                ($Date: 2019-06-14 15:01:15 +0200 (Fri, 14 Jun 2019) $)

                         (BUILD: $Sun Jun 23 06:18:31 CEST 2019$)


 With contributions from (in alphabetic order):
   Daniel Aravena         : Magnetic Properties
   Michael Atanasov       : Ab Initio Ligand Field Theory
   Alexander A. Auer      : GIAO ZORA
   Ute Becker             : Parallelization
   Giovanni Bistoni       : ED, Open-shell LED
   Martin Brehm           : Molecular dynamics
   Dmytro Bykov           : SCF Hessian
   Vijay G. Chilkuri      : MRCI spin determinant printing
   Dipayan Datta          : RHF DLPNO-CCSD density
   Achintya Kumar Dutta   : EOM-CC, STEOM-CC
   Dmitry Ganyushin       : Spin-Orbit,Spin-Spin,Magnetic field MRCI
   Miquel Garcia          : C-PCM Hessian
   Yang Guo               : DLPNO-NEVPT2, CIM, IAO-localization
   Andreas Hansen         : Spin unrestricted coupled pair/coupled cluster methods
   Benjamin Helmich-Paris : CASSCF linear response (MC-RPA)
   Lee Huntington         : MR-EOM, pCC
   Robert Izsak           : Overlap fitted RIJCOSX, COSX-SCS-MP3, EOM
   Christian Kollmar      : KDIIS, OOCD, Brueckner-CCSD(T), CCSD density
   Simone Kossmann        : Meta GGA functionals, TD-DFT gradient, OOMP2, MP2 Hessian
   Martin Krupicka        : AUTO-CI
   Lucas Lang             : DCDCAS
   Dagmar Lenk            : GEPOL surface, SMD
   Dimitrios Liakos       : Extrapolation schemes; parallel MDCI
   Dimitrios Manganas     : ROCIS; embedding schemes
   Dimitrios Pantazis     : SARC Basis sets
   Taras Petrenko         : DFT Hessian,TD-DFT gradient, ASA, ECA, R-Raman, ABS, FL, XAS/XES, NRVS
   Peter Pinski           : DLPNO-MP2, DLPNO-MP2 Gradient
   Christoph Reimann      : Effective Core Potentials
   Marius Retegan         : Local ZFS, SOC
   Christoph Riplinger    : Optimizer, TS searches, QM/MM, DLPNO-CCSD(T), (RO)-DLPNO pert. Triples
   Tobias Risthaus        : Range-separated hybrids, TD-DFT gradient, RPA, STAB
   Michael Roemelt        : Restricted open shell CIS
   Masaaki Saitow         : Open-shell DLPNO
   Barbara Sandhoefer     : DKH picture change effects
   Avijit Sen             : IP-ROCIS
   Kantharuban Sivalingam : CASSCF convergence, NEVPT2, FIC-MRCI
   Bernardo de Souza      : ESD, SOC TD-DFT
   Georgi Stoychev        : AutoAux, RI-MP2 NMR
   Willem Van den Heuvel  : Paramagnetic NMR
   Boris Wezisla          : Elementary symmetry handling
   Frank Wennmohs         : Technical directorship


 We gratefully acknowledge several colleagues who have allowed us to
 interface, adapt or use parts of their codes:
   Stefan Grimme, W. Hujo, H. Kruse,             : VdW corrections, initial TS optimization,
                  C. Bannwarth                     DFT functionals, gCP, sTDA/sTD-DF
   Ed Valeev                                     : LibInt (2-el integral package), F12 methods
   Garnet Chan, S. Sharma, J. Yang, R. Olivares  : DMRG
   Ulf Ekstrom                                   : XCFun DFT Library
   Mihaly Kallay                                 : mrcc  (arbitrary order and MRCC methods)
   Andreas Klamt, Michael Diedenhofen            : otool_cosmo (COSMO solvation model)
   Jiri Pittner, Ondrej Demel                    : Mk-CCSD
   Frank Weinhold                                : gennbo (NPA and NBO analysis)
   Christopher J. Cramer and Donald G. Truhlar   : smd solvation model
   Lars Goerigk                                  : TD-DFT with DH, B97 family of functionals
   V. Asgeirsson, H. Jonsson                     : NEB implementation
   FAccTs GmbH                                   : IRC, NEB, NEB-TS, Multilevel


 Your calculation uses the libint2 library for the computation of 2-el integrals
 For citations please refer to: http://libint.valeyev.net

 This ORCA versions uses:
   CBLAS   interface :  Fast vector & matrix operations
   LAPACKE interface :  Fast linear algebra routines
   SCALAPACK package :  Parallel linear algebra routines




***************************************
The coordinates will be read from file: ethanethiol_ecl.xyz
***************************************


----- Orbital basis set information -----
Your calculation utilizes the basis: cc-pVTZ 
       H, B-Ne : Obtained from the ccRepo (grant-hill.group.shef.ac.uk/ccrepo) Feb. 2017
                 T. H. Dunning, Jr., J. Chem. Phys. 90, 1007 (1989)
            He : Obtained from the ccRepo (grant-hill.group.shef.ac.uk/ccrepo) Feb. 2017
                 D. E. Woon, T. H. Dunning, Jr., J. Chem. Phys. 100, 2975 (1994)
  Li-Be, Na-Mg : Obtained from the ccRepo (grant-hill.group.shef.ac.uk/ccrepo) Feb. 2017
                 B. P. Prascher, D. E. Woon, K. A. Peterson, T. H. Dunning, Jr., A. K. Wilson, Theor. Chem. Acc. 128, 69 (2011)
         Al-Ar : Obtained from the ccRepo (grant-hill.group.shef.ac.uk/ccrepo) Feb. 2017
                 D. E. Woon, T. H. Dunning, Jr., J. Chem. Phys. 98, 1358 (1993)
            Ca : Obtained from the Peterson Research Group Website (tyr0.chem.wsu.edu/~kipeters) Feb. 2017
                 J. Koput, K. A. Peterson, J. Phys. Chem. 106, 9595 (2002)
         Sc-Zn : Obtained from the ccRepo (grant-hill.group.shef.ac.uk/ccrepo) Feb. 2017
                 N. B. Balabanov, K. A. Peterson, J. Chem. Phys. 123, 064107 (2005)
                 N. B. Balabanov, K. A. Peterson, J. Chem. Phys. 125, 074110 (2006)
         Ga-Kr : Obtained from the ccRepo (grant-hill.group.shef.ac.uk/ccrepo) Feb. 2017
                 A. K. Wilson, D. E. Woon, K. A. Peterson, T. H. Dunning, Jr., J. Chem. Phys. 110, 7667 (1999)
             Y : Obtained from the ccRepo (grant-hill.group.shef.ac.uk/ccrepo) Feb. 2017
                 K. A. Peterson, D. Figgen, M. Dolg, H. Stoll, J. Chem. Phys. 126, 124101 (2007)
        Ag, Au : Obtained from the Peterson Research Group Website (tyr0.chem.wsu.edu/~kipeters) Feb. 2017
                 K. A. Peterson, C. Puzzarini, Theor. Chem. Acc. 114, 283 (2005)

----- AuxC basis set information -----
Your calculation utilizes the auxiliary basis: cc-pVTZ/C 
  Obtained from the EMSL Basis Set Exchange (bse.pnl.gov) Feb. 2017
  H-He, B-F, Al-Ar, Ga-Kr : F. Weigend, A. Kohn, C. Hattig, J. Chem. Phys. 116, 3175 (2002)
             Li-Be, Na-Mg : C. Haettig, Phys. Chem. Chem. Phys. 7, 59 (2005)
                       Ne : C. Haettig, Phys. Chem. Chem. Phys. 7, 59 (2005)
                            F. Weigend, A. Kohn, C. Hattig, J. Chem. Phys. 116, 3175 (2002)
                    Sc-Zn : J. G. Hill, J. A. Platts, J. Chem. Phys. 128, 044104 (2008)

----- AuxJK basis set information -----
Your calculation utilizes the auxiliary basis: cc-pVTZ/JK 
  H, B-F, Al-Cl, Ga-Br : Obtained from the TURBOMOLE 7.0 basis set library

================================================================================
                                        WARNINGS
                       Please study these warnings very carefully!
================================================================================


WARNING: MDCI localization with Augmented Hessian Foster-Boys
  ===> : Switching off randomization!

WARNING: Post HF methods need fully converged wavefunctions
  ===> : Setting SCFConvForced true
         You can overwrite this default with %scf ConvForced false 


INFO   : the flag for use of LIBINT has been found!

================================================================================
                                       INPUT FILE
================================================================================
NAME = ethanethiol_ecl.inp
|  1> ! RHF DLPNO-CCSD(T) cc-pVTZ RIJK cc-pVTZ/JK cc-pVTZ/C
|  2> ! KDIIS SOSCF TightSCF TightPNO
|  3> 
|  4> %pal nprocs 8 end
|  5> 
|  6> %maxcore 8000
|  7> 
|  8> %scf maxiter 300
|  9>      shift shift 0.2 erroff 0.1 end
| 10> end
| 11> 
| 12> * xyzfile 0 1 ethanethiol_ecl.xyz 
| 13> 
| 14> 
| 15>                          ****END OF INPUT****
================================================================================

                       ****************************
                       * Single Point Calculation *
                       ****************************

---------------------------------
CARTESIAN COORDINATES (ANGSTROEM)
---------------------------------
  C     -0.564740    0.691230    0.079110
  S      1.167600   -0.080390   -0.077290
  H      1.632490   -0.987430    0.800100
  H     -0.640750    1.222050    1.056360
  H     -0.696630    1.449810   -0.726940
  C     -1.632640   -0.408650   -0.031500
  H     -1.210490   -1.428850   -0.179130
  H     -2.261640   -0.449300    0.887860
  H     -2.320330   -0.215550   -0.887270

----------------------------
CARTESIAN COORDINATES (A.U.)
----------------------------
  NO LB      ZA    FRAG     MASS         X           Y           Z
   0 C     6.0000    0    12.011   -1.067204    1.306235    0.149496
   1 S    16.0000    0    32.060    2.206444   -0.151915   -0.146057
   2 H     1.0000    0     1.008    3.084959   -1.865972    1.511970
   3 H     1.0000    0     1.008   -1.210842    2.309340    1.996231
   4 H     1.0000    0     1.008   -1.316440    2.739744   -1.373718
   5 C     6.0000    0    12.011   -3.085242   -0.772237   -0.059526
   6 H     1.0000    0     1.008   -2.287495   -2.700135   -0.338507
   7 H     1.0000    0     1.008   -4.273880   -0.849054    1.677812
   8 H     1.0000    0     1.008   -4.384788   -0.407330   -1.676697

--------------------------------
INTERNAL COORDINATES (ANGSTROEM)
--------------------------------
 C      0   0   0     0.000000000000     0.00000000     0.00000000
 S      1   0   0     1.902855816924     0.00000000     0.00000000
 H      2   1   0     1.344863370681   122.31491284     0.00000000
 H      1   2   3     1.114703976399   109.10113350    59.76387347
 H      1   2   3     1.114699596752   108.91948127   176.91469244
 C      1   2   3     1.537003902565   109.65996264   298.14097592
 H      6   1   2     1.113917985940   113.67952206     0.00000000
 H      6   1   2     1.114682121549   111.02677830   120.49099674
 H      6   1   2     1.114696119577   111.09549391   239.36511378

---------------------------
INTERNAL COORDINATES (A.U.)
---------------------------
 C      0   0   0     0.000000000000     0.00000000     0.00000000
 S      1   0   0     3.595876366325     0.00000000     0.00000000
 H      2   1   0     2.541423458130   122.31491284     0.00000000
 H      1   2   3     2.106485235787   109.10113350    59.76387347
 H      1   2   3     2.106476959455   108.91948127   176.91469244
 C      1   2   3     2.904516442616   109.65996264   298.14097592
 H      6   1   2     2.104999929075   113.67952206     0.00000000
 H      6   1   2     2.106443936105   111.02677830   120.49099674
 H      6   1   2     2.106470388545   111.09549391   239.36511378

---------------------
BASIS SET INFORMATION
---------------------
There are 3 groups of distinct atoms

 Group   1 Type C   : 18s5p2d1f contracted to 4s3p2d1f pattern {8811/311/11/1}
 Group   2 Type S   : 41s16p2d1f contracted to 5s4p2d1f pattern {13131311/7711/11/1}
 Group   3 Type H   : 5s2p1d contracted to 3s2p1d pattern {311/11/1}

Atom   0C    basis set group =>   1
Atom   1S    basis set group =>   2
Atom   2H    basis set group =>   3
Atom   3H    basis set group =>   3
Atom   4H    basis set group =>   3
Atom   5C    basis set group =>   1
Atom   6H    basis set group =>   3
Atom   7H    basis set group =>   3
Atom   8H    basis set group =>   3
-------------------------------
AUXILIARY BASIS SET INFORMATION
-------------------------------
There are 3 groups of distinct atoms

 Group   1 Type C   : 8s6p5d3f1g contracted to 8s6p5d3f1g pattern {11111111/111111/11111/111/1}
 Group   2 Type S   : 10s8p7d5f2g contracted to 10s8p7d5f2g pattern {1111111111/11111111/1111111/11111/11}
 Group   3 Type H   : 4s3p2d1f contracted to 4s3p2d1f pattern {1111/111/11/1}

Atom   0C    basis set group =>   1
Atom   1S    basis set group =>   2
Atom   2H    basis set group =>   3
Atom   3H    basis set group =>   3
Atom   4H    basis set group =>   3
Atom   5C    basis set group =>   1
Atom   6H    basis set group =>   3
Atom   7H    basis set group =>   3
Atom   8H    basis set group =>   3
-------------------------------
AUXILIARY BASIS SET INFORMATION
-------------------------------
There are 3 groups of distinct atoms

 Group   1 Type C   : 10s7p5d2f1g contracted to 10s7p5d2f1g pattern {1111111111/1111111/11111/11/1}
 Group   2 Type S   : 13s11p9d3f1g contracted to 13s11p9d3f1g pattern {1111111111111/11111111111/111111111/111/1}
 Group   3 Type H   : 4s3p2d1f contracted to 4s3p2d1f pattern {1111/111/11/1}

Atom   0C    basis set group =>   1
Atom   1S    basis set group =>   2
Atom   2H    basis set group =>   3
Atom   3H    basis set group =>   3
Atom   4H    basis set group =>   3
Atom   5C    basis set group =>   1
Atom   6H    basis set group =>   3
Atom   7H    basis set group =>   3
Atom   8H    basis set group =>   3


           ************************************************************
           *        Program running with 8 parallel MPI-processes     *
           *              working on a common directory               *
           ************************************************************
------------------------------------------------------------------------------
                           ORCA GTO INTEGRAL CALCULATION
                           -- RI-GTO INTEGRALS CHOSEN --
------------------------------------------------------------------------------

                         BASIS SET STATISTICS AND STARTUP INFO

Gaussian basis set:
 # of primitive gaussian shells          ...  160
 # of primitive gaussian functions       ...  302
 # of contracted shells                  ...   68
 # of contracted basis functions         ...  178
 Highest angular momentum                ...    3
 Maximum contraction depth               ...   13
Auxiliary gaussian basis set:
 # of primitive gaussian shells          ...  147
 # of primitive gaussian functions       ...  459
 # of contracted shells                  ...  147
 # of contracted aux-basis functions     ...  459
 Highest angular momentum                ...    4
 Maximum contraction depth               ...    1
Ratio of auxiliary to basis functions    ...  2.58
Integral package used                  ... LIBINT
 One Electron integrals                  ... done
 Ordering auxiliary basis shells         ... done
 Integral threshhold             Thresh  ...  2.500e-11
 Primitive cut-off               TCut    ...  2.500e-12
 Pre-screening matrix                    ... done
 Shell pair data                         ... 
 Ordering of the shell pairs             ... done (   0.000 sec) 2327 of 2346 pairs
 Determination of significant pairs      ... done (   0.000 sec)
 Creation of shell pair data             ... done (   0.001 sec)
 Storage of shell pair data              ... done (   0.002 sec)
 Shell pair data done in (   0.004 sec)
 Computing two index integrals           ... done
 Cholesky decomposition of the V-matrix  ... done


Timings:
 Total evaluation time                   ...   0.383 sec (  0.006 min)
 One electron matrix time                ...   0.025 sec (  0.000 min) =  6.5%
 Schwartz matrix evaluation time         ...   0.250 sec (  0.004 min) = 65.2%
 Two index repulsion integral time       ...   0.042 sec (  0.001 min) = 10.9%
 Cholesky decomposition of V             ...   0.037 sec (  0.001 min) =  9.5%
 Three index repulsion integral time     ...   0.000 sec (  0.000 min) =  0.0%



           ************************************************************
           *        Program running with 8 parallel MPI-processes     *
           *              working on a common directory               *
           ************************************************************
-------------------------------------------------------------------------------
                                 ORCA SCF
-------------------------------------------------------------------------------

------------
SCF SETTINGS
------------
Hamiltonian:
 Ab initio Hamiltonian  Method          .... Hartree-Fock(GTOs)
 RI-approximation to the Coulomb term is turned on
   Number of auxiliary basis functions  .... 459
   RI-JK (J+K treated both via RI)      .... on


General Settings:
 Integral files         IntName         .... ethanethiol_ecl
 Hartree-Fock type      HFTyp           .... RHF
 Total Charge           Charge          ....    0
 Multiplicity           Mult            ....    1
 Number of Electrons    NEL             ....   34
 Basis Dimension        Dim             ....  178
 Nuclear Repulsion      ENuc            ....    104.5766174203 Eh

Convergence Acceleration:
 DIIS                   CNVDIIS         .... off
 Newton-Raphson         CNVNR           .... off
 SOSCF                  CNVSOSCF        .... on
   Start iteration      SOSCFMaxIt      ....   150
   Startup grad/error   SOSCFStart      ....  0.003300
 Level Shifting         CNVShift        .... on
   Level shift para.    LevelShift      ....    0.2000
   Turn off err/grad.   ShiftErr        ....    0.1000
 Zerner damping         CNVZerner       .... off
 Static damping         CNVDamp         .... off
 Fernandez-Rico         CNVRico         .... off

SCF Procedure:
 Maximum # iterations   MaxIter         ....   300
 SCF integral mode      SCFMode         .... Direct
   Integral package                     .... LIBINT
 Reset frequency        DirectResetFreq ....    20
 Integral Threshold     Thresh          ....  2.500e-11 Eh
 Primitive CutOff       TCut            ....  2.500e-12 Eh

Convergence Tolerance:
 Convergence Check Mode ConvCheckMode   .... Total+1el-Energy
 Convergence forced     ConvForced      .... 1
 Energy Change          TolE            ....  1.000e-08 Eh
 1-El. energy change                    ....  1.000e-05 Eh
 Orbital Gradient       TolG            ....  1.000e-05
 Orbital Rotation angle TolX            ....  1.000e-05


Diagonalization of the overlap matrix:
Smallest eigenvalue                        ... 9.106e-04
Time for diagonalization                   ...    0.008 sec
Threshold for overlap eigenvalues          ... 1.000e-08
Number of eigenvalues below threshold      ... 0
Time for construction of square roots      ...    0.006 sec
Total time needed                          ...    0.015 sec

-------------------
DFT GRID GENERATION
-------------------

General Integration Accuracy     IntAcc      ...  4.340
Radial Grid Type                 RadialGrid  ... Gauss-Chebyshev
Angular Grid (max. acc.)         AngularGrid ... Lebedev-110
Angular grid pruning method      GridPruning ... 3 (G Style)
Weight generation scheme         WeightScheme... Becke
Basis function cutoff            BFCut       ...    1.0000e-11
Integration weight cutoff        WCut        ...    1.0000e-14
Grids for H and He will be reduced by one unit

# of grid points (after initial pruning)     ...   9882 (   0.0 sec)
# of grid points (after weights+screening)   ...   9467 (   0.0 sec)
nearest neighbour list constructed           ...    0.0 sec
Grid point re-assignment to atoms done       ...    0.0 sec
Grid point division into batches done        ...    0.0 sec
Reduced shell lists constructed in    0.0 sec

Total number of grid points                  ...     9467
Total number of batches                      ...      152
Average number of points per batch           ...       62
Average number of grid points per atom       ...     1052
Average number of shells per batch           ...    57.05 (83.90%)
Average number of basis functions per batch  ...   148.05 (83.17%)
Average number of large shells per batch     ...    50.30 (88.17%)
Average number of large basis fcns per batch ...   130.10 (87.88%)
Average number of aux-shells per batch       ...    57.05 (38.81%)
Average number of aux functions per batch    ...   148.05 (32.25%)
Maximum spatial batch extension              ...  18.28, 18.54, 16.87 au
Average spatial batch extension              ...   0.45,  0.46,  0.43 au

Time for grid setup =    0.048 sec

------------------------------
INITIAL GUESS: MODEL POTENTIAL
------------------------------
Loading Hartree-Fock densities                     ... done
Calculating cut-offs                               ... done
Setting up the integral package                    ... done
Initializing the effective Hamiltonian             ... done
Starting the Coulomb interaction                   ... done (   0.0 sec)
Reading the grid                                   ... done
Mapping shells                                     ... done
Starting the XC term evaluation                    ... done (   0.0 sec)
Transforming the Hamiltonian                       ... done (   0.0 sec)
Diagonalizing the Hamiltonian                      ... done (   0.0 sec)
Back transforming the eigenvectors                 ... done (   0.0 sec)
Now organizing SCF variables                       ... done
                      ------------------
                      INITIAL GUESS DONE (   0.2 sec)
                      ------------------
--------------
SCF ITERATIONS
--------------
ITER       Energy         Delta-E        Max-DP      RMS-DP      [F,P]   Gradient Norm
                             ****Turning on KDIIS(Cayley)****
  0   -476.6183592484   0.000000000000 0.01714529  0.00032680  0.0891119   0.125387585
  1   -476.6602814350  -0.041922186620 0.03151474  0.00043065  0.0813697   0.109551000
  2   -476.6971639256  -0.036882490609 0.05166192  0.00071324  0.0653033   0.088714917
  3   -476.7424502855  -0.045286359857 0.07837662  0.00114180  0.0393394   0.054325926
                      *** Initiating the SOSCF procedure ***
                           *** Shutting down KDIIS ***
                      *** Re-Reading the Fockian *** 
                      *** Removing any level shift *** 
ITER      Energy       Delta-E        Grad      Rot      Max-DP    RMS-DP
  4   -476.77153094  -0.0290806589  0.002052  0.002052  0.001731  0.000058
  5   -476.77162619  -0.0000952423  0.000566  0.000671  0.000949  0.000032
  6   -476.77163504  -0.0000088551  0.000231  0.000260  0.000444  0.000015
  7   -476.77163757  -0.0000025233  0.000042  0.000081  0.000115  0.000005
  8   -476.77163766  -0.0000000905  0.000018  0.000023  0.000062  0.000002
  9   -476.77163766  -0.0000000092  0.000006  0.000006  0.000012  0.000000
                  ***Gradient check signals convergence***
              ***Rediagonalizing the Fockian in SOSCF/NRSCF***

               *****************************************************
               *                     SUCCESS                       *
               *           SCF CONVERGED AFTER  10 CYCLES          *
               *****************************************************


----------------
TOTAL SCF ENERGY
----------------

Total Energy       :         -476.77163767 Eh          -12973.61583 eV

Components:
Nuclear Repulsion  :          104.57661742 Eh            2845.67443 eV
Electronic Energy  :         -581.34825509 Eh          -15819.29026 eV
One Electron Energy:         -863.41955007 Eh          -23494.84041 eV
Two Electron Energy:          282.07129498 Eh            7675.55015 eV

Virial components:
Potential Energy   :         -953.17498834 Eh          -25937.21006 eV
Kinetic Energy     :          476.40335068 Eh           12963.59423 eV
Virial Ratio       :            2.00077306


---------------
SCF CONVERGENCE
---------------

  Last Energy change         ...   -1.7868e-09  Tolerance :   1.0000e-08
  Last MAX-Density change    ...    5.2234e-06  Tolerance :   1.0000e-07
  Last RMS-Density change    ...    1.4781e-07  Tolerance :   5.0000e-09
  Last Orbital Gradient      ...    1.2371e-06  Tolerance :   1.0000e-05
  Last Orbital Rotation      ...    2.1712e-06  Tolerance :   1.0000e-05

             **** THE GBW FILE WAS UPDATED (ethanethiol_ecl.gbw) ****
             **** DENSITY FILE WAS UPDATED (ethanethiol_ecl.scfp.tmp) ****
             **** ENERGY FILE WAS UPDATED (ethanethiol_ecl.en.tmp) ****
----------------
ORBITAL ENERGIES
----------------

  NO   OCC          E(Eh)            E(eV) 
   0   2.0000     -91.941286     -2501.8496 
   1   2.0000     -11.287086      -307.1372 
   2   2.0000     -11.234771      -305.7137 
   3   2.0000      -8.943169      -243.3560 
   4   2.0000      -6.624592      -180.2643 
   5   2.0000      -6.623716      -180.2405 
   6   2.0000      -6.622831      -180.2164 
   7   2.0000      -1.054040       -28.6819 
   8   2.0000      -0.930350       -25.3161 
   9   2.0000      -0.826185       -22.4816 
  10   2.0000      -0.626652       -17.0521 
  11   2.0000      -0.595539       -16.2055 
  12   2.0000      -0.550434       -14.9781 
  13   2.0000      -0.519985       -14.1495 
  14   2.0000      -0.503811       -13.7094 
  15   2.0000      -0.403348       -10.9757 
  16   2.0000      -0.350706        -9.5432 
  17   0.0000       0.126820         3.4510 
  18   0.0000       0.136720         3.7203 
  19   0.0000       0.172964         4.7066 
  20   0.0000       0.177631         4.8336 
  21   0.0000       0.190235         5.1766 
  22   0.0000       0.249751         6.7961 
  23   0.0000       0.258281         7.0282 
  24   0.0000       0.312336         8.4991 
  25   0.0000       0.319244         8.6871 
  26   0.0000       0.364042         9.9061 
  27   0.0000       0.376168        10.2360 
  28   0.0000       0.398891        10.8544 
  29   0.0000       0.437778        11.9125 
  30   0.0000       0.458844        12.4858 
  31   0.0000       0.465765        12.6741 
  32   0.0000       0.507960        13.8223 
  33   0.0000       0.522877        14.2282 
  34   0.0000       0.551379        15.0038 
  35   0.0000       0.560899        15.2628 
  36   0.0000       0.581829        15.8324 
  37   0.0000       0.600992        16.3538 
  38   0.0000       0.614165        16.7123 
  39   0.0000       0.626590        17.0504 
  40   0.0000       0.635861        17.3027 
  41   0.0000       0.645975        17.5779 
  42   0.0000       0.664084        18.0706 
  43   0.0000       0.675014        18.3681 
  44   0.0000       0.752209        20.4687 
  45   0.0000       0.782762        21.3000 
  46   0.0000       0.887668        24.1547 
  47   0.0000       0.914361        24.8810 
  48   0.0000       0.973866        26.5002 
  49   0.0000       1.009583        27.4722 
  50   0.0000       1.037140        28.2220 
  51   0.0000       1.040421        28.3113 
  52   0.0000       1.058268        28.7969 
  53   0.0000       1.087371        29.5889 
  54   0.0000       1.138309        30.9750 
  55   0.0000       1.162780        31.6409 
  56   0.0000       1.183648        32.2087 
  57   0.0000       1.224963        33.3329 
  58   0.0000       1.238591        33.7038 
  59   0.0000       1.242491        33.8099 
  60   0.0000       1.249790        34.0085 
  61   0.0000       1.276637        34.7391 
  62   0.0000       1.317211        35.8431 
  63   0.0000       1.381297        37.5870 
  64   0.0000       1.426278        38.8110 
  65   0.0000       1.463990        39.8372 
  66   0.0000       1.470730        40.0206 
  67   0.0000       1.474733        40.1295 
  68   0.0000       1.496360        40.7180 
  69   0.0000       1.519258        41.3411 
  70   0.0000       1.548396        42.1340 
  71   0.0000       1.568355        42.6771 
  72   0.0000       1.661392        45.2088 
  73   0.0000       1.701660        46.3045 
  74   0.0000       1.732070        47.1320 
  75   0.0000       1.758173        47.8423 
  76   0.0000       1.883750        51.2594 
  77   0.0000       1.911128        52.0044 
  78   0.0000       1.935909        52.6788 
  79   0.0000       1.964694        53.4620 
  80   0.0000       2.015246        54.8376 
  81   0.0000       2.027944        55.1832 
  82   0.0000       2.086636        56.7803 
  83   0.0000       2.148825        58.4725 
  84   0.0000       2.204272        59.9813 
  85   0.0000       2.226066        60.5743 
  86   0.0000       2.245949        61.1154 
  87   0.0000       2.259125        61.4739 
  88   0.0000       2.347133        63.8687 
  89   0.0000       2.429573        66.1120 
  90   0.0000       2.500226        68.0346 
  91   0.0000       2.582847        70.2828 
  92   0.0000       2.591047        70.5060 
  93   0.0000       2.681405        72.9648 
  94   0.0000       2.716443        73.9182 
  95   0.0000       2.770623        75.3925 
  96   0.0000       2.827623        76.9435 
  97   0.0000       2.842334        77.3438 
  98   0.0000       2.864838        77.9562 
  99   0.0000       2.915683        79.3398 
 100   0.0000       2.943882        80.1071 
 101   0.0000       3.076169        83.7068 
 102   0.0000       3.082307        83.8738 
 103   0.0000       3.099770        84.3490 
 104   0.0000       3.150379        85.7262 
 105   0.0000       3.177893        86.4749 
 106   0.0000       3.200447        87.0886 
 107   0.0000       3.227346        87.8206 
 108   0.0000       3.292042        89.5810 
 109   0.0000       3.295074        89.6635 
 110   0.0000       3.341869        90.9369 
 111   0.0000       3.384627        92.1004 
 112   0.0000       3.395888        92.4068 
 113   0.0000       3.399186        92.4965 
 114   0.0000       3.469269        94.4036 
 115   0.0000       3.530630        96.0733 
 116   0.0000       3.577898        97.3595 
 117   0.0000       3.615425        98.3807 
 118   0.0000       3.624902        98.6386 
 119   0.0000       3.631161        98.8089 
 120   0.0000       3.671629        99.9101 
 121   0.0000       3.675769       100.0228 
 122   0.0000       3.728239       101.4505 
 123   0.0000       3.756667       102.2241 
 124   0.0000       3.778100       102.8073 
 125   0.0000       3.792960       103.2117 
 126   0.0000       3.831697       104.2658 
 127   0.0000       3.851481       104.8041 
 128   0.0000       3.860983       105.0627 
 129   0.0000       3.897023       106.0434 
 130   0.0000       3.917293       106.5950 
 131   0.0000       3.970379       108.0395 
 132   0.0000       4.055691       110.3610 
 133   0.0000       4.076160       110.9180 
 134   0.0000       4.095639       111.4480 
 135   0.0000       4.125048       112.2483 
 136   0.0000       4.198107       114.2363 
 137   0.0000       4.204809       114.4187 
 138   0.0000       4.207648       114.4959 
 139   0.0000       4.254507       115.7710 
 140   0.0000       4.279276       116.4450 
 141   0.0000       4.298867       116.9781 
 142   0.0000       4.322350       117.6171 
 143   0.0000       4.366440       118.8169 
 144   0.0000       4.392618       119.5292 
 145   0.0000       4.397918       119.6734 
 146   0.0000       4.416819       120.1878 
 147   0.0000       4.453669       121.1905 
 148   0.0000       4.470235       121.6413 
 149   0.0000       4.502360       122.5154 
 150   0.0000       4.532550       123.3370 
 151   0.0000       4.592348       124.9642 
 152   0.0000       4.700564       127.9088 
 153   0.0000       4.754413       129.3742 
 154   0.0000       4.764880       129.6590 
 155   0.0000       4.854444       132.0961 
 156   0.0000       4.961261       135.0028 
 157   0.0000       4.967807       135.1809 
 158   0.0000       5.082281       138.2959 
 159   0.0000       5.149966       140.1377 
 160   0.0000       5.231218       142.3487 
 161   0.0000       5.247850       142.8013 
 162   0.0000       5.302200       144.2802 
 163   0.0000       5.310514       144.5064 
 164   0.0000       5.378380       146.3532 
 165   0.0000       5.462568       148.6440 
 166   0.0000       5.536001       150.6422 
 167   0.0000       5.580239       151.8460 
 168   0.0000       5.625161       153.0684 
 169   0.0000       5.685684       154.7153 
 170   0.0000       5.716990       155.5672 
 171   0.0000       5.879615       159.9925 
 172   0.0000       5.975378       162.5983 
 173   0.0000       6.161278       167.6569 
 174   0.0000       6.224063       169.3654 
 175   0.0000       6.301830       171.4815 
 176   0.0000      11.308680       307.7248 
 177   0.0000      13.613574       370.4442 

                    ********************************
                    * MULLIKEN POPULATION ANALYSIS *
                    ********************************

-----------------------
MULLIKEN ATOMIC CHARGES
-----------------------
   0 C :   -0.117444
   1 S :   -0.256876
   2 H :    0.106873
   3 H :    0.115467
   4 H :    0.123514
   5 C :   -0.253331
   6 H :    0.107213
   7 H :    0.087450
   8 H :    0.087133
Sum of atomic charges:    0.0000000

--------------------------------
MULLIKEN REDUCED ORBITAL CHARGES
--------------------------------
  0 C s       :     3.228173  s :     3.228173
      pz      :     1.026497  p :     2.772401
      px      :     0.787474
      py      :     0.958430
      dz2     :     0.018784  d :     0.111372
      dxz     :     0.011923
      dyz     :     0.028319
      dx2y2   :     0.026646
      dxy     :     0.025701
      f0      :     0.000495  f :     0.005498
      f+1     :     0.000571
      f-1     :     0.001319
      f+2     :     0.000143
      f-2     :     0.000570
      f+3     :     0.001042
      f-3     :     0.001358
  1 S s       :     5.794854  s :     5.794854
      pz      :     3.541713  p :    10.351012
      px      :     3.281089
      py      :     3.528210
      dz2     :     0.010542  d :     0.101046
      dxz     :     0.013739
      dyz     :     0.032519
      dx2y2   :     0.023914
      dxy     :     0.020333
      f0      :     0.000718  f :     0.009963
      f+1     :     0.001053
      f-1     :     0.001426
      f+2     :     0.001166
      f-2     :     0.001728
      f+3     :     0.001610
      f-3     :     0.002262
  2 H s       :     0.845317  s :     0.845317
      pz      :     0.015092  p :     0.045884
      px      :     0.011269
      py      :     0.019523
      dz2     :     0.000447  d :     0.001926
      dxz     :     0.000314
      dyz     :     0.000471
      dx2y2   :     0.000379
      dxy     :     0.000314
  3 H s       :     0.850030  s :     0.850030
      pz      :     0.012021  p :     0.032143
      px      :     0.008949
      py      :     0.011174
      dz2     :     0.000656  d :     0.002360
      dxz     :     0.000503
      dyz     :     0.000770
      dx2y2   :     0.000144
      dxy     :     0.000287
  4 H s       :     0.842557  s :     0.842557
      pz      :     0.009198  p :     0.031559
      px      :     0.008136
      py      :     0.014225
      dz2     :     0.000553  d :     0.002369
      dxz     :     0.000327
      dyz     :     0.000692
      dx2y2   :     0.000345
      dxy     :     0.000453
  5 C s       :     3.258891  s :     3.258891
      pz      :     1.002261  p :     2.909515
      px      :     0.947612
      py      :     0.959642
      dz2     :     0.012640  d :     0.080132
      dxz     :     0.023816
      dyz     :     0.007150
      dx2y2   :     0.018669
      dxy     :     0.017859
      f0      :     0.000276  f :     0.004793
      f+1     :     0.001462
      f-1     :     0.000401
      f+2     :     0.000159
      f-2     :     0.000521
      f+3     :     0.001233
      f-3     :     0.000742
  6 H s       :     0.862936  s :     0.862936
      pz      :     0.007959  p :     0.027660
      px      :     0.007176
      py      :     0.012525
      dz2     :     0.000237  d :     0.002190
      dxz     :     0.000130
      dyz     :     0.000458
      dx2y2   :     0.000730
      dxy     :     0.000636
  7 H s       :     0.882955  s :     0.882955
      pz      :     0.008978  p :     0.027456
      px      :     0.010524
      py      :     0.007954
      dz2     :     0.000586  d :     0.002140
      dxz     :     0.000653
      dyz     :     0.000403
      dx2y2   :     0.000179
      dxy     :     0.000318
  8 H s       :     0.883264  s :     0.883264
      pz      :     0.009424  p :     0.027463
      px      :     0.010845
      py      :     0.007194
      dz2     :     0.000564  d :     0.002139
      dxz     :     0.000656
      dyz     :     0.000327
      dx2y2   :     0.000265
      dxy     :     0.000327


                     *******************************
                     * LOEWDIN POPULATION ANALYSIS *
                     *******************************

----------------------
LOEWDIN ATOMIC CHARGES
----------------------
   0 C :   -0.066138
   1 S :    0.286372
   2 H :   -0.163464
   3 H :   -0.032919
   4 H :   -0.018276
   5 C :    0.066803
   6 H :   -0.024087
   7 H :   -0.024737
   8 H :   -0.023555

-------------------------------
LOEWDIN REDUCED ORBITAL CHARGES
-------------------------------
  0 C s       :     2.732126  s :     2.732126
      pz      :     1.027359  p :     2.893967
      px      :     0.891356
      py      :     0.975252
      dz2     :     0.061494  d :     0.405890
      dxz     :     0.047053
      dyz     :     0.098679
      dx2y2   :     0.101133
      dxy     :     0.097531
      f0      :     0.003070  f :     0.034155
      f+1     :     0.004246
      f-1     :     0.004295
      f+2     :     0.003711
      f-2     :     0.004846
      f+3     :     0.006388
      f-3     :     0.007598
  1 S s       :     5.366867  s :     5.366867
      pz      :     3.497684  p :    10.152607
      px      :     3.206729
      py      :     3.448194
      dz2     :     0.016360  d :     0.174539
      dxz     :     0.028323
      dyz     :     0.046773
      dx2y2   :     0.037886
      dxy     :     0.045197
      f0      :     0.001606  f :     0.019615
      f+1     :     0.002260
      f-1     :     0.002018
      f+2     :     0.002590
      f-2     :     0.003300
      f+3     :     0.004061
      f-3     :     0.003779
  2 H s       :     0.918630  s :     0.918630
      pz      :     0.087025  p :     0.220425
      px      :     0.043805
      py      :     0.089595
      dz2     :     0.005726  d :     0.024409
      dxz     :     0.003883
      dyz     :     0.006415
      dx2y2   :     0.005193
      dxy     :     0.003192
  3 H s       :     0.853852  s :     0.853852
      pz      :     0.069833  p :     0.152962
      px      :     0.035856
      py      :     0.047273
      dz2     :     0.008701  d :     0.026105
      dxz     :     0.005300
      dyz     :     0.008179
      dx2y2   :     0.001746
      dxy     :     0.002179
  4 H s       :     0.843189  s :     0.843189
      pz      :     0.059376  p :     0.148814
      px      :     0.032341
      py      :     0.057097
      dz2     :     0.007495  d :     0.026273
      dxz     :     0.003640
      dyz     :     0.007404
      dx2y2   :     0.003801
      dxy     :     0.003933
  5 C s       :     2.682590  s :     2.682590
      pz      :     0.986777  p :     2.911683
      px      :     0.965397
      py      :     0.959510
      dz2     :     0.048179  d :     0.309909
      dxz     :     0.092128
      dyz     :     0.027379
      dx2y2   :     0.072715
      dxy     :     0.069508
      f0      :     0.002202  f :     0.029014
      f+1     :     0.005202
      f-1     :     0.004063
      f+2     :     0.004152
      f-2     :     0.003572
      f+3     :     0.005699
      f-3     :     0.004125
  6 H s       :     0.851097  s :     0.851097
      pz      :     0.039849  p :     0.146721
      px      :     0.039808
      py      :     0.067063
      dz2     :     0.002426  d :     0.026269
      dxz     :     0.001845
      dyz     :     0.006956
      dx2y2   :     0.007913
      dxy     :     0.007129
  7 H s       :     0.851885  s :     0.851885
      pz      :     0.060281  p :     0.147046
      px      :     0.049677
      py      :     0.037088
      dz2     :     0.007867  d :     0.025806
      dxz     :     0.007194
      dyz     :     0.005424
      dx2y2   :     0.002214
      dxy     :     0.003107
  8 H s       :     0.850980  s :     0.850980
      pz      :     0.057965  p :     0.146790
      px      :     0.051859
      py      :     0.036966
      dz2     :     0.007846  d :     0.025785
      dxz     :     0.006794
      dyz     :     0.004407
      dx2y2   :     0.002943
      dxy     :     0.003795


                      *****************************
                      * MAYER POPULATION ANALYSIS *
                      *****************************

  NA   - Mulliken gross atomic population
  ZA   - Total nuclear charge
  QA   - Mulliken gross atomic charge
  VA   - Mayer's total valence
  BVA  - Mayer's bonded valence
  FA   - Mayer's free valence

  ATOM       NA         ZA         QA         VA         BVA        FA
  0 C      6.1174     6.0000    -0.1174     3.8306     3.8306    -0.0000
  1 S     16.2569    16.0000    -0.2569     1.9697     1.9697    -0.0000
  2 H      0.8931     1.0000     0.1069     1.0113     1.0113    -0.0000
  3 H      0.8845     1.0000     0.1155     0.9782     0.9782     0.0000
  4 H      0.8765     1.0000     0.1235     0.9816     0.9816    -0.0000
  5 C      6.2533     6.0000    -0.2533     3.8337     3.8337     0.0000
  6 H      0.8928     1.0000     0.1072     0.9827     0.9827     0.0000
  7 H      0.9126     1.0000     0.0874     0.9812     0.9812     0.0000
  8 H      0.9129     1.0000     0.0871     0.9828     0.9828     0.0000

  Mayer bond orders larger than 0.1
B(  0-C ,  1-S ) :   0.9594 B(  0-C ,  3-H ) :   0.9818 B(  0-C ,  4-H ) :   0.9750 
B(  0-C ,  5-C ) :   0.9150 B(  1-S ,  2-H ) :   0.9944 B(  5-C ,  6-H ) :   0.9776 
B(  5-C ,  7-H ) :   0.9832 B(  5-C ,  8-H ) :   0.9825 

-------
TIMINGS
-------

Total SCF time: 0 days 0 hours 0 min 3 sec 

Total time                  ....       3.738 sec
Sum of individual times     ....       3.559 sec  ( 95.2%)

Fock matrix formation       ....       3.307 sec  ( 88.5%)
Diagonalization             ....       0.021 sec  (  0.6%)
Density matrix formation    ....       0.004 sec  (  0.1%)
Population analysis         ....       0.009 sec  (  0.2%)
Initial guess               ....       0.151 sec  (  4.0%)
Orbital Transformation      ....       0.000 sec  (  0.0%)
Orbital Orthonormalization  ....       0.000 sec  (  0.0%)
DIIS solution               ....       0.000 sec  (  0.0%)
SOSCF solution              ....       0.021 sec  (  0.6%)


           ************************************************************
           *        Program running with 8 parallel MPI-processes     *
           *              working on a common directory               *
           ************************************************************


------------------------------------------------------------------------------- 
                              ORCA-MATRIX DRIVEN CI                            
------------------------------------------------------------------------------- 


Wavefunction type
-----------------
Correlation treatment                      ...      CCSD     
Single excitations                         ... ON
Orbital optimization                       ... OFF
Calculation of Z vector                    ... OFF
Calculation of Brueckner orbitals          ... OFF
Perturbative triple excitations            ... ON
Calculation of F12 correction              ... OFF
Frozen core treatment                      ... chemical core (14 el)
Reference Wavefunction                     ... RHF
  Internal Orbitals:     7 ...   16 ( 10 MO's/ 20 electrons)
  Virtual  Orbitals:    17 ...  177 (161 MO's              )
Number of AO's                             ...    178
Number of electrons                        ...     34
Number of correlated electrons             ...     20

Algorithmic settings
--------------------
Integral transformation                    ... All integrals via the RI transformation
K(C) Formation                             ... RI-DLPNO
   PNO-Integral Storage                    ... ON DISK
   PNO occupation number cut-off           ... 1.000e-07
   Singles PNO occupation number cut-off   ... 3.000e-09
   PNO Mulliken prescreening cut-off       ... 1.000e-03
   Domain cut-off (Mulliken population)    ... 1.000e-03
   PNO Normalization                       ...    1
Maximum number of iterations               ...        50
Convergence tolerance (max. residuum)      ... 1.000e-05
Level shift for amplitude update           ... 2.000e-01
Maximum number of DIIS vectors             ...         7
DIIS turned on at iteration                ...         0
Damping before turning on DIIS             ...     0.500
Damping after turning on DIIS              ...     0.000
Pair specific amplitude update             ... OFF
Natural orbital iterations                 ... OFF
Perturbative natural orbital generation    ... OFF
Printlevel                                 ... 2

Singles Fock matrix elements calculated using PNOs.

Memory handling:
----------------
Maximum memory for working arrays          ...   8000 MB
Data storage in matrix containers          ... UNCOMPRESSED
Data type for integral storage             ... DOUBLE
In-Core Storage of quantities:
   Amplitudes+Sigma Vector      ... NO
   J+K operators                ... NO
   DIIS vectors                 ... NO
   3-external integrals         ... NO
   4-external integrals         ... NO

Localization treatment:
-----------------------
Localization option                        ...    6
Localization threshhold                    ... -1.0e+00
Using relative localization threshhold     ... 1.0e-08
Neglect threshold for strong pairs         ... 1.000e-05 Eh
Prescreening threshold for very weak pairs ... 1.000e-07 Eh

Initializing the integral package          ... done
Localizing the valence orbitals
------------------------------------------------------------------------------
                           ORCA ORBITAL LOCALIZATION
------------------------------------------------------------------------------

Input orbitals are from                  ... ethanethiol_ecl.proc0.gbw
Output orbitals are to                   ... ethanethiol_ecl.proc0.loc
Max. number of iterations                ... 128
Localizations seeded randomly            ... off
Convergence tolerance                    ... 1.000e-06
Using relative localization threshhold   ... 1.000e-08
Treshold for strong local MOs            ... 9.500e-01
Treshold for bond MOs                    ... 8.500e-01
Operator                                 ... 0
Orbital range for localization           ... 7 to 16
Localization criterion                   ... FOSTER-BOYS (AUGMENTED HESSIAN)
Doing the dipole integrals     ... o.k.
Initial value of the localization sum :    63.240429
ITERATION   0 : L=   85.6342644430 DL=  2.24e+01 (AVERGE_DL)=    0.7054365870 
ITERATION   1 : L=   88.2242759668 DL=  2.59e+00 (AVERGE_DL)=    0.2399079233 
ITERATION   2 : L=   88.2502661876 DL=  2.60e-02 (AVERGE_DL)=    0.0240324876 
ITERATION   3 : L=   88.2503089992 DL=  4.28e-05 (AVERGE_DL)=    0.0009753811 
ITERATION   4 : L=   88.2503092081 DL=  2.09e-07 (AVERGE_DL)=    0.0000681356 
LOCALIZATION SUM CONVERGED

------------------------------------------------------
AUGMENTED HESSIAN OPTIMIZATION OF FOSTER-BOYS ORBITALS
------------------------------------------------------

Spin operator:           0
Orbital window:          7 to 16
Number of iterations:    128
Gradient tolerance:      1.000e-06
Number of pairs:         45
Davidson threshold:      2000
Diagonalization method:  LAPACK
Iter:    0   L: 88.2503092081   Grad. norm: 3.841836e-04
   *** Likely close to a maximum now. ***
       Augmented Hessian eigenvalues:  2.87e-09 -5.88e+00 -1.36e+01 -1.69e+01 ... 
Iter:    1   L: 88.2503092095   Grad. norm: 6.850532e-10
LOCALIZATION HAS CONVERGED.

Eigenvalues of the Hessian:
  0 -5.879e+00
  1 -1.355e+01
  2 -1.689e+01
  3 -1.701e+01
  4 -1.784e+01
  5 -1.872e+01
  6 -1.894e+01
  7 -1.917e+01
  8 -2.100e+01
  9 -2.185e+01
    ...


------------------------------------------------------------------------------- 
                    LOCALIZED MOLECULAR ORBITAL COMPOSITIONS                   
------------------------------------------------------------------------------- 

The Mulliken populations for each LMO on each atom are computed
The LMO`s will be ordered according to atom index and type
  (A) Strongly localized MO`s have populations of >=0.950 on one atom
  (B) Two center bond orbitals have populations of >=0.850 on two atoms
  (C) Other MO`s are considered to be `delocalized`

FOUND  -   2 strongly local MO`s
       -   8 two center bond MO`s
       -   0 significantly delocalized MO`s

Rather strongly localized orbitals:
MO   8:   1S  -   1.007046
MO   7:   1S  -   1.007197
Bond-like localized orbitals:
MO  16:   8H  -   0.475826  and   5C  -   0.550637
MO  15:   7H  -   0.476614  and   5C  -   0.550993
MO  14:   6H  -   0.463497  and   5C  -   0.563983
MO  13:   5C  -   0.503013  and   0C  -   0.525736
MO  12:   4H  -   0.452752  and   0C  -   0.568962
MO  11:   3H  -   0.458676  and   0C  -   0.569994
MO  10:   2H  -   0.450747  and   1S  -   0.553323
MO   9:   1S  -   0.579917  and   0C  -   0.440644
Localized MO's were stored in: ethanethiol_ecl.proc0.loc

Localizing the core orbitals
------------------------------------------------------------------------------
                           ORCA ORBITAL LOCALIZATION
------------------------------------------------------------------------------

Input orbitals are from                  ... ethanethiol_ecl.proc0.loc
Output orbitals are to                   ... ethanethiol_ecl.proc0.loc
Max. number of iterations                ... 128
Localizations seeded randomly            ... off
Convergence tolerance                    ... 1.000e-06
Using relative localization threshhold   ... 1.000e-08
Treshold for strong local MOs            ... 9.500e-01
Treshold for bond MOs                    ... 8.500e-01
Operator                                 ... 0
Orbital range for localization           ... 0 to 6
Localization criterion                   ... FOSTER-BOYS (AUGMENTED HESSIAN)
Doing the dipole integrals     ... o.k.
Initial value of the localization sum :    37.546387
ITERATION   0 : L=   37.6989411257 DL=  1.53e-01 (AVERGE_DL)=    0.0852320336 
ITERATION   1 : L=   37.7518709359 DL=  5.29e-02 (AVERGE_DL)=    0.0502042543 
ITERATION   2 : L=   37.7530497768 DL=  1.18e-03 (AVERGE_DL)=    0.0074923482 
ITERATION   3 : L=   37.7530949495 DL=  4.52e-05 (AVERGE_DL)=    0.0014666571 
ITERATION   4 : L=   37.7530972225 DL=  2.27e-06 (AVERGE_DL)=    0.0003289927 
ITERATION   5 : L=   37.7530973962 DL=  1.74e-07 (AVERGE_DL)=    0.0000909496 
LOCALIZATION SUM CONVERGED

------------------------------------------------------
AUGMENTED HESSIAN OPTIMIZATION OF FOSTER-BOYS ORBITALS
------------------------------------------------------

Spin operator:           0
Orbital window:          0 to 6
Number of iterations:    128
Gradient tolerance:      1.000e-06
Number of pairs:         21
Davidson threshold:      2000
Diagonalization method:  LAPACK
Iter:    0   L: 37.7530973962   Grad. norm: 2.354603e-04
   *** Detected a saddle point. ***
       Augmented Hessian eigenvalues:  5.10e-05  2.95e-05 -9.09e-05 -1.24e-04 ... 
Iter:    1   L: 37.7531065394   Grad. norm: 1.834654e-04
Iter:    2   L: 37.7531139954   Grad. norm: 1.179005e-04
Iter:    3   L: 37.7531183057   Grad. norm: 5.495044e-05
Iter:    4   L: 37.7531190661   Grad. norm: 1.211395e-05
   *** Likely close to a maximum now. ***
       Augmented Hessian eigenvalues:  5.32e-10 -1.80e-05 -1.71e-04 -2.07e-04 ... 
Iter:    5   L: 37.7531190663   Grad. norm: 1.272832e-09
LOCALIZATION HAS CONVERGED.

Eigenvalues of the Hessian:
  0 -1.799e-05
  1 -1.705e-04
  2 -2.072e-04
  3 -1.372e-01
  4 -1.378e-01
  5 -1.384e-01
  6 -4.134e-01
  7 -5.497e-01
  8 -5.513e-01
  9 -5.530e-01
    ...


------------------------------------------------------------------------------- 
                    LOCALIZED MOLECULAR ORBITAL COMPOSITIONS                   
------------------------------------------------------------------------------- 

The Mulliken populations for each LMO on each atom are computed
The LMO`s will be ordered according to atom index and type
  (A) Strongly localized MO`s have populations of >=0.950 on one atom
  (B) Two center bond orbitals have populations of >=0.850 on two atoms
  (C) Other MO`s are considered to be `delocalized`

FOUND  -   7 strongly local MO`s
       -   0 two center bond MO`s
       -   0 significantly delocalized MO`s

Rather strongly localized orbitals:
MO   6:   5C  -   1.000903
MO   5:   1S  -   0.999852
MO   4:   1S  -   1.000089
MO   3:   1S  -   1.000028
MO   2:   1S  -   0.999999
MO   1:   1S  -   0.999375
MO   0:   0C  -   1.000871
Localized MO's were stored in: ethanethiol_ecl.proc0.loc

Warning: internal orbitals are localized - no re-canonicalization of internal orbitals

--------------------------
CLOSED-SHELL FOCK OPERATOR
--------------------------

RI-JK section for the Fock operator:
  RHF full Fock operator         ... done
  RHF frozen core Fock operator  ... done
Time needed for Fock operator              ...            0.755 sec
Reference energy                           ...   -476.771637667

--------------
DLPNO SETTINGS (2015 fully linear scaling implementation)
--------------

TCutMKN:           1.000e-03
TCutPAO:           1.000e-03
TCutPNO:           1.000e-07
TCutPNOSingles:    3.000e-09
TCutEN:            9.700e-01
TCutPAOExt:        1.000e-01
TCutPairs:         1.000e-05
TCutPre:           1.000e-07
TCutOSV:           1.000e-06
TCutDOij:          1.000e-05
TCutDO:            5.000e-03
TCutC:             1.000e-04
TCutCPAO:          1.000e-03
TCutCMO:           1.000e-03
TScaleDOMP2PreScr: 2.000e+00
TScaleMKNMP2PreScr:1.000e+01
TScalePNOMP2PreScr:1.000e+00
PAO overlap thresh 1.000e-08
Using PNOs for Singles Fock computation
Use new domains
Use fully linear algorithm
TCutTNO:           1.000e-09
TCutMP2Pairs:      1.000e-06
TCutDOStrong:      2.000e-03
TCutMKNStrong:     1.000e-02
TCutMKNWeak:       1.000e-01
TCutDOWeak:        4.000e-03
NTCutTNO:          1

--------------------------
Calculating differential overlap integrals ... ok
--------------------------
ELECTRON PAIR PRESCREENING
--------------------------

Dipole-based pair screening          .... used

   TCutDOij = 1.000000e-05
   TCutPre  = 1.000000e-07
   .... Finished loop over pairs
Total time spent in the prescreening                  ...     0.000 sec
sum of pair energies estimated for screened out pairs ...       0.000000000000 Eh
Thresholds for map construction and integral transformation for crude MP2:
   TCutMKN                    ...     1.0e-02
   TCutDO                     ...     1.0e-02
   TCutPairs                  ...     1.0e-05
   TCutPNO_CrudeMP2           ...     1.0e-07
   TCutPNOSingles_CrudeMP2    ...     3.0e-09
--------------------------------
LOCAL RI TRANSFORMATION (IAVPAO)
--------------------------------

Orbital window:       7 to 16
Number of PAOs:     178
Basis functions:    178 (68 shells)
Aux. functions:     464 (138 shells)

Processing maps (0.0 sec)
Average map sizes:
   Aux shells -> MOs              10.0
   Aux shells -> PAOs            178.0
   MOs        -> AO shells        68.0
   PAOs       -> AO shells        68.0

Calculating integrals (0.4 sec, 6.307 MB)
Sorting integrals (0.0 sec, 6.301 MB)
Total time for the integral transformation: 0.4 sec
--------------------------------
INITIAL GUESS AND PNO GENERATION
--------------------------------

PNO truncation parameters                   .... 
    PAOOverlapThresh   =        1.000e-08

    TCutPairs          =        1.000e-05
    TCutPNO            =        1.000e-07
    TCutPNOSingles     =        3.000e-09
    TCutMP2Pairs       =        1.000e-06
    TCutMKN            =        1.000e-02
    TCutDO             =        1.000e-02

Pair selection                          .... not used
Type of local MP2 treatment                 .... semi-local MP2
Strategy for PNO selection                  .... occupation number selection
Pair density normalization                  .... MP2 norm
Spin component scaling                      .... not used

   .... Finished loop over pairs
Making pair pair interaction lists          ... done

                       ===========================
                         55 OF   55 PAIRS ARE KEPT CCSD PAIRS
                          0 OF   55 PAIRS ARE KEPT MP2 PAIRS FOR (T)
                          0 OF   55 PAIRS ARE SKIPPED
                       ===========================

Total time spent in the initial guess                 ...     0.164 sec
SL-MP2 correlation energy (all non-screened pairs)    ...      -0.524369356314 Eh

Initial PNO correlation energy                        ...      -0.524080892335 Eh
sum of pair energies prescreened and skipped MP2 pairs...       0.000000000000 Eh
sum of pair energies of crude MP2 skipped pairs only  ...       0.000000000000 Eh
sum of MP2 pair energies for pairs that were not kept ...       0.000000000000 Eh
sum of PNO error estimates for the kept pairs         ...      -0.000288463979 Eh
                                                          --------------------
sum of all corrections                                         -0.000288463979
Initial total correlation energy                               -0.524369356314
Thresholds for map construction and integral transformation for fine MP2 and CCSD(T) calculation:
   TCutMKN   ...     1.0e-03
   TCutDO    ...     5.0e-03
   TCutPairs ...     1.0e-05
   TCutCMO   ...     1.0e-03
   TCutCPAO  ...     1.0e-03

Thresholds for map construction and integral transformation for strong Triples:
   TCutMKN   ...     1.0e-02
   TCutDO    ...     1.0e-02
   TCutCMO   ...     1.0e-03
   TCutCPAO  ...     1.0e-03

Thresholds for map construction and integral transformation for weak Triples:
   TCutMKN   ...     1.0e-01
   TCutDO    ...     2.0e-02
   TCutCMO   ...     1.0e-03
   TCutCPAO  ...     1.0e-03

--------------------------------
LOCAL RI TRANSFORMATION (IAVPAO)
--------------------------------

Orbital window:       7 to 16
Number of PAOs:     178
Basis functions:    178 (68 shells)
Aux. functions:     464 (138 shells)

Processing maps (0.0 sec)
Average map sizes:
   Aux shells -> MOs              10.0
   Aux shells -> PAOs            178.0
   MOs        -> AO shells        68.0
   PAOs       -> AO shells        68.0

Calculating integrals (0.4 sec, 6.307 MB)
Sorting integrals (0.0 sec, 6.301 MB)
Total time for the integral transformation: 0.4 sec
--------------------------------
INITIAL GUESS AND PNO GENERATION
--------------------------------

PNO truncation parameters                   .... 
    ScaleTCutPNO       =        1.000e-02
    PAOOverlapThresh   =        1.000e-08

    TCutPairs          =        1.000e-05
    TCutPNO            =        1.000e-07
    TCutPNOSingles     =        3.000e-09
    TCutMP2Pairs       =        1.000e-06
    TCutMKN            =        1.000e-03
    TCutDO             =        5.000e-03

Pair selection                          .... not used
Type of local MP2 treatment                 .... full local PMP2
Strategy for PNO selection                  .... occupation number selection
Pair density normalization                  .... MP2 norm
Spin component scaling                      .... not used

PASS-1: Formation of initial guess LMP2 amplitudes
Initial amplitudes guess done. Entering LMP2 iteration loop:
   Max. no of iterations          ...  50
   Energy convergence tolerance   ...    1.0e-07
   Residual convergence tolerance ...    5.0e-07
   Fock matrix cutoff             ...    1.0e-05 Eh
   DIIS convergence acceleration parameters:
        Max # vectors in DIIS     ... 7
        Start iteration of DIIS   ... 0
        Levelshift                ... 2.000e-01
        Damping factor 1          ... 5.000e-01
        Damping factor 2          ... 1.000e+00
   L-MP2 PNO cut-off              ...   1.0e-09
   L-MP2 PNO cut-off (core)       ...   1.0e-11
                           *** Turning on DIIS ***
LMP2-Iter=   0:  ELMP2= -0.532927748011  DE=   8.4e-03 RMAX=   4.9e-03
LMP2-Iter=   1:  ELMP2= -0.538367568455  DE=   5.4e-03 RMAX=   3.4e-03
LMP2-Iter=   2:  ELMP2= -0.539306846760  DE=   9.4e-04 RMAX=   5.6e-04
LMP2-Iter=   3:  ELMP2= -0.539406368906  DE=   1.0e-04 RMAX=   2.5e-04
LMP2-Iter=   4:  ELMP2= -0.539410091222  DE=   3.7e-06 RMAX=   3.2e-05
LMP2-Iter=   5:  ELMP2= -0.539408981802  DE=   1.1e-06 RMAX=   1.2e-05
LMP2-Iter=   6:  ELMP2= -0.539408824392  DE=   1.6e-07 RMAX=   1.4e-06
LMP2-Iter=   7:  ELMP2= -0.539408819828  DE=   4.6e-09 RMAX=   2.9e-07
LMP2-Iter=   8:  ELMP2= -0.539408822682  DE=   2.9e-09 RMAX=   3.6e-08 => CONVERGED
PASS-2: Formation of Pair natural orbitals
   .... Finished loop over pairs

 PNO Occupation Number Statistics: 
  | Av. % of trace(Dij) retained        ...  99.879058551120
  | sigma^2 in % of trace(Dij) retained ...   2.56e-02
  | Av. % of trace(Di) retained         ...  99.999808686434
  | sigma^2 in % of trace(Di) retained  ...   2.78e-09
 Distributions of % trace(Dij) recovered:
  |       >= 99.9  ...    29 ( 52.7 % of all pairs)
  |   [99.0, 99.9) ...    26 ( 47.3 % of all pairs)
 Distributions of % trace(Di) recovered :
  |       >= 99.9  ...    10 (100.0 % of all I-pairs )

Making pair pair interaction lists          ... done

                       ===========================
                         55 OF   55 PAIRS ARE KEPT
                       ===========================

Total time spent in the initial guess                 ...     1.546 sec
L-MP2 correlation energy (all non-screened pairs)     ...      -0.539408822682 Eh
L-MP2 PNO error correction                            ...      -0.000003901542 Eh
                                                          --------------------
Initial total L-MP2 energy (non-screened pairs)       ...      -0.539412724224 Eh

Initial PNO correlation energy                        ...      -0.539129594678 Eh
sum of pair energies estimated for screened out pairs ...       0.000000000000 Eh
sum of MP2 pair energies for pairs that were not kept ...       0.000000000000 Eh
sum of PNO error estimates for the kept pairs         ...      -0.000283129546 Eh
                                                          --------------------
sum of all corrections                                         -0.000283129546
Initial total correlation energy                               -0.539412724224
Thresholds for map construction and integral transformation for fine MP2 and CCSD(T) calculation:
   TCutMKN   ...     1.0e-03
   TCutDO    ...     5.0e-03
   TCutPairs ...     1.0e-05
   TCutCMO   ...     1.0e-03
   TCutCPAO  ...     1.0e-03

Time for aux screen maps:            0.001
Time for maps after fine MP2:            0.003
-----------------------------
LOCAL RI TRANSFORMATION (IJV)
-----------------------------

Orbital window:       7 to 16
Basis functions:    178 (68 shells)
Aux. functions:     464 (138 shells)

Processing maps (0.0 sec)
Average map sizes:
   Aux shells -> MOs(i)           10.0
   Aux shells -> MOs(j)           10.0
   MOs        -> AO shells        68.0

Calculating integrals (0.4 sec, 0.359 MB)
Sorting integrals (0.0 sec, 0.354 MB)
Total time for the integral transformation: 0.4 sec
--------------------------------
LOCAL RI TRANSFORMATION (VABPAO)
--------------------------------

Number of PAOs:     178
Basis functions:    178 (68 shells)
Aux. functions:     464 (138 shells)

Processing maps (0.0 sec)
Average map sizes:
   Aux shells -> PAOs            178.0
   PAOs       -> AO shells        68.0

Calculating integrals (0.6 sec, 210.315 MB)
Finished


-------------------------------------
Pair Pair Term precalculation with     
RI-(ij|mn) and (im|jn) transformation  
ON THE FLY                             
-------------------------------------

   IBatch   1 (of   1)              ... done (    5.062 sec)
Total EXT                           ...           5.062 sec

---------------------
RI-PNO TRANSFORMATION
---------------------

Total Number of PNOs                   ...  2831
Average number of PNOs per pair        ...    51
Maximal number of PNOs per pair        ...    70
   #pairs with  1 -  5 PNOs   :    0
   #pairs with  6 - 10 PNOs   :    0
   #pairs with 11 - 15 PNOs   :    0
   #pairs with 16 - 20 PNOs   :    0
   #pairs with 21 - 25 PNOs   :    2
   #pairs with 26 - 30 PNOs   :    1
   #pairs with 31 - 35 PNOs   :    2
   #pairs with 36 - 40 PNOs   :    1
   #pairs with 41 - 45 PNOs   :    7
   #pairs with 46 - 50 PNOs   :   14
   #pairs with 51 - 55 PNOs   :    9
   #pairs with 56 - 60 PNOs   :    5
   #pairs with 61 - 65 PNOs   :    7
   #pairs with 66 - 70 PNOs   :    7

Generation of (ij|ab)[P] integrals            ... on
Generation of (ia|bc)[P],(ja|bc)[P] integrals ... on
Storage of 3 and 4 external integrals         ... on
Generation of ALL (ka|bc)[P] integrals        ... on
Keep RI integrals in memory                   ... off

Ibatch:  1 (of  1)
Starting 2-4 index PNO integral generation ... done

Timings:
Total PNO integral transformation time     ...          3.407 sec
Size of the 3-external file                ...        65 MB
Size of the 4-external file                ...       477 MB
Size of the IKJL file                      ...         0 MB
Size of the all 3-external file            ...       328 MB
Size of the 1-external file                ...         0 MB

Making pair/pair overlap matrices          ... done (    0.139 sec)
Size of the pair overlap file              ... 50 MB
Redoing the guess amplitudes               ... done (    0.001 sec)

-------------------------
FINAL STARTUP INFORMATION
-------------------------

E(0)                                       ...   -476.771637667
E(L-MP2)                                   ...     -0.539412724
E(L-MP2) including corrections             ...     -0.539412724
Initial E(tot)                             ...   -477.311050391
<T|T>                                      ...      0.175363728
Number of pairs included                   ... 55
Total number of pairs                      ... 55

------------------------------------------------
                  RHF COUPLED CLUSTER ITERATIONS
------------------------------------------------

Number of PNO amplitudes to be optimized   ...       152149
Number of non-PNO amplitudes               ...      1425655
Untruncated number of regular amplitudes   ...      1425655

Iter       E(tot)           E(Corr)          Delta-E          Residual     Time
  0   -477.296045030     -0.524124234      0.015288490      0.011660967    3.70
                           *** Turning on DIIS ***
  1   -477.333567765     -0.561646969     -0.037522735      0.008621950    3.69
  2   -477.351712280     -0.579791483     -0.018144515      0.002984824    3.70
  3   -477.354930368     -0.583009572     -0.003218089      0.001616478    3.74
  4   -477.355608837     -0.583688041     -0.000678469      0.000489201   13.67
  5   -477.355743419     -0.583822623     -0.000134582      0.000187578    3.70
  6   -477.355774219     -0.583853422     -0.000030799      0.000065857    3.74
  7   -477.355778797     -0.583858001     -0.000004578      0.000039315    3.69
  8   -477.355779343     -0.583858547     -0.000000546      0.000024679    3.70
  9   -477.355779164     -0.583858368      0.000000178      0.000011684    3.68
 10   -477.355779117     -0.583858321      0.000000047      0.000004604    3.70
               --- The Coupled-Cluster iterations have converged ---

----------------------
COUPLED CLUSTER ENERGY
----------------------

E(0)                                       ...   -476.771637667
E(CORR)(strong-pairs)                      ...     -0.583858321
E(CORR)(weak-pairs)                        ...     -0.000283130
E(CORR)(corrected)                         ...     -0.584141451
E(TOT)                                     ...   -477.355779117
Singles Norm <S|S>**1/2                    ...      0.040479560  
T1 diagnostic                              ...      0.009051505  

------------------
LARGEST AMPLITUDES
------------------
   9-> 17   9-> 17       0.057262
  10-> 17  10-> 17       0.040977
  10-> 19  10-> 19       0.036117
  12-> 23  12-> 23       0.032565
  16-> 23  16-> 23       0.031170
  15-> 23  15-> 23       0.029984
  14-> 24  14-> 24       0.029953
  15-> 17  15-> 17       0.028347
  16-> 17  16-> 17       0.028251
  14-> 17  14-> 17       0.027598
   7-> 18   7-> 18       0.027279
  11-> 17  11-> 17       0.026336
   8-> 25   8-> 25       0.026278
  16-> 17  16-> 23       0.025815
  16-> 23  16-> 17       0.025815
  15-> 17  15-> 23       0.025352


-------------------------------------------
DLPNO BASED TRIPLES CORRECTION
-------------------------------------------

Singles multiplier          ...  1.000000
TCutTNO                     ... 1.000e-09
TCutMP2Pairs                ... 1.000e-06
TCutDOStrong                ... 1.000e-02
TCutMKNStrong               ... 1.000e-02
TCutDOWeak                  ... 2.000e-02
TCutMKNWeak                 ... 1.000e-01

Fragment selection                          .... not used
Number of Triples that are to be computed   ...       210

 . . . . . . . . .
10% done  
20% done  
30% done  
40% done  
50% done  
60% done  
70% done  
80% done  
90% done               (      8.886 sec)
Triples timings:
Total time for T0               ...     9.324 sec
Total time for Iterative (T)    ...     0.000 sec
Total time of overall (T)       ...    10.638 sec

Triples List generation         ...     0.000 sec
TNO generation                  ...     0.435 sec
Pair density generation         ...     0.002 sec
Look up tables                  ...     0.000 sec
Generating 3-index integrals    ...     3.544 sec
  Make 4-ind.int. from 3-ind.int...     1.946 sec
  Projecting amplitudes (D + S) ...     0.384 sec
  Downprojecting integrals      ...     0.000 sec
  Energy contr. (sum over a,b,c)...     0.842 sec
Fitting ET(->0)                 ...     0.000 sec

Everything after 3-index        ...     5.342 sec

Timing details:
 TNO integrals                  ...     5.344 sec
   Reading 3-index integrals    ...     0.037 sec
   Sorting integrals            ...     1.193 sec
       Sorting integrals 1      ...     0.000 sec
       Sorting integrals 2      ...     0.207 sec
       Sorting integrals 3      ...     0.047 sec
       Sorting integrals 4      ...     0.002 sec
       Sorting integrals 5      ...     0.007 sec
       Sorting integrals 6      ...     0.930 sec
   Calculating local VM**-1/2   ...     0.022 sec
   Orthogonal. integrals        ...     0.059 sec
   Multipl. 3-index integrals   ...     4.033 sec
   All concerning IRIab (w/TNO) ...     0.880 sec

 Calculate W0/W1                ...     2.165 sec
 W 3-ext contribution           ...     1.207 sec
 W 3-int contribution           ...     0.271 sec
 Sorting W                      ...     0.656 sec

 V exchange contribution        ...     0.286 sec

 Timings for Triples without generation
     of 3-index integrals       ...     5.342 sec
       0 weak pairs             ...     5.342 sec
       1 weak pair              ...     0.000 sec
       2 weak pairs             ...     0.000 sec
       3 weak pairs             ...     0.000 sec
  Extra time for extrapolation  ...     0.000 sec

Number of Triples   (0, 1, 2, 3 weak pairs; overall):    210       0       0       0  (   210)
Number of Atoms     (0, 1, 2, 3 weak pairs; overall):    8.9     0.0     0.0     0.0  (     9)
Number of PAOs      (0, 1, 2, 3 weak pairs; overall):  176.9     0.0     0.0     0.0  (   178)
Number of AuxFcns   (0, 1, 2, 3 weak pairs; overall):  292.4     0.0     0.0     0.0  (   464)
Number of TNOs      (0, 1, 2, 3 weak pairs         ):  101.2     0.0     0.0     0.0
Aver. Number of NTNO, Atoms, PAOs, AuxFcns / Triples:    210   101.2     8.9   176.9   292.4

Triples Correction (T)                     ...     -0.023175167
Final correlation energy                   ...     -0.607316618
E(CCSD)                                    ...   -477.355779117
E(CCSD(T))                                 ...   -477.378954284


Maximum memory used throughout the entire calculation: 1500.8 MB


------------------------------------------------------------------------------- 
                                     TIMINGS                                   
------------------------------------------------------------------------------- 


Total execution time                   ...       75.354 sec

Localization of occupied MO's          ...        0.496 sec (  0.7%)
Fock Matrix Formation                  ...        0.755 sec (  1.0%)
Global overlap, Fock, MKN matrices     ...        0.129 sec (  0.2%)
Differential overlap integrals         ...        0.040 sec (  0.1%)
Organizing maps                        ...        0.009 sec (  0.0%)
RI 3-index integral generations        ...        1.832 sec (  2.4%)
RI-PNO integral transformation         ...        8.692 sec ( 11.5%)
Initial Guess                          ...        1.729 sec (  2.3%)
DIIS Solver                            ...        0.461 sec (  0.6%)
State Vector Update                    ...        0.012 sec (  0.0%)
Sigma-vector construction              ...       50.582 sec ( 67.1%)
  <D|H|D>(0-ext)                       ...        0.363 sec (  0.7% of sigma)
  <D|H|D>(2-ext Fock)                  ...        0.005 sec (  0.0% of sigma)
  <D|H|D>(2-ext)                       ...        1.316 sec (  2.6% of sigma)
  <D|H|D>(4-ext)                       ...        7.700 sec ( 15.2% of sigma)
  <D|H|D>(4-ext-corr)                  ...       26.631 sec ( 52.6% of sigma)
  CCSD doubles correction              ...        0.040 sec (  0.1% of sigma)
  <S|H|S>                              ...        0.122 sec (  0.2% of sigma)
  <S|H|D>(1-ext)                       ...        0.068 sec (  0.1% of sigma)
  <D|H|S>(1-ext)                       ...        0.003 sec (  0.0% of sigma)
  <S|H|D>(3-ext)                       ...        0.231 sec (  0.5% of sigma)
  Fock-dressing                        ...       12.788 sec ( 25.3% of sigma)
  Singles amplitudes                   ...        0.082 sec (  0.2% of sigma)
  (ik|jl)-dressing                     ...        0.272 sec (  0.5% of sigma)
  (ij|ab),(ia|jb)-dressing             ...        0.824 sec (  1.6% of sigma)
  Pair energies                        ...        0.004 sec (  0.0% of sigma)
Total Time for computing (T)           ...       10.646 sec ( 14.1% of ALL)


-------------------------   --------------------
FINAL SINGLE POINT ENERGY      -477.378954284142
-------------------------   --------------------


                            ***************************************
                            *     ORCA property calculations      *
                            ***************************************

                                    ---------------------
                                    Active property flags
                                    ---------------------
   (+) Dipole Moment


------------------------------------------------------------------------------
                       ORCA ELECTRIC PROPERTIES CALCULATION
------------------------------------------------------------------------------

Dipole Moment Calculation                       ... on
Quadrupole Moment Calculation                   ... off
Polarizability Calculation                      ... off
GBWName                                         ... ethanethiol_ecl.gbw
Electron density file                           ... ethanethiol_ecl.scfp.tmp
The origin for moment calculation is the CENTER OF MASS  = ( 0.167262,  0.012295 -0.028818)

-------------
DIPOLE MOMENT
-------------
                                X             Y             Z
Electronic contribution:      4.98984       0.41980      -0.61947
Nuclear contribution   :     -5.68696      -0.41807       0.97983
                        -----------------------------------------
Total Dipole Moment    :     -0.69712       0.00173       0.36035
                        -----------------------------------------
Magnitude (a.u.)       :      0.78475
Magnitude (Debye)      :      1.99468



--------------------
Rotational spectrum 
--------------------
 
Rotational constants in cm-1:     0.885726     0.170487     0.153778 
Rotational constants in MHz : 26553.385608  5111.082105  4610.139213 

 Dipole components along the rotational axes: 
x,y,z [a.u.] :     0.702270     0.019341     0.349684 
x,y,z [Debye]:     1.785028     0.049161     0.888825 

 

Timings for individual modules:

Sum of individual times         ...       79.922 sec (=   1.332 min)
GTO integral calculation        ...        0.520 sec (=   0.009 min)   0.7 %
SCF iterations                  ...        3.855 sec (=   0.064 min)   4.8 %
MDCI module                     ...       75.547 sec (=   1.259 min)  94.5 %
                             ****ORCA TERMINATED NORMALLY****
TOTAL RUN TIME: 0 days 0 hours 1 minutes 20 seconds 197 msec
ethanethiol_ecl.gbw -> /home1/pantazis/klk/xyz/Energy_barrier/ethanethiol_ecl.gbw
ethanethiol_ecl.job -> /home1/pantazis/klk/xyz/Energy_barrier/ethanethiol_ecl.job
ethanethiol_ecl.loc -> /home1/pantazis/klk/xyz/Energy_barrier/ethanethiol_ecl.loc
ethanethiol_ecl.nodes -> /home1/pantazis/klk/xyz/Energy_barrier/ethanethiol_ecl.nodes
ethanethiol_ecl.prop -> /home1/pantazis/klk/xyz/Energy_barrier/ethanethiol_ecl.prop
ethanethiol_ecl_property.txt -> /home1/pantazis/klk/xyz/Energy_barrier/ethanethiol_ecl_property.txt
ethanethiol_ecl.xyz -> /home1/pantazis/klk/xyz/Energy_barrier/ethanethiol_ecl.xyz
cp: cannot stat ethanethiol_ecl.asa.inp: No such file or directory
