! Job execution by suborca V 6.07 on ZEUS !
Job started from zeus1, running /scratch/pantazis/ethylphosphine_a__aGS6zE/orca/orca copied from /opt/orca on zeussn153 in /scratch/pantazis/ethylphosphine_a__aGS6zE
Job execution start: Thu Jun 27 11:04:12 CEST 2019
Shared library path: /scratch/pantazis/ethylphosphine_a__aGS6zE/orca:/opt/openmpi_1.10.2/lib:/opt/intel/mkl/lib/intel64:/opt/intel/lib/intel64:
PBS Job ID is: 157979.icqc
izeussn153
izeussn153
izeussn153
izeussn153
izeussn153
izeussn153
izeussn153
izeussn153

                                 *****************
                                 * O   R   C   A *
                                 *****************

           --- An Ab Initio, DFT and Semiempirical electronic structure package ---

                  #######################################################
                  #                        -***-                        #
                  #          Department of theory and spectroscopy      #
                  #               Directorship: Frank Neese             #
                  #        Max Planck Institute fuer Kohlenforschung    #
                  #                Kaiser Wilhelm Platz 1               #
                  #                 D-45470 Muelheim/Ruhr               #
                  #                      Germany                        #
                  #                                                     #
                  #                  All rights reserved                #
                  #                        -***-                        #
                  #######################################################


                         Program Version 4.1.x  -  STABLE  -
                                (SVN: $Rev: 14094$)
                ($Date: 2019-06-14 15:01:15 +0200 (Fri, 14 Jun 2019) $)

                         (BUILD: $Sun Jun 23 06:18:31 CEST 2019$)


 With contributions from (in alphabetic order):
   Daniel Aravena         : Magnetic Properties
   Michael Atanasov       : Ab Initio Ligand Field Theory
   Alexander A. Auer      : GIAO ZORA
   Ute Becker             : Parallelization
   Giovanni Bistoni       : ED, Open-shell LED
   Martin Brehm           : Molecular dynamics
   Dmytro Bykov           : SCF Hessian
   Vijay G. Chilkuri      : MRCI spin determinant printing
   Dipayan Datta          : RHF DLPNO-CCSD density
   Achintya Kumar Dutta   : EOM-CC, STEOM-CC
   Dmitry Ganyushin       : Spin-Orbit,Spin-Spin,Magnetic field MRCI
   Miquel Garcia          : C-PCM Hessian
   Yang Guo               : DLPNO-NEVPT2, CIM, IAO-localization
   Andreas Hansen         : Spin unrestricted coupled pair/coupled cluster methods
   Benjamin Helmich-Paris : CASSCF linear response (MC-RPA)
   Lee Huntington         : MR-EOM, pCC
   Robert Izsak           : Overlap fitted RIJCOSX, COSX-SCS-MP3, EOM
   Christian Kollmar      : KDIIS, OOCD, Brueckner-CCSD(T), CCSD density
   Simone Kossmann        : Meta GGA functionals, TD-DFT gradient, OOMP2, MP2 Hessian
   Martin Krupicka        : AUTO-CI
   Lucas Lang             : DCDCAS
   Dagmar Lenk            : GEPOL surface, SMD
   Dimitrios Liakos       : Extrapolation schemes; parallel MDCI
   Dimitrios Manganas     : ROCIS; embedding schemes
   Dimitrios Pantazis     : SARC Basis sets
   Taras Petrenko         : DFT Hessian,TD-DFT gradient, ASA, ECA, R-Raman, ABS, FL, XAS/XES, NRVS
   Peter Pinski           : DLPNO-MP2, DLPNO-MP2 Gradient
   Christoph Reimann      : Effective Core Potentials
   Marius Retegan         : Local ZFS, SOC
   Christoph Riplinger    : Optimizer, TS searches, QM/MM, DLPNO-CCSD(T), (RO)-DLPNO pert. Triples
   Tobias Risthaus        : Range-separated hybrids, TD-DFT gradient, RPA, STAB
   Michael Roemelt        : Restricted open shell CIS
   Masaaki Saitow         : Open-shell DLPNO
   Barbara Sandhoefer     : DKH picture change effects
   Avijit Sen             : IP-ROCIS
   Kantharuban Sivalingam : CASSCF convergence, NEVPT2, FIC-MRCI
   Bernardo de Souza      : ESD, SOC TD-DFT
   Georgi Stoychev        : AutoAux, RI-MP2 NMR
   Willem Van den Heuvel  : Paramagnetic NMR
   Boris Wezisla          : Elementary symmetry handling
   Frank Wennmohs         : Technical directorship


 We gratefully acknowledge several colleagues who have allowed us to
 interface, adapt or use parts of their codes:
   Stefan Grimme, W. Hujo, H. Kruse,             : VdW corrections, initial TS optimization,
                  C. Bannwarth                     DFT functionals, gCP, sTDA/sTD-DF
   Ed Valeev                                     : LibInt (2-el integral package), F12 methods
   Garnet Chan, S. Sharma, J. Yang, R. Olivares  : DMRG
   Ulf Ekstrom                                   : XCFun DFT Library
   Mihaly Kallay                                 : mrcc  (arbitrary order and MRCC methods)
   Andreas Klamt, Michael Diedenhofen            : otool_cosmo (COSMO solvation model)
   Jiri Pittner, Ondrej Demel                    : Mk-CCSD
   Frank Weinhold                                : gennbo (NPA and NBO analysis)
   Christopher J. Cramer and Donald G. Truhlar   : smd solvation model
   Lars Goerigk                                  : TD-DFT with DH, B97 family of functionals
   V. Asgeirsson, H. Jonsson                     : NEB implementation
   FAccTs GmbH                                   : IRC, NEB, NEB-TS, Multilevel


 Your calculation uses the libint2 library for the computation of 2-el integrals
 For citations please refer to: http://libint.valeyev.net

 This ORCA versions uses:
   CBLAS   interface :  Fast vector & matrix operations
   LAPACKE interface :  Fast linear algebra routines
   SCALAPACK package :  Parallel linear algebra routines




***************************************
The coordinates will be read from file: ethylphosphine_a.xyz
***************************************


----- Orbital basis set information -----
Your calculation utilizes the basis: cc-pVTZ 
       H, B-Ne : Obtained from the ccRepo (grant-hill.group.shef.ac.uk/ccrepo) Feb. 2017
                 T. H. Dunning, Jr., J. Chem. Phys. 90, 1007 (1989)
            He : Obtained from the ccRepo (grant-hill.group.shef.ac.uk/ccrepo) Feb. 2017
                 D. E. Woon, T. H. Dunning, Jr., J. Chem. Phys. 100, 2975 (1994)
  Li-Be, Na-Mg : Obtained from the ccRepo (grant-hill.group.shef.ac.uk/ccrepo) Feb. 2017
                 B. P. Prascher, D. E. Woon, K. A. Peterson, T. H. Dunning, Jr., A. K. Wilson, Theor. Chem. Acc. 128, 69 (2011)
         Al-Ar : Obtained from the ccRepo (grant-hill.group.shef.ac.uk/ccrepo) Feb. 2017
                 D. E. Woon, T. H. Dunning, Jr., J. Chem. Phys. 98, 1358 (1993)
            Ca : Obtained from the Peterson Research Group Website (tyr0.chem.wsu.edu/~kipeters) Feb. 2017
                 J. Koput, K. A. Peterson, J. Phys. Chem. 106, 9595 (2002)
         Sc-Zn : Obtained from the ccRepo (grant-hill.group.shef.ac.uk/ccrepo) Feb. 2017
                 N. B. Balabanov, K. A. Peterson, J. Chem. Phys. 123, 064107 (2005)
                 N. B. Balabanov, K. A. Peterson, J. Chem. Phys. 125, 074110 (2006)
         Ga-Kr : Obtained from the ccRepo (grant-hill.group.shef.ac.uk/ccrepo) Feb. 2017
                 A. K. Wilson, D. E. Woon, K. A. Peterson, T. H. Dunning, Jr., J. Chem. Phys. 110, 7667 (1999)
             Y : Obtained from the ccRepo (grant-hill.group.shef.ac.uk/ccrepo) Feb. 2017
                 K. A. Peterson, D. Figgen, M. Dolg, H. Stoll, J. Chem. Phys. 126, 124101 (2007)
        Ag, Au : Obtained from the Peterson Research Group Website (tyr0.chem.wsu.edu/~kipeters) Feb. 2017
                 K. A. Peterson, C. Puzzarini, Theor. Chem. Acc. 114, 283 (2005)

----- AuxC basis set information -----
Your calculation utilizes the auxiliary basis: cc-pVTZ/C 
  Obtained from the EMSL Basis Set Exchange (bse.pnl.gov) Feb. 2017
  H-He, B-F, Al-Ar, Ga-Kr : F. Weigend, A. Kohn, C. Hattig, J. Chem. Phys. 116, 3175 (2002)
             Li-Be, Na-Mg : C. Haettig, Phys. Chem. Chem. Phys. 7, 59 (2005)
                       Ne : C. Haettig, Phys. Chem. Chem. Phys. 7, 59 (2005)
                            F. Weigend, A. Kohn, C. Hattig, J. Chem. Phys. 116, 3175 (2002)
                    Sc-Zn : J. G. Hill, J. A. Platts, J. Chem. Phys. 128, 044104 (2008)

----- AuxJK basis set information -----
Your calculation utilizes the auxiliary basis: cc-pVTZ/JK 
  H, B-F, Al-Cl, Ga-Br : Obtained from the TURBOMOLE 7.0 basis set library

================================================================================
                                        WARNINGS
                       Please study these warnings very carefully!
================================================================================


WARNING: MDCI localization with Augmented Hessian Foster-Boys
  ===> : Switching off randomization!

WARNING: Post HF methods need fully converged wavefunctions
  ===> : Setting SCFConvForced true
         You can overwrite this default with %scf ConvForced false 


INFO   : the flag for use of LIBINT has been found!

================================================================================
                                       INPUT FILE
================================================================================
NAME = ethylphosphine_a.inp
|  1> ! RHF DLPNO-CCSD(T) cc-pVTZ RIJK cc-pVTZ/JK cc-pVTZ/C
|  2> ! KDIIS SOSCF TightSCF TightPNO
|  3> 
|  4> %pal nprocs 8 end
|  5> 
|  6> %maxcore 8000
|  7> 
|  8> %scf maxiter 300
|  9>      shift shift 0.2 erroff 0.1 end
| 10> end
| 11> 
| 12> * xyzfile 0 1 ethylphosphine_a.xyz 
| 13> 
| 14> 
| 15>                          ****END OF INPUT****
================================================================================

                       ****************************
                       * Single Point Calculation *
                       ****************************

---------------------------------
CARTESIAN COORDINATES (ANGSTROEM)
---------------------------------
  C     -0.526870    0.656500    0.000010
  C     -1.678460   -0.353770    0.000000
  P      1.219020   -0.040150    0.000000
  H      1.030990   -0.999600    1.038180
  H      1.031010   -0.999660   -1.038120
  H     -0.592980    1.314860    0.875180
  H     -0.592780    1.314630   -0.875360
  H     -2.650060    0.155540   -0.000120
  H     -1.639640   -1.000020   -0.883630
  H     -1.639790   -0.999880    0.883740

----------------------------
CARTESIAN COORDINATES (A.U.)
----------------------------
  NO LB      ZA    FRAG     MASS         X           Y           Z
   0 C     6.0000    0    12.011   -0.995640    1.240605    0.000019
   1 C     6.0000    0    12.011   -3.171830   -0.668528    0.000000
   2 P    15.0000    0    30.974    2.303614   -0.075873    0.000000
   3 H     1.0000    0     1.008    1.948289   -1.888970    1.961876
   4 H     1.0000    0     1.008    1.948327   -1.889084   -1.961762
   5 H     1.0000    0     1.008   -1.120570    2.484725    1.653851
   6 H     1.0000    0     1.008   -1.120192    2.484291   -1.654191
   7 H     1.0000    0     1.008   -5.007888    0.293928   -0.000227
   8 H     1.0000    0     1.008   -3.098471   -1.889764   -1.669819
   9 H     1.0000    0     1.008   -3.098754   -1.889499    1.670027

--------------------------------
INTERNAL COORDINATES (ANGSTROEM)
--------------------------------
 C      0   0   0     0.000000000000     0.00000000     0.00000000
 C      1   0   0     1.531928523496     0.00000000     0.00000000
 P      1   2   0     1.879748151934   116.98695407     0.00000000
 H      3   1   2     1.426084603311    97.28903685   312.78296801
 H      3   1   2     1.426078656526    97.29116790    47.21274215
 H      1   2   3     1.097146731572   110.51409638   238.39484017
 H      1   2   3     1.097156261387   110.51319863   121.58363021
 H      2   1   3     1.096997379441   111.07668035   180.00710529
 H      2   1   3     1.095421394624   111.24931090   300.06084951
 H      2   1   3     1.095422242151   111.24979287    59.95337010

---------------------------
INTERNAL COORDINATES (A.U.)
---------------------------
 C      0   0   0     0.000000000000     0.00000000     0.00000000
 C      1   0   0     2.894925366149     0.00000000     0.00000000
 P      1   2   0     3.552209207900   116.98695407     0.00000000
 H      3   1   2     2.694909344059    97.28903685   312.78296801
 H      3   1   2     2.694898106265    97.29116790    47.21274215
 H      1   2   3     2.073306851399   110.51409638   238.39484017
 H      1   2   3     2.073324860138   110.51319863   121.58363021
 H      2   1   3     2.073024616772   111.07668035   180.00710529
 H      2   1   3     2.070046437077   111.24931090   300.06084951
 H      2   1   3     2.070048038672   111.24979287    59.95337010

---------------------
BASIS SET INFORMATION
---------------------
There are 3 groups of distinct atoms

 Group   1 Type C   : 18s5p2d1f contracted to 4s3p2d1f pattern {8811/311/11/1}
 Group   2 Type P   : 41s16p2d1f contracted to 5s4p2d1f pattern {13131311/7711/11/1}
 Group   3 Type H   : 5s2p1d contracted to 3s2p1d pattern {311/11/1}

Atom   0C    basis set group =>   1
Atom   1C    basis set group =>   1
Atom   2P    basis set group =>   2
Atom   3H    basis set group =>   3
Atom   4H    basis set group =>   3
Atom   5H    basis set group =>   3
Atom   6H    basis set group =>   3
Atom   7H    basis set group =>   3
Atom   8H    basis set group =>   3
Atom   9H    basis set group =>   3
-------------------------------
AUXILIARY BASIS SET INFORMATION
-------------------------------
There are 3 groups of distinct atoms

 Group   1 Type C   : 8s6p5d3f1g contracted to 8s6p5d3f1g pattern {11111111/111111/11111/111/1}
 Group   2 Type P   : 10s8p7d5f2g contracted to 10s8p7d5f2g pattern {1111111111/11111111/1111111/11111/11}
 Group   3 Type H   : 4s3p2d1f contracted to 4s3p2d1f pattern {1111/111/11/1}

Atom   0C    basis set group =>   1
Atom   1C    basis set group =>   1
Atom   2P    basis set group =>   2
Atom   3H    basis set group =>   3
Atom   4H    basis set group =>   3
Atom   5H    basis set group =>   3
Atom   6H    basis set group =>   3
Atom   7H    basis set group =>   3
Atom   8H    basis set group =>   3
Atom   9H    basis set group =>   3
-------------------------------
AUXILIARY BASIS SET INFORMATION
-------------------------------
There are 3 groups of distinct atoms

 Group   1 Type C   : 10s7p5d2f1g contracted to 10s7p5d2f1g pattern {1111111111/1111111/11111/11/1}
 Group   2 Type P   : 13s11p9d3f1g contracted to 13s11p9d3f1g pattern {1111111111111/11111111111/111111111/111/1}
 Group   3 Type H   : 4s3p2d1f contracted to 4s3p2d1f pattern {1111/111/11/1}

Atom   0C    basis set group =>   1
Atom   1C    basis set group =>   1
Atom   2P    basis set group =>   2
Atom   3H    basis set group =>   3
Atom   4H    basis set group =>   3
Atom   5H    basis set group =>   3
Atom   6H    basis set group =>   3
Atom   7H    basis set group =>   3
Atom   8H    basis set group =>   3
Atom   9H    basis set group =>   3


           ************************************************************
           *        Program running with 8 parallel MPI-processes     *
           *              working on a common directory               *
           ************************************************************
------------------------------------------------------------------------------
                           ORCA GTO INTEGRAL CALCULATION
                           -- RI-GTO INTEGRALS CHOSEN --
------------------------------------------------------------------------------

                         BASIS SET STATISTICS AND STARTUP INFO

Gaussian basis set:
 # of primitive gaussian shells          ...  168
 # of primitive gaussian functions       ...  318
 # of contracted shells                  ...   74
 # of contracted basis functions         ...  192
 Highest angular momentum                ...    3
 Maximum contraction depth               ...   13
Auxiliary gaussian basis set:
 # of primitive gaussian shells          ...  157
 # of primitive gaussian functions       ...  489
 # of contracted shells                  ...  157
 # of contracted aux-basis functions     ...  489
 Highest angular momentum                ...    4
 Maximum contraction depth               ...    1
Ratio of auxiliary to basis functions    ...  2.55
Integral package used                  ... LIBINT
 One Electron integrals                  ... done
 Ordering auxiliary basis shells         ... done
 Integral threshhold             Thresh  ...  2.500e-11
 Primitive cut-off               TCut    ...  2.500e-12
 Pre-screening matrix                    ... done
 Shell pair data                         ... 
 Ordering of the shell pairs             ... done (   0.000 sec) 2759 of 2775 pairs
 Determination of significant pairs      ... done (   0.000 sec)
 Creation of shell pair data             ... done (   0.001 sec)
 Storage of shell pair data              ... done (   0.001 sec)
 Shell pair data done in (   0.002 sec)
 Computing two index integrals           ... done
 Cholesky decomposition of the V-matrix  ... done


Timings:
 Total evaluation time                   ...   0.377 sec (  0.006 min)
 One electron matrix time                ...   0.045 sec (  0.001 min) = 11.8%
 Schwartz matrix evaluation time         ...   0.239 sec (  0.004 min) = 63.3%
 Two index repulsion integral time       ...   0.032 sec (  0.001 min) =  8.4%
 Cholesky decomposition of V             ...   0.034 sec (  0.001 min) =  9.0%
 Three index repulsion integral time     ...   0.000 sec (  0.000 min) =  0.0%



           ************************************************************
           *        Program running with 8 parallel MPI-processes     *
           *              working on a common directory               *
           ************************************************************
-------------------------------------------------------------------------------
                                 ORCA SCF
-------------------------------------------------------------------------------

------------
SCF SETTINGS
------------
Hamiltonian:
 Ab initio Hamiltonian  Method          .... Hartree-Fock(GTOs)
 RI-approximation to the Coulomb term is turned on
   Number of auxiliary basis functions  .... 489
   RI-JK (J+K treated both via RI)      .... on


General Settings:
 Integral files         IntName         .... ethylphosphine_a
 Hartree-Fock type      HFTyp           .... RHF
 Total Charge           Charge          ....    0
 Multiplicity           Mult            ....    1
 Number of Electrons    NEL             ....   34
 Basis Dimension        Dim             ....  192
 Nuclear Repulsion      ENuc            ....    109.6314502318 Eh

Convergence Acceleration:
 DIIS                   CNVDIIS         .... off
 Newton-Raphson         CNVNR           .... off
 SOSCF                  CNVSOSCF        .... on
   Start iteration      SOSCFMaxIt      ....   150
   Startup grad/error   SOSCFStart      ....  0.003300
 Level Shifting         CNVShift        .... on
   Level shift para.    LevelShift      ....    0.2000
   Turn off err/grad.   ShiftErr        ....    0.1000
 Zerner damping         CNVZerner       .... off
 Static damping         CNVDamp         .... off
 Fernandez-Rico         CNVRico         .... off

SCF Procedure:
 Maximum # iterations   MaxIter         ....   300
 SCF integral mode      SCFMode         .... Direct
   Integral package                     .... LIBINT
 Reset frequency        DirectResetFreq ....    20
 Integral Threshold     Thresh          ....  2.500e-11 Eh
 Primitive CutOff       TCut            ....  2.500e-12 Eh

Convergence Tolerance:
 Convergence Check Mode ConvCheckMode   .... Total+1el-Energy
 Convergence forced     ConvForced      .... 1
 Energy Change          TolE            ....  1.000e-08 Eh
 1-El. energy change                    ....  1.000e-05 Eh
 Orbital Gradient       TolG            ....  1.000e-05
 Orbital Rotation angle TolX            ....  1.000e-05


Diagonalization of the overlap matrix:
Smallest eigenvalue                        ... 1.122e-03
Time for diagonalization                   ...    0.015 sec
Threshold for overlap eigenvalues          ... 1.000e-08
Number of eigenvalues below threshold      ... 0
Time for construction of square roots      ...    0.020 sec
Total time needed                          ...    0.035 sec

-------------------
DFT GRID GENERATION
-------------------

General Integration Accuracy     IntAcc      ...  4.340
Radial Grid Type                 RadialGrid  ... Gauss-Chebyshev
Angular Grid (max. acc.)         AngularGrid ... Lebedev-110
Angular grid pruning method      GridPruning ... 3 (G Style)
Weight generation scheme         WeightScheme... Becke
Basis function cutoff            BFCut       ...    1.0000e-11
Integration weight cutoff        WCut        ...    1.0000e-14
Grids for H and He will be reduced by one unit

# of grid points (after initial pruning)     ...  10676 (   0.0 sec)
# of grid points (after weights+screening)   ...  10157 (   0.0 sec)
nearest neighbour list constructed           ...    0.0 sec
Grid point re-assignment to atoms done       ...    0.0 sec
Grid point division into batches done        ...    0.0 sec
Reduced shell lists constructed in    0.0 sec

Total number of grid points                  ...    10157
Total number of batches                      ...      162
Average number of points per batch           ...       62
Average number of grid points per atom       ...     1016
Average number of shells per batch           ...    69.41 (93.80%)
Average number of basis functions per batch  ...   180.23 (93.87%)
Average number of large shells per batch     ...    62.41 (89.91%)
Average number of large basis fcns per batch ...   162.23 (90.01%)
Average number of aux-shells per batch       ...    69.41 (44.21%)
Average number of aux functions per batch    ...   180.23 (36.86%)
Maximum spatial batch extension              ...   2.01,  2.40,  2.29 au
Average spatial batch extension              ...   0.19,  0.20,  0.20 au

Time for grid setup =    0.056 sec

------------------------------
INITIAL GUESS: MODEL POTENTIAL
------------------------------
Loading Hartree-Fock densities                     ... done
Calculating cut-offs                               ... done
Setting up the integral package                    ... done
Initializing the effective Hamiltonian             ... done
Starting the Coulomb interaction                   ... done (   0.0 sec)
Reading the grid                                   ... done
Mapping shells                                     ... done
Starting the XC term evaluation                    ... done (   0.0 sec)
Transforming the Hamiltonian                       ... done (   0.0 sec)
Diagonalizing the Hamiltonian                      ... done (   0.0 sec)
Back transforming the eigenvectors                 ... done (   0.0 sec)
Now organizing SCF variables                       ... done
                      ------------------
                      INITIAL GUESS DONE (   0.2 sec)
                      ------------------
--------------
SCF ITERATIONS
--------------
ITER       Energy         Delta-E        Max-DP      RMS-DP      [F,P]   Gradient Norm
                             ****Turning on KDIIS(Cayley)****
  0   -420.4009268997   0.000000000000 0.01973813  0.00034205  0.0940914   0.130549868
  1   -420.4538057688  -0.052878869097 0.03548007  0.00042730  0.0863729   0.112804476
  2   -420.4966658975  -0.042860128756 0.05781614  0.00072972  0.0692498   0.091545111
  3   -420.5497571922  -0.053091294725 0.08796776  0.00118291  0.0417191   0.056345538
                      *** Initiating the SOSCF procedure ***
                           *** Shutting down KDIIS ***
                      *** Re-Reading the Fockian *** 
                      *** Removing any level shift *** 
ITER      Energy       Delta-E        Grad      Rot      Max-DP    RMS-DP
  4   -420.58443466  -0.0346774723  0.003004  0.003004  0.002660  0.000070
  5   -420.58460703  -0.0001723643  0.000775  0.000939  0.001477  0.000033
  6   -420.58462087  -0.0000138421  0.000445  0.000350  0.000464  0.000014
  7   -420.58462556  -0.0000046868  0.000052  0.000089  0.000192  0.000005
  8   -420.58462570  -0.0000001470  0.000019  0.000044  0.000095  0.000002
  9   -420.58462572  -0.0000000120  0.000009  0.000008  0.000017  0.000000
                 **** Energy Check signals convergence ****
              ***Rediagonalizing the Fockian in SOSCF/NRSCF***

               *****************************************************
               *                     SUCCESS                       *
               *           SCF CONVERGED AFTER  10 CYCLES          *
               *****************************************************


----------------
TOTAL SCF ENERGY
----------------

Total Energy       :         -420.58462572 Eh          -11444.68950 eV

Components:
Nuclear Repulsion  :          109.63145023 Eh            2983.22342 eV
Electronic Energy  :         -530.21607595 Eh          -14427.91293 eV
One Electron Energy:         -795.98831206 Eh          -21659.94314 eV
Two Electron Energy:          265.77223610 Eh            7232.03021 eV

Virial components:
Potential Energy   :         -840.96529318 Eh          -22883.82902 eV
Kinetic Energy     :          420.38066746 Eh           11439.13952 eV
Virial Ratio       :            2.00048518


---------------
SCF CONVERGENCE
---------------

  Last Energy change         ...   -2.5865e-09  Tolerance :   1.0000e-08
  Last MAX-Density change    ...    9.0256e-06  Tolerance :   1.0000e-07
  Last RMS-Density change    ...    2.1917e-07  Tolerance :   5.0000e-09
  Last Orbital Gradient      ...    2.8059e-06  Tolerance :   1.0000e-05
  Last Orbital Rotation      ...    5.8932e-06  Tolerance :   1.0000e-05

             **** THE GBW FILE WAS UPDATED (ethylphosphine_a.gbw) ****
             **** DENSITY FILE WAS UPDATED (ethylphosphine_a.scfp.tmp) ****
             **** ENERGY FILE WAS UPDATED (ethylphosphine_a.en.tmp) ****
----------------
ORBITAL ENERGIES
----------------

  NO   OCC          E(Eh)            E(eV) 
   0   2.0000     -79.935953     -2175.1679 
   1   2.0000     -11.237037      -305.7753 
   2   2.0000     -11.223842      -305.4163 
   3   2.0000      -7.477936      -203.4850 
   4   2.0000      -5.371546      -146.1672 
   5   2.0000      -5.371368      -146.1624 
   6   2.0000      -5.370360      -146.1349 
   7   2.0000      -1.034885       -28.1606 
   8   2.0000      -0.878985       -23.9184 
   9   2.0000      -0.780263       -21.2320 
  10   2.0000      -0.618721       -16.8363 
  11   2.0000      -0.574036       -15.6203 
  12   2.0000      -0.531898       -14.4737 
  13   2.0000      -0.516112       -14.0441 
  14   2.0000      -0.483806       -13.1650 
  15   2.0000      -0.455678       -12.3996 
  16   2.0000      -0.359496        -9.7824 
  17   0.0000       0.125521         3.4156 
  18   0.0000       0.165593         4.5060 
  19   0.0000       0.168398         4.5823 
  20   0.0000       0.172496         4.6939 
  21   0.0000       0.193340         5.2610 
  22   0.0000       0.196803         5.3553 
  23   0.0000       0.234281         6.3751 
  24   0.0000       0.238070         6.4782 
  25   0.0000       0.311983         8.4895 
  26   0.0000       0.323623         8.8062 
  27   0.0000       0.361185         9.8283 
  28   0.0000       0.382665        10.4128 
  29   0.0000       0.396375        10.7859 
  30   0.0000       0.397595        10.8191 
  31   0.0000       0.409205        11.1350 
  32   0.0000       0.425588        11.5808 
  33   0.0000       0.485645        13.2151 
  34   0.0000       0.506204        13.7745 
  35   0.0000       0.518962        14.1217 
  36   0.0000       0.563780        15.3412 
  37   0.0000       0.579578        15.7711 
  38   0.0000       0.586166        15.9504 
  39   0.0000       0.592614        16.1258 
  40   0.0000       0.621932        16.9236 
  41   0.0000       0.641342        17.4518 
  42   0.0000       0.658225        17.9112 
  43   0.0000       0.664118        18.0716 
  44   0.0000       0.666814        18.1449 
  45   0.0000       0.727226        19.7888 
  46   0.0000       0.807472        21.9724 
  47   0.0000       0.820565        22.3287 
  48   0.0000       0.825793        22.4710 
  49   0.0000       0.834401        22.7052 
  50   0.0000       0.891509        24.2592 
  51   0.0000       0.933578        25.4039 
  52   0.0000       0.934624        25.4324 
  53   0.0000       1.028859        27.9967 
  54   0.0000       1.041465        28.3397 
  55   0.0000       1.067124        29.0379 
  56   0.0000       1.100741        29.9527 
  57   0.0000       1.144628        31.1469 
  58   0.0000       1.165657        31.7191 
  59   0.0000       1.203843        32.7582 
  60   0.0000       1.225590        33.3500 
  61   0.0000       1.230537        33.4846 
  62   0.0000       1.256736        34.1975 
  63   0.0000       1.292364        35.1670 
  64   0.0000       1.314437        35.7677 
  65   0.0000       1.315241        35.7895 
  66   0.0000       1.322452        35.9857 
  67   0.0000       1.345663        36.6174 
  68   0.0000       1.352230        36.7960 
  69   0.0000       1.373636        37.3785 
  70   0.0000       1.443201        39.2715 
  71   0.0000       1.446260        39.3547 
  72   0.0000       1.471782        40.0492 
  73   0.0000       1.501138        40.8480 
  74   0.0000       1.520266        41.3685 
  75   0.0000       1.554904        42.3111 
  76   0.0000       1.597734        43.4766 
  77   0.0000       1.608407        43.7670 
  78   0.0000       1.646243        44.7966 
  79   0.0000       1.706069        46.4245 
  80   0.0000       1.733754        47.1778 
  81   0.0000       1.766062        48.0570 
  82   0.0000       1.767094        48.0851 
  83   0.0000       1.820215        49.5306 
  84   0.0000       1.828783        49.7637 
  85   0.0000       1.854829        50.4725 
  86   0.0000       1.862002        50.6677 
  87   0.0000       1.898823        51.6696 
  88   0.0000       2.000104        54.4256 
  89   0.0000       2.008310        54.6489 
  90   0.0000       2.045534        55.6618 
  91   0.0000       2.099655        57.1345 
  92   0.0000       2.136764        58.1443 
  93   0.0000       2.430908        66.1484 
  94   0.0000       2.527142        68.7670 
  95   0.0000       2.541233        69.1505 
  96   0.0000       2.601079        70.7790 
  97   0.0000       2.647969        72.0549 
  98   0.0000       2.675015        72.7908 
  99   0.0000       2.723568        74.1120 
 100   0.0000       2.772660        75.4479 
 101   0.0000       2.785493        75.7971 
 102   0.0000       2.892896        78.7197 
 103   0.0000       2.910976        79.2117 
 104   0.0000       2.936107        79.8955 
 105   0.0000       2.995947        81.5239 
 106   0.0000       3.044010        82.8317 
 107   0.0000       3.084477        83.9329 
 108   0.0000       3.116528        84.8050 
 109   0.0000       3.126220        85.0688 
 110   0.0000       3.190054        86.8058 
 111   0.0000       3.207323        87.2757 
 112   0.0000       3.273332        89.0719 
 113   0.0000       3.284284        89.3699 
 114   0.0000       3.318949        90.3132 
 115   0.0000       3.322990        90.4232 
 116   0.0000       3.331738        90.6612 
 117   0.0000       3.399483        92.5046 
 118   0.0000       3.405546        92.6696 
 119   0.0000       3.430104        93.3379 
 120   0.0000       3.481334        94.7319 
 121   0.0000       3.494416        95.0879 
 122   0.0000       3.531117        96.0866 
 123   0.0000       3.544017        96.4376 
 124   0.0000       3.577192        97.3403 
 125   0.0000       3.602809        98.0374 
 126   0.0000       3.632083        98.8340 
 127   0.0000       3.645003        99.1856 
 128   0.0000       3.709219       100.9330 
 129   0.0000       3.724158       101.3395 
 130   0.0000       3.755453       102.1911 
 131   0.0000       3.764611       102.4403 
 132   0.0000       3.794177       103.2448 
 133   0.0000       3.800054       103.4047 
 134   0.0000       3.848817       104.7316 
 135   0.0000       3.878945       105.5515 
 136   0.0000       3.902767       106.1997 
 137   0.0000       3.911692       106.4426 
 138   0.0000       3.997255       108.7708 
 139   0.0000       4.042183       109.9934 
 140   0.0000       4.043295       110.0237 
 141   0.0000       4.058138       110.4276 
 142   0.0000       4.058181       110.4287 
 143   0.0000       4.111865       111.8895 
 144   0.0000       4.116362       112.0119 
 145   0.0000       4.152408       112.9928 
 146   0.0000       4.173574       113.5687 
 147   0.0000       4.217946       114.7761 
 148   0.0000       4.250682       115.6669 
 149   0.0000       4.263564       116.0175 
 150   0.0000       4.288463       116.6950 
 151   0.0000       4.322915       117.6325 
 152   0.0000       4.340206       118.1030 
 153   0.0000       4.360528       118.6560 
 154   0.0000       4.390258       119.4650 
 155   0.0000       4.426668       120.4557 
 156   0.0000       4.429490       120.5325 
 157   0.0000       4.446892       121.0061 
 158   0.0000       4.471770       121.6831 
 159   0.0000       4.506172       122.6192 
 160   0.0000       4.544199       123.6540 
 161   0.0000       4.560797       124.1056 
 162   0.0000       4.589232       124.8794 
 163   0.0000       4.613210       125.5318 
 164   0.0000       4.668037       127.0237 
 165   0.0000       4.715895       128.3260 
 166   0.0000       4.717114       128.3592 
 167   0.0000       4.779110       130.0462 
 168   0.0000       4.934425       134.2725 
 169   0.0000       5.053763       137.5199 
 170   0.0000       5.082881       138.3122 
 171   0.0000       5.129958       139.5933 
 172   0.0000       5.179188       140.9329 
 173   0.0000       5.179478       140.9408 
 174   0.0000       5.216569       141.9501 
 175   0.0000       5.264768       143.2616 
 176   0.0000       5.340457       145.3212 
 177   0.0000       5.410023       147.2142 
 178   0.0000       5.548681       150.9873 
 179   0.0000       5.565301       151.4395 
 180   0.0000       5.656592       153.9237 
 181   0.0000       5.685048       154.6980 
 182   0.0000       5.686124       154.7273 
 183   0.0000       5.735428       156.0689 
 184   0.0000       5.810828       158.1207 
 185   0.0000       5.861244       159.4926 
 186   0.0000       6.109266       166.2416 
 187   0.0000       6.273213       170.7028 
 188   0.0000       6.273854       170.7203 
 189   0.0000       6.315912       171.8647 
 190   0.0000      12.287621       334.3632 
 191   0.0000      13.889507       377.9527 

                    ********************************
                    * MULLIKEN POPULATION ANALYSIS *
                    ********************************

-----------------------
MULLIKEN ATOMIC CHARGES
-----------------------
   0 C :   -0.227762
   1 C :   -0.268752
   2 P :    0.005402
   3 H :    0.000070
   4 H :    0.000080
   5 H :    0.100140
   6 H :    0.100121
   7 H :    0.101823
   8 H :    0.094440
   9 H :    0.094439
Sum of atomic charges:    0.0000000

--------------------------------
MULLIKEN REDUCED ORBITAL CHARGES
--------------------------------
  0 C s       :     3.222141  s :     3.222141
      pz      :     1.009109  p :     2.904084
      px      :     0.915378
      py      :     0.979597
      dz2     :     0.014885  d :     0.096827
      dxz     :     0.008663
      dyz     :     0.031262
      dx2y2   :     0.024345
      dxy     :     0.017673
      f0      :     0.000299  f :     0.004709
      f+1     :     0.000483
      f-1     :     0.001393
      f+2     :    -0.000025
      f-2     :     0.000511
      f+3     :     0.000935
      f-3     :     0.001113
  1 C s       :     3.253968  s :     3.253968
      pz      :     1.007045  p :     2.919984
      px      :     0.945161
      py      :     0.967778
      dz2     :     0.015104  d :     0.089989
      dxz     :     0.004869
      dyz     :     0.029601
      dx2y2   :     0.021124
      dxy     :     0.019290
      f0      :     0.000247  f :     0.004811
      f+1     :     0.000417
      f-1     :     0.001579
      f+2     :     0.000112
      f-2     :     0.000419
      f+3     :     0.000748
      f-3     :     0.001290
  2 P s       :     5.623434  s :     5.623434
      pz      :     2.859055  p :     9.127977
      px      :     3.201621
      py      :     3.067302
      dz2     :     0.023438  d :     0.223221
      dxz     :     0.013626
      dyz     :     0.110839
      dx2y2   :     0.049854
      dxy     :     0.025464
      f0      :     0.000856  f :     0.019966
      f+1     :     0.001789
      f-1     :     0.004025
      f+2     :     0.005716
      f-2     :     0.001894
      f+3     :     0.002379
      f-3     :     0.003307
  3 H s       :     0.975345  s :     0.975345
      pz      :     0.009852  p :     0.023487
      px      :     0.004664
      py      :     0.008971
      dz2     :     0.000323  d :     0.001099
      dxz     :     0.000150
      dyz     :     0.000349
      dx2y2   :     0.000111
      dxy     :     0.000166
  4 H s       :     0.975336  s :     0.975336
      pz      :     0.009851  p :     0.023486
      px      :     0.004664
      py      :     0.008972
      dz2     :     0.000323  d :     0.001098
      dxz     :     0.000150
      dyz     :     0.000349
      dx2y2   :     0.000111
      dxy     :     0.000166
  5 H s       :     0.865484  s :     0.865484
      pz      :     0.009002  p :     0.031884
      px      :     0.010580
      py      :     0.012302
      dz2     :     0.000627  d :     0.002492
      dxz     :     0.000509
      dyz     :     0.000670
      dx2y2   :     0.000227
      dxy     :     0.000459
  6 H s       :     0.865504  s :     0.865504
      pz      :     0.009003  p :     0.031883
      px      :     0.010582
      py      :     0.012299
      dz2     :     0.000627  d :     0.002492
      dxz     :     0.000509
      dyz     :     0.000670
      dx2y2   :     0.000227
      dxy     :     0.000459
  7 H s       :     0.869411  s :     0.869411
      pz      :     0.007593  p :     0.026625
      px      :     0.011999
      py      :     0.007033
      dz2     :     0.000213  d :     0.002141
      dxz     :     0.000416
      dyz     :     0.000158
      dx2y2   :     0.000765
      dxy     :     0.000590
  8 H s       :     0.877007  s :     0.877007
      pz      :     0.008626  p :     0.026397
      px      :     0.007637
      py      :     0.010134
      dz2     :     0.000585  d :     0.002156
      dxz     :     0.000400
      dyz     :     0.000636
      dx2y2   :     0.000205
      dxy     :     0.000330
  9 H s       :     0.877008  s :     0.877008
      pz      :     0.008626  p :     0.026397
      px      :     0.007638
      py      :     0.010133
      dz2     :     0.000585  d :     0.002156
      dxz     :     0.000400
      dyz     :     0.000637
      dx2y2   :     0.000204
      dxy     :     0.000330


                     *******************************
                     * LOEWDIN POPULATION ANALYSIS *
                     *******************************

----------------------
LOEWDIN ATOMIC CHARGES
----------------------
   0 C :   -0.083967
   1 C :    0.084765
   2 P :    0.417596
   3 H :   -0.125197
   4 H :   -0.125194
   5 H :   -0.039486
   6 H :   -0.039485
   7 H :   -0.029008
   8 H :   -0.030012
   9 H :   -0.030012

-------------------------------
LOEWDIN REDUCED ORBITAL CHARGES
-------------------------------
  0 C s       :     2.706119  s :     2.706119
      pz      :     0.999817  p :     2.971630
      px      :     0.989552
      py      :     0.982261
      dz2     :     0.056351  d :     0.376147
      dxz     :     0.034278
      dyz     :     0.104076
      dx2y2   :     0.100798
      dxy     :     0.080645
      f0      :     0.002201  f :     0.030071
      f+1     :     0.003758
      f-1     :     0.005196
      f+2     :     0.003464
      f-2     :     0.004101
      f+3     :     0.006231
      f-3     :     0.005121
  1 C s       :     2.667064  s :     2.667064
      pz      :     0.986427  p :     2.895936
      px      :     0.951011
      py      :     0.958499
      dz2     :     0.054229  d :     0.322864
      dxz     :     0.018752
      dyz     :     0.100611
      dx2y2   :     0.073518
      dxy     :     0.075754
      f0      :     0.001959  f :     0.029370
      f+1     :     0.004261
      f-1     :     0.005267
      f+2     :     0.004063
      f-2     :     0.003132
      f+3     :     0.004430
      f-3     :     0.006258
  2 P s       :     5.155500  s :     5.155500
      pz      :     2.833531  p :     9.021420
      px      :     3.157973
      py      :     3.029917
      dz2     :     0.039030  d :     0.350186
      dxz     :     0.028329
      dyz     :     0.152282
      dx2y2   :     0.077915
      dxy     :     0.052630
      f0      :     0.003128  f :     0.055297
      f+1     :     0.005262
      f-1     :     0.010650
      f+2     :     0.013052
      f-2     :     0.005587
      f+3     :     0.008654
      f-3     :     0.008964
  3 H s       :     0.990463  s :     0.990463
      pz      :     0.043282  p :     0.123120
      px      :     0.030019
      py      :     0.049818
      dz2     :     0.002671  d :     0.011615
      dxz     :     0.001905
      dyz     :     0.003694
      dx2y2   :     0.001315
      dxy     :     0.002030
  4 H s       :     0.990459  s :     0.990459
      pz      :     0.043280  p :     0.123120
      px      :     0.030018
      py      :     0.049823
      dz2     :     0.002671  d :     0.011615
      dxz     :     0.001904
      dyz     :     0.003694
      dx2y2   :     0.001316
      dxy     :     0.002030
  5 H s       :     0.846484  s :     0.846484
      pz      :     0.062879  p :     0.164050
      px      :     0.044323
      py      :     0.056848
      dz2     :     0.008885  d :     0.028952
      dxz     :     0.005437
      dyz     :     0.007729
      dx2y2   :     0.002804
      dxy     :     0.004096
  6 H s       :     0.846479  s :     0.846479
      pz      :     0.062888  p :     0.164055
      px      :     0.044327
      py      :     0.056839
      dz2     :     0.008886  d :     0.028952
      dxz     :     0.005440
      dyz     :     0.007731
      dx2y2   :     0.002801
      dxy     :     0.004094
  7 H s       :     0.849619  s :     0.849619
      pz      :     0.039922  p :     0.152004
      px      :     0.066820
      py      :     0.045261
      dz2     :     0.002281  d :     0.027385
      dxz     :     0.006728
      dyz     :     0.002651
      dx2y2   :     0.008159
      dxy     :     0.007566
  8 H s       :     0.850849  s :     0.850849
      pz      :     0.061278  p :     0.151496
      px      :     0.038065
      py      :     0.052153
      dz2     :     0.008622  d :     0.027667
      dxz     :     0.005288
      dyz     :     0.007369
      dx2y2   :     0.002584
      dxy     :     0.003803
  9 H s       :     0.850849  s :     0.850849
      pz      :     0.061283  p :     0.151496
      px      :     0.038066
      py      :     0.052147
      dz2     :     0.008623  d :     0.027667
      dxz     :     0.005290
      dyz     :     0.007369
      dx2y2   :     0.002583
      dxy     :     0.003802


                      *****************************
                      * MAYER POPULATION ANALYSIS *
                      *****************************

  NA   - Mulliken gross atomic population
  ZA   - Total nuclear charge
  QA   - Mulliken gross atomic charge
  VA   - Mayer's total valence
  BVA  - Mayer's bonded valence
  FA   - Mayer's free valence

  ATOM       NA         ZA         QA         VA         BVA        FA
  0 C      6.2278     6.0000    -0.2278     3.8743     3.8743     0.0000
  1 C      6.2688     6.0000    -0.2688     3.8690     3.8690     0.0000
  2 P     14.9946    15.0000     0.0054     3.0003     3.0003     0.0000
  3 H      0.9999     1.0000     0.0001     0.9896     0.9896     0.0000
  4 H      0.9999     1.0000     0.0001     0.9896     0.9896    -0.0000
  5 H      0.8999     1.0000     0.1001     0.9804     0.9804     0.0000
  6 H      0.8999     1.0000     0.1001     0.9804     0.9804    -0.0000
  7 H      0.8982     1.0000     0.1018     0.9763     0.9763     0.0000
  8 H      0.9056     1.0000     0.0944     0.9797     0.9797     0.0000
  9 H      0.9056     1.0000     0.0944     0.9797     0.9797    -0.0000

  Mayer bond orders larger than 0.1
B(  0-C ,  1-C ) :   0.9438 B(  0-C ,  2-P ) :   0.9976 B(  0-C ,  5-H ) :   0.9711 
B(  0-C ,  6-H ) :   0.9711 B(  1-C ,  7-H ) :   0.9792 B(  1-C ,  8-H ) :   0.9791 
B(  1-C ,  9-H ) :   0.9791 B(  2-P ,  3-H ) :   0.9900 B(  2-P ,  4-H ) :   0.9900 


-------
TIMINGS
-------

Total SCF time: 0 days 0 hours 0 min 3 sec 

Total time                  ....       3.775 sec
Sum of individual times     ....       3.571 sec  ( 94.6%)

Fock matrix formation       ....       3.297 sec  ( 87.3%)
Diagonalization             ....       0.021 sec  (  0.6%)
Density matrix formation    ....       0.004 sec  (  0.1%)
Population analysis         ....       0.010 sec  (  0.3%)
Initial guess               ....       0.157 sec  (  4.1%)
Orbital Transformation      ....       0.000 sec  (  0.0%)
Orbital Orthonormalization  ....       0.000 sec  (  0.0%)
DIIS solution               ....       0.000 sec  (  0.0%)
SOSCF solution              ....       0.026 sec  (  0.7%)


           ************************************************************
           *        Program running with 8 parallel MPI-processes     *
           *              working on a common directory               *
           ************************************************************


------------------------------------------------------------------------------- 
                              ORCA-MATRIX DRIVEN CI                            
------------------------------------------------------------------------------- 


Wavefunction type
-----------------
Correlation treatment                      ...      CCSD     
Single excitations                         ... ON
Orbital optimization                       ... OFF
Calculation of Z vector                    ... OFF
Calculation of Brueckner orbitals          ... OFF
Perturbative triple excitations            ... ON
Calculation of F12 correction              ... OFF
Frozen core treatment                      ... chemical core (14 el)
Reference Wavefunction                     ... RHF
  Internal Orbitals:     7 ...   16 ( 10 MO's/ 20 electrons)
  Virtual  Orbitals:    17 ...  191 (175 MO's              )
Number of AO's                             ...    192
Number of electrons                        ...     34
Number of correlated electrons             ...     20

Algorithmic settings
--------------------
Integral transformation                    ... All integrals via the RI transformation
K(C) Formation                             ... RI-DLPNO
   PNO-Integral Storage                    ... ON DISK
   PNO occupation number cut-off           ... 1.000e-07
   Singles PNO occupation number cut-off   ... 3.000e-09
   PNO Mulliken prescreening cut-off       ... 1.000e-03
   Domain cut-off (Mulliken population)    ... 1.000e-03
   PNO Normalization                       ...    1
Maximum number of iterations               ...        50
Convergence tolerance (max. residuum)      ... 1.000e-05
Level shift for amplitude update           ... 2.000e-01
Maximum number of DIIS vectors             ...         7
DIIS turned on at iteration                ...         0
Damping before turning on DIIS             ...     0.500
Damping after turning on DIIS              ...     0.000
Pair specific amplitude update             ... OFF
Natural orbital iterations                 ... OFF
Perturbative natural orbital generation    ... OFF
Printlevel                                 ... 2

Singles Fock matrix elements calculated using PNOs.

Memory handling:
----------------
Maximum memory for working arrays          ...   8000 MB
Data storage in matrix containers          ... UNCOMPRESSED
Data type for integral storage             ... DOUBLE
In-Core Storage of quantities:
   Amplitudes+Sigma Vector      ... NO
   J+K operators                ... NO
   DIIS vectors                 ... NO
   3-external integrals         ... NO
   4-external integrals         ... NO

Localization treatment:
-----------------------
Localization option                        ...    6
Localization threshhold                    ... -1.0e+00
Using relative localization threshhold     ... 1.0e-08
Neglect threshold for strong pairs         ... 1.000e-05 Eh
Prescreening threshold for very weak pairs ... 1.000e-07 Eh

Initializing the integral package          ... done
Localizing the valence orbitals
------------------------------------------------------------------------------
                           ORCA ORBITAL LOCALIZATION
------------------------------------------------------------------------------

Input orbitals are from                  ... ethylphosphine_a.proc0.gbw
Output orbitals are to                   ... ethylphosphine_a.proc0.loc
Max. number of iterations                ... 128
Localizations seeded randomly            ... off
Convergence tolerance                    ... 1.000e-06
Using relative localization threshhold   ... 1.000e-08
Treshold for strong local MOs            ... 9.500e-01
Treshold for bond MOs                    ... 8.500e-01
Operator                                 ... 0
Orbital range for localization           ... 7 to 16
Localization criterion                   ... FOSTER-BOYS (AUGMENTED HESSIAN)
Doing the dipole integrals     ... o.k.
Initial value of the localization sum :    61.718273
ITERATION   0 : L=   89.7581225143 DL=  2.80e+01 (AVERGE_DL)=    0.7893717489 
ITERATION   1 : L=   91.3276058526 DL=  1.57e+00 (AVERGE_DL)=    0.1867549397 
ITERATION   2 : L=   91.3424988575 DL=  1.49e-02 (AVERGE_DL)=    0.0181921869 
ITERATION   3 : L=   91.3425206829 DL=  2.18e-05 (AVERGE_DL)=    0.0006964269 
ITERATION   4 : L=   91.3425207777 DL=  9.48e-08 (AVERGE_DL)=    0.0000458930 
LOCALIZATION SUM CONVERGED

------------------------------------------------------
AUGMENTED HESSIAN OPTIMIZATION OF FOSTER-BOYS ORBITALS
------------------------------------------------------

Spin operator:           0
Orbital window:          7 to 16
Number of iterations:    128
Gradient tolerance:      1.000e-06
Number of pairs:         45
Davidson threshold:      2000
Diagonalization method:  LAPACK
Iter:    0   L: 91.3425207777   Grad. norm: 3.078554e-04
   *** Likely close to a maximum now. ***
       Augmented Hessian eigenvalues:  1.97e-09 -1.70e+01 -1.71e+01 -1.80e+01 ... 
Iter:    1   L: 91.3425207787   Grad. norm: 2.332461e-10
LOCALIZATION HAS CONVERGED.

Eigenvalues of the Hessian:
  0 -1.702e+01
  1 -1.707e+01
  2 -1.804e+01
  3 -1.845e+01
  4 -1.855e+01
  5 -1.943e+01
  6 -2.300e+01
  7 -2.318e+01
  8 -2.325e+01
  9 -2.390e+01
    ...


------------------------------------------------------------------------------- 
                    LOCALIZED MOLECULAR ORBITAL COMPOSITIONS                   
------------------------------------------------------------------------------- 

The Mulliken populations for each LMO on each atom are computed
The LMO`s will be ordered according to atom index and type
  (A) Strongly localized MO`s have populations of >=0.950 on one atom
  (B) Two center bond orbitals have populations of >=0.850 on two atoms
  (C) Other MO`s are considered to be `delocalized`

FOUND  -   1 strongly local MO`s
       -   9 two center bond MO`s
       -   0 significantly delocalized MO`s

Rather strongly localized orbitals:
MO   7:   2P  -   1.011707
Bond-like localized orbitals:
MO  16:   9H  -   0.472895  and   1C  -   0.552079
MO  15:   8H  -   0.472894  and   1C  -   0.552080
MO  14:   7H  -   0.468792  and   1C  -   0.557112
MO  13:   6H  -   0.469249  and   0C  -   0.549762
MO  12:   5H  -   0.469233  and   0C  -   0.549777
MO  11:   4H  -   0.511492  and   2P  -   0.501782
MO  10:   3H  -   0.511497  and   2P  -   0.501779
MO   9:   2P  -   0.489882  and   0C  -   0.538501
MO   8:   1C  -   0.505629  and   0C  -   0.521758
Localized MO's were stored in: ethylphosphine_a.proc0.loc

Localizing the core orbitals
------------------------------------------------------------------------------
                           ORCA ORBITAL LOCALIZATION
------------------------------------------------------------------------------

Input orbitals are from                  ... ethylphosphine_a.proc0.loc
Output orbitals are to                   ... ethylphosphine_a.proc0.loc
Max. number of iterations                ... 128
Localizations seeded randomly            ... off
Convergence tolerance                    ... 1.000e-06
Using relative localization threshhold   ... 1.000e-08
Treshold for strong local MOs            ... 9.500e-01
Treshold for bond MOs                    ... 8.500e-01
Operator                                 ... 0
Orbital range for localization           ... 0 to 6
Localization criterion                   ... FOSTER-BOYS (AUGMENTED HESSIAN)
Doing the dipole integrals     ... o.k.
Initial value of the localization sum :    39.595171
ITERATION   0 : L=   39.7765118912 DL=  1.81e-01 (AVERGE_DL)=    0.0929261619 
ITERATION   1 : L=   39.8394252679 DL=  6.29e-02 (AVERGE_DL)=    0.0547345876 
ITERATION   2 : L=   39.8408892161 DL=  1.46e-03 (AVERGE_DL)=    0.0083493606 
ITERATION   3 : L=   39.8409411781 DL=  5.20e-05 (AVERGE_DL)=    0.0015730154 
ITERATION   4 : L=   39.8409440366 DL=  2.86e-06 (AVERGE_DL)=    0.0003689454 
ITERATION   5 : L=   39.8409442128 DL=  1.76e-07 (AVERGE_DL)=    0.0000916123 
LOCALIZATION SUM CONVERGED

------------------------------------------------------
AUGMENTED HESSIAN OPTIMIZATION OF FOSTER-BOYS ORBITALS
------------------------------------------------------

Spin operator:           0
Orbital window:          0 to 6
Number of iterations:    128
Gradient tolerance:      1.000e-06
Number of pairs:         21
Davidson threshold:      2000
Diagonalization method:  LAPACK
Iter:    0   L: 39.8409442128   Grad. norm: 2.080799e-04
   *** Detected a saddle point. ***
       Augmented Hessian eigenvalues:  2.53e-04  1.34e-04 -8.41e-07 -2.05e-04 ... 
Iter:    1   L: 39.8409520448   Grad. norm: 2.129714e-04
Iter:    2   L: 39.8409684840   Grad. norm: 2.182778e-04
Iter:    3   L: 39.8409892522   Grad. norm: 2.069520e-04
Iter:    4   L: 39.8410082622   Grad. norm: 1.627668e-04
Iter:    5   L: 39.8410196894   Grad. norm: 7.613856e-05
Iter:    6   L: 39.8410213163   Grad. norm: 3.868338e-06
   *** Likely close to a maximum now. ***
       Augmented Hessian eigenvalues:  5.12e-10 -1.94e-04 -2.47e-04 -3.03e-04 ... 
Iter:    7   L: 39.8410213165   Grad. norm: 5.898271e-10
LOCALIZATION HAS CONVERGED.

Eigenvalues of the Hessian:
  0 -1.940e-04
  1 -2.468e-04
  2 -3.029e-04
  3 -1.632e-01
  4 -1.642e-01
  5 -1.643e-01
  6 -4.916e-01
  7 -6.541e-01
  8 -6.564e-01
  9 -6.565e-01
    ...


------------------------------------------------------------------------------- 
                    LOCALIZED MOLECULAR ORBITAL COMPOSITIONS                   
------------------------------------------------------------------------------- 

The Mulliken populations for each LMO on each atom are computed
The LMO`s will be ordered according to atom index and type
  (A) Strongly localized MO`s have populations of >=0.950 on one atom
  (B) Two center bond orbitals have populations of >=0.850 on two atoms
  (C) Other MO`s are considered to be `delocalized`

FOUND  -   7 strongly local MO`s
       -   0 two center bond MO`s
       -   0 significantly delocalized MO`s

Rather strongly localized orbitals:
MO   6:   2P  -   0.999256
MO   5:   2P  -   1.000154
MO   4:   2P  -   0.999709
MO   3:   2P  -   0.999999
MO   2:   2P  -   0.999709
MO   1:   1C  -   1.001064
MO   0:   0C  -   1.000949
Localized MO's were stored in: ethylphosphine_a.proc0.loc

Warning: internal orbitals are localized - no re-canonicalization of internal orbitals

--------------------------
CLOSED-SHELL FOCK OPERATOR
--------------------------

RI-JK section for the Fock operator:
  RHF full Fock operator         ... done
  RHF frozen core Fock operator  ... done
Time needed for Fock operator              ...            0.699 sec
Reference energy                           ...   -420.584625719

--------------
DLPNO SETTINGS (2015 fully linear scaling implementation)
--------------

TCutMKN:           1.000e-03
TCutPAO:           1.000e-03
TCutPNO:           1.000e-07
TCutPNOSingles:    3.000e-09
TCutEN:            9.700e-01
TCutPAOExt:        1.000e-01
TCutPairs:         1.000e-05
TCutPre:           1.000e-07
TCutOSV:           1.000e-06
TCutDOij:          1.000e-05
TCutDO:            5.000e-03
TCutC:             1.000e-04
TCutCPAO:          1.000e-03
TCutCMO:           1.000e-03
TScaleDOMP2PreScr: 2.000e+00
TScaleMKNMP2PreScr:1.000e+01
TScalePNOMP2PreScr:1.000e+00
PAO overlap thresh 1.000e-08
Using PNOs for Singles Fock computation
Use new domains
Use fully linear algorithm
TCutTNO:           1.000e-09
TCutMP2Pairs:      1.000e-06
TCutDOStrong:      2.000e-03
TCutMKNStrong:     1.000e-02
TCutMKNWeak:       1.000e-01
TCutDOWeak:        4.000e-03
NTCutTNO:          1

--------------------------
Calculating differential overlap integrals ... ok
--------------------------
ELECTRON PAIR PRESCREENING
--------------------------

Dipole-based pair screening          .... used

   TCutDOij = 1.000000e-05
   TCutPre  = 1.000000e-07
   .... Finished loop over pairs
Total time spent in the prescreening                  ...     0.000 sec
sum of pair energies estimated for screened out pairs ...       0.000000000000 Eh
Thresholds for map construction and integral transformation for crude MP2:
   TCutMKN                    ...     1.0e-02
   TCutDO                     ...     1.0e-02
   TCutPairs                  ...     1.0e-05
   TCutPNO_CrudeMP2           ...     1.0e-07
   TCutPNOSingles_CrudeMP2    ...     3.0e-09
--------------------------------
LOCAL RI TRANSFORMATION (IAVPAO)
--------------------------------

Orbital window:       7 to 16
Number of PAOs:     192
Basis functions:    192 (74 shells)
Aux. functions:     494 (148 shells)

Processing maps (0.0 sec)
Average map sizes:
   Aux shells -> MOs              10.0
   Aux shells -> PAOs            192.0
   MOs        -> AO shells        74.0
   PAOs       -> AO shells        74.0

Calculating integrals (0.4 sec, 7.242 MB)
Sorting integrals (0.0 sec, 7.236 MB)
Total time for the integral transformation: 0.4 sec
--------------------------------
INITIAL GUESS AND PNO GENERATION
--------------------------------

PNO truncation parameters                   .... 
    PAOOverlapThresh   =        1.000e-08

    TCutPairs          =        1.000e-05
    TCutPNO            =        1.000e-07
    TCutPNOSingles     =        3.000e-09
    TCutMP2Pairs       =        1.000e-06
    TCutMKN            =        1.000e-02
    TCutDO             =        1.000e-02

Pair selection                          .... not used
Type of local MP2 treatment                 .... semi-local MP2
Strategy for PNO selection                  .... occupation number selection
Pair density normalization                  .... MP2 norm
Spin component scaling                      .... not used

   .... Finished loop over pairs
Making pair pair interaction lists          ... done

                       ===========================
                         55 OF   55 PAIRS ARE KEPT CCSD PAIRS
                          0 OF   55 PAIRS ARE KEPT MP2 PAIRS FOR (T)
                          0 OF   55 PAIRS ARE SKIPPED
                       ===========================

Total time spent in the initial guess                 ...     0.172 sec
SL-MP2 correlation energy (all non-screened pairs)    ...      -0.506791979090 Eh

Initial PNO correlation energy                        ...      -0.506491364944 Eh
sum of pair energies prescreened and skipped MP2 pairs...       0.000000000000 Eh
sum of pair energies of crude MP2 skipped pairs only  ...       0.000000000000 Eh
sum of MP2 pair energies for pairs that were not kept ...       0.000000000000 Eh
sum of PNO error estimates for the kept pairs         ...      -0.000300614145 Eh
                                                          --------------------
sum of all corrections                                         -0.000300614145
Initial total correlation energy                               -0.506791979090
Thresholds for map construction and integral transformation for fine MP2 and CCSD(T) calculation:
   TCutMKN   ...     1.0e-03
   TCutDO    ...     5.0e-03
   TCutPairs ...     1.0e-05
   TCutCMO   ...     1.0e-03
   TCutCPAO  ...     1.0e-03

Thresholds for map construction and integral transformation for strong Triples:
   TCutMKN   ...     1.0e-02
   TCutDO    ...     1.0e-02
   TCutCMO   ...     1.0e-03
   TCutCPAO  ...     1.0e-03

Thresholds for map construction and integral transformation for weak Triples:
   TCutMKN   ...     1.0e-01
   TCutDO    ...     2.0e-02
   TCutCMO   ...     1.0e-03
   TCutCPAO  ...     1.0e-03

--------------------------------
LOCAL RI TRANSFORMATION (IAVPAO)
--------------------------------

Orbital window:       7 to 16
Number of PAOs:     192
Basis functions:    192 (74 shells)
Aux. functions:     494 (148 shells)

Processing maps (0.0 sec)
Average map sizes:
   Aux shells -> MOs              10.0
   Aux shells -> PAOs            192.0
   MOs        -> AO shells        74.0
   PAOs       -> AO shells        74.0

Calculating integrals (0.4 sec, 7.242 MB)
Sorting integrals (0.0 sec, 7.236 MB)
Total time for the integral transformation: 0.4 sec
--------------------------------
INITIAL GUESS AND PNO GENERATION
--------------------------------

PNO truncation parameters                   .... 
    ScaleTCutPNO       =        1.000e-02
    PAOOverlapThresh   =        1.000e-08

    TCutPairs          =        1.000e-05
    TCutPNO            =        1.000e-07
    TCutPNOSingles     =        3.000e-09
    TCutMP2Pairs       =        1.000e-06
    TCutMKN            =        1.000e-03
    TCutDO             =        5.000e-03

Pair selection                          .... not used
Type of local MP2 treatment                 .... full local PMP2
Strategy for PNO selection                  .... occupation number selection
Pair density normalization                  .... MP2 norm
Spin component scaling                      .... not used

PASS-1: Formation of initial guess LMP2 amplitudes
Initial amplitudes guess done. Entering LMP2 iteration loop:
   Max. no of iterations          ...  50
   Energy convergence tolerance   ...    1.0e-07
   Residual convergence tolerance ...    5.0e-07
   Fock matrix cutoff             ...    1.0e-05 Eh
   DIIS convergence acceleration parameters:
        Max # vectors in DIIS     ... 7
        Start iteration of DIIS   ... 0
        Levelshift                ... 2.000e-01
        Damping factor 1          ... 5.000e-01
        Damping factor 2          ... 1.000e+00
   L-MP2 PNO cut-off              ...   1.0e-09
   L-MP2 PNO cut-off (core)       ...   1.0e-11
                           *** Turning on DIIS ***
LMP2-Iter=   0:  ELMP2= -0.513930741445  DE=   7.0e-03 RMAX=   4.7e-03
LMP2-Iter=   1:  ELMP2= -0.518404405553  DE=   4.5e-03 RMAX=   1.6e-03
LMP2-Iter=   2:  ELMP2= -0.519116512979  DE=   7.1e-04 RMAX=   2.3e-04
LMP2-Iter=   3:  ELMP2= -0.519182462340  DE=   6.6e-05 RMAX=   1.0e-04
LMP2-Iter=   4:  ELMP2= -0.519184050338  DE=   1.6e-06 RMAX=   1.2e-05
LMP2-Iter=   5:  ELMP2= -0.519183477836  DE=   5.7e-07 RMAX=   4.4e-06
LMP2-Iter=   6:  ELMP2= -0.519183416927  DE=   6.1e-08 RMAX=   4.6e-07
LMP2-Iter=   7:  ELMP2= -0.519183415759  DE=   1.2e-09 RMAX=   1.1e-07
LMP2-Iter=   8:  ELMP2= -0.519183416324  DE=   5.7e-10 RMAX=   1.1e-08 => CONVERGED
PASS-2: Formation of Pair natural orbitals
   .... Finished loop over pairs

 PNO Occupation Number Statistics: 
  | Av. % of trace(Dij) retained        ...  99.881449628617
  | sigma^2 in % of trace(Dij) retained ...   1.91e-02
  | Av. % of trace(Di) retained         ...  99.999825113192
  | sigma^2 in % of trace(Di) retained  ...   2.84e-09
 Distributions of % trace(Dij) recovered:
  |       >= 99.9  ...    28 ( 50.9 % of all pairs)
  |   [99.0, 99.9) ...    27 ( 49.1 % of all pairs)
 Distributions of % trace(Di) recovered :
  |       >= 99.9  ...    10 (100.0 % of all I-pairs )

Making pair pair interaction lists          ... done

                       ===========================
                         55 OF   55 PAIRS ARE KEPT
                       ===========================

Total time spent in the initial guess                 ...     1.605 sec
L-MP2 correlation energy (all non-screened pairs)     ...      -0.519183416324 Eh
L-MP2 PNO error correction                            ...      -0.000004394831 Eh
                                                          --------------------
Initial total L-MP2 energy (non-screened pairs)       ...      -0.519187811155 Eh

Initial PNO correlation energy                        ...      -0.518887717580 Eh
sum of pair energies estimated for screened out pairs ...       0.000000000000 Eh
sum of MP2 pair energies for pairs that were not kept ...       0.000000000000 Eh
sum of PNO error estimates for the kept pairs         ...      -0.000300093575 Eh
                                                          --------------------
sum of all corrections                                         -0.000300093575
Initial total correlation energy                               -0.519187811155
Thresholds for map construction and integral transformation for fine MP2 and CCSD(T) calculation:
   TCutMKN   ...     1.0e-03
   TCutDO    ...     5.0e-03
   TCutPairs ...     1.0e-05
   TCutCMO   ...     1.0e-03
   TCutCPAO  ...     1.0e-03

Time for aux screen maps:            0.001
Time for maps after fine MP2:            0.003
-----------------------------
LOCAL RI TRANSFORMATION (IJV)
-----------------------------

Orbital window:       7 to 16
Basis functions:    192 (74 shells)
Aux. functions:     494 (148 shells)

Processing maps (0.0 sec)
Average map sizes:
   Aux shells -> MOs(i)           10.0
   Aux shells -> MOs(j)           10.0
   MOs        -> AO shells        74.0

Calculating integrals (0.4 sec, 0.383 MB)
Sorting integrals (0.0 sec, 0.377 MB)
Total time for the integral transformation: 0.4 sec
--------------------------------
LOCAL RI TRANSFORMATION (VABPAO)
--------------------------------

Number of PAOs:     192
Basis functions:    192 (74 shells)
Aux. functions:     494 (148 shells)

Processing maps (0.0 sec)
Average map sizes:
   Aux shells -> PAOs            192.0
   PAOs       -> AO shells        74.0

Calculating integrals (0.6 sec, 261.854 MB)
Finished


-------------------------------------
Pair Pair Term precalculation with     
RI-(ij|mn) and (im|jn) transformation  
ON THE FLY                             
-------------------------------------

   IBatch   1 (of   1)              ... done (    5.745 sec)
Total EXT                           ...           5.745 sec

---------------------
RI-PNO TRANSFORMATION
---------------------

Total Number of PNOs                   ...  2868
Average number of PNOs per pair        ...    52
Maximal number of PNOs per pair        ...    71
   #pairs with  1 -  5 PNOs   :    0
   #pairs with  6 - 10 PNOs   :    0
   #pairs with 11 - 15 PNOs   :    0
   #pairs with 16 - 20 PNOs   :    0
   #pairs with 21 - 25 PNOs   :    0
   #pairs with 26 - 30 PNOs   :    2
   #pairs with 31 - 35 PNOs   :    4
   #pairs with 36 - 40 PNOs   :    2
   #pairs with 41 - 45 PNOs   :    4
   #pairs with 46 - 50 PNOs   :   13
   #pairs with 51 - 55 PNOs   :    8
   #pairs with 56 - 60 PNOs   :    5
   #pairs with 61 - 65 PNOs   :    7
   #pairs with 66 - 70 PNOs   :    9
   #pairs with 71 - 75 PNOs   :    1

Generation of (ij|ab)[P] integrals            ... on
Generation of (ia|bc)[P],(ja|bc)[P] integrals ... on
Storage of 3 and 4 external integrals         ... on
Generation of ALL (ka|bc)[P] integrals        ... on
Keep RI integrals in memory                   ... off

Ibatch:  1 (of  1)
Starting 2-4 index PNO integral generation ... done

Timings:
Total PNO integral transformation time     ...          4.243 sec
Size of the 3-external file                ...        68 MB
Size of the 4-external file                ...       510 MB
Size of the IKJL file                      ...         0 MB
Size of the all 3-external file            ...       344 MB
Size of the 1-external file                ...         0 MB

Making pair/pair overlap matrices          ... done (    0.144 sec)
Size of the pair overlap file              ... 52 MB
Redoing the guess amplitudes               ... done (    0.001 sec)

-------------------------
FINAL STARTUP INFORMATION
-------------------------

E(0)                                       ...   -420.584625719
E(L-MP2)                                   ...     -0.519187811
E(L-MP2) including corrections             ...     -0.519187811
Initial E(tot)                             ...   -421.103813531
<T|T>                                      ...      0.170310039
Number of pairs included                   ... 55
Total number of pairs                      ... 55

------------------------------------------------
                  RHF COUPLED CLUSTER ITERATIONS
------------------------------------------------

Number of PNO amplitudes to be optimized   ...       156668
Number of non-PNO amplitudes               ...      1684375
Untruncated number of regular amplitudes   ...      1684375

Iter       E(tot)           E(Corr)          Delta-E          Residual     Time
  0   -421.091484622     -0.506558809      0.012629002      0.011986256    7.18
                           *** Turning on DIIS ***
  1   -421.129555153     -0.544629340     -0.038070531      0.005956921    7.85
  2   -421.147571116     -0.562645303     -0.018015963      0.002213706    8.76
  3   -421.150733040     -0.565807227     -0.003161924      0.001069828    5.25
  4   -421.151419667     -0.566493854     -0.000686627      0.000370009    6.96
  5   -421.151584751     -0.566658938     -0.000165084      0.000147846    5.26
  6   -421.151627056     -0.566701243     -0.000042305      0.000061094    5.20
  7   -421.151634315     -0.566708502     -0.000007259      0.000027834    5.28
  8   -421.151635341     -0.566709528     -0.000001025      0.000012438    5.25
  9   -421.151635263     -0.566709450      0.000000077      0.000005251    5.21
               --- The Coupled-Cluster iterations have converged ---

----------------------
COUPLED CLUSTER ENERGY
----------------------

E(0)                                       ...   -420.584625719
E(CORR)(strong-pairs)                      ...     -0.566709450
E(CORR)(weak-pairs)                        ...     -0.000300094
E(CORR)(corrected)                         ...     -0.567009544
E(TOT)                                     ...   -421.151635263
Singles Norm <S|S>**1/2                    ...      0.045984032  
T1 diagnostic                              ...      0.010282342  

------------------
LARGEST AMPLITUDES
------------------
   7-> 18   7-> 18       0.055869
   7-> 17   7-> 17       0.046813
   9-> 17   9-> 17       0.037293
  10-> 17  10-> 17       0.037130
  11-> 17  11-> 17       0.037129
   7-> 26   7-> 18       0.034082
   7-> 18   7-> 26       0.034082
   7-> 21   7-> 21       0.030838
  13-> 24  13-> 24       0.029862
  12-> 24  12-> 24       0.029859
  11-> 17  11-> 26       0.028818
  11-> 26  11-> 17       0.028818
  10-> 26  10-> 17       0.028815
  10-> 17  10-> 26       0.028815
  11-> 26  11-> 26       0.027588
  10-> 26  10-> 26       0.027585


-------------------------------------------
DLPNO BASED TRIPLES CORRECTION
-------------------------------------------

Singles multiplier          ...  1.000000
TCutTNO                     ... 1.000e-09
TCutMP2Pairs                ... 1.000e-06
TCutDOStrong                ... 1.000e-02
TCutMKNStrong               ... 1.000e-02
TCutDOWeak                  ... 2.000e-02
TCutMKNWeak                 ... 1.000e-01

Fragment selection                          .... not used
Number of Triples that are to be computed   ...       210

 . . . . . . . . .
10% done  
20% done  
30% done  
40% done  
50% done  
60% done  
70% done  
80% done  
90% done               (     12.272 sec)
Triples timings:
Total time for T0               ...    12.770 sec
Total time for Iterative (T)    ...     0.000 sec
Total time of overall (T)       ...    12.770 sec

Triples List generation         ...     0.000 sec
TNO generation                  ...     0.495 sec
Pair density generation         ...     0.002 sec
Look up tables                  ...     0.000 sec
Generating 3-index integrals    ...     5.011 sec
  Make 4-ind.int. from 3-ind.int...     2.734 sec
  Projecting amplitudes (D + S) ...     0.449 sec
  Downprojecting integrals      ...     0.000 sec
  Energy contr. (sum over a,b,c)...     1.050 sec
Fitting ET(->0)                 ...     0.000 sec

Everything after 3-index        ...     7.261 sec

Timing details:
 TNO integrals                  ...     7.463 sec
   Reading 3-index integrals    ...     0.043 sec
   Sorting integrals            ...     1.624 sec
       Sorting integrals 1      ...     0.000 sec
       Sorting integrals 2      ...     0.246 sec
       Sorting integrals 3      ...     0.061 sec
       Sorting integrals 4      ...     0.001 sec
       Sorting integrals 5      ...     0.008 sec
       Sorting integrals 6      ...     1.308 sec
   Calculating local VM**-1/2   ...     0.023 sec
   Orthogonal. integrals        ...     0.069 sec
   Multipl. 3-index integrals   ...     5.703 sec
   All concerning IRIab (w/TNO) ...     1.261 sec

 Calculate W0/W1                ...     3.025 sec
 W 3-ext contribution           ...     1.739 sec
 W 3-int contribution           ...     0.328 sec
 Sorting W                      ...     0.912 sec

 V exchange contribution        ...     0.368 sec

 Timings for Triples without generation
     of 3-index integrals       ...     7.261 sec
       0 weak pairs             ...     7.261 sec
       1 weak pair              ...     0.000 sec
       2 weak pairs             ...     0.000 sec
       3 weak pairs             ...     0.000 sec
  Extra time for extrapolation  ...     0.000 sec

Number of Triples   (0, 1, 2, 3 weak pairs; overall):    210       0       0       0  (   210)
Number of Atoms     (0, 1, 2, 3 weak pairs; overall):   10.0     0.0     0.0     0.0  (    10)
Number of PAOs      (0, 1, 2, 3 weak pairs; overall):  191.9     0.0     0.0     0.0  (   192)
Number of AuxFcns   (0, 1, 2, 3 weak pairs; overall):  283.5     0.0     0.0     0.0  (   494)
Number of TNOs      (0, 1, 2, 3 weak pairs         ):  105.1     0.0     0.0     0.0
Aver. Number of NTNO, Atoms, PAOs, AuxFcns / Triples:    210   105.1    10.0   191.9   283.5

Triples Correction (T)                     ...     -0.021452269
Final correlation energy                   ...     -0.588461813
E(CCSD)                                    ...   -421.151635263
E(CCSD(T))                                 ...   -421.173087532


Maximum memory used throughout the entire calculation: 1470.4 MB


------------------------------------------------------------------------------- 
                                     TIMINGS                                   
------------------------------------------------------------------------------- 


Total execution time                   ...       90.457 sec

Localization of occupied MO's          ...        0.494 sec (  0.5%)
Fock Matrix Formation                  ...        0.699 sec (  0.8%)
Global overlap, Fock, MKN matrices     ...        0.133 sec (  0.1%)
Differential overlap integrals         ...        0.043 sec (  0.0%)
Organizing maps                        ...        0.009 sec (  0.0%)
RI 3-index integral generations        ...        1.770 sec (  2.0%)
RI-PNO integral transformation         ...       10.209 sec ( 11.3%)
Initial Guess                          ...        1.796 sec (  2.0%)
DIIS Solver                            ...        0.425 sec (  0.5%)
State Vector Update                    ...        0.010 sec (  0.0%)
Sigma-vector construction              ...       62.106 sec ( 68.7%)
  <D|H|D>(0-ext)                       ...        0.335 sec (  0.5% of sigma)
  <D|H|D>(2-ext Fock)                  ...        0.005 sec (  0.0% of sigma)
  <D|H|D>(2-ext)                       ...        1.257 sec (  2.0% of sigma)
  <D|H|D>(4-ext)                       ...        9.571 sec ( 15.4% of sigma)
  <D|H|D>(4-ext-corr)                  ...       40.852 sec ( 65.8% of sigma)
  CCSD doubles correction              ...        0.034 sec (  0.1% of sigma)
  <S|H|S>                              ...        0.220 sec (  0.4% of sigma)
  <S|H|D>(1-ext)                       ...        0.059 sec (  0.1% of sigma)
  <D|H|S>(1-ext)                       ...        0.002 sec (  0.0% of sigma)
  <S|H|D>(3-ext)                       ...        0.183 sec (  0.3% of sigma)
  Fock-dressing                        ...        8.525 sec ( 13.7% of sigma)
  Singles amplitudes                   ...        0.073 sec (  0.1% of sigma)
  (ik|jl)-dressing                     ...        0.239 sec (  0.4% of sigma)
  (ij|ab),(ia|jb)-dressing             ...        0.676 sec (  1.1% of sigma)
  Pair energies                        ...        0.014 sec (  0.0% of sigma)
Total Time for computing (T)           ...       12.779 sec ( 14.1% of ALL)


-------------------------   --------------------
FINAL SINGLE POINT ENERGY      -421.173087532076
-------------------------   --------------------


                            ***************************************
                            *     ORCA property calculations      *
                            ***************************************

                                    ---------------------
                                    Active property flags
                                    ---------------------
   (+) Dipole Moment


------------------------------------------------------------------------------
                       ORCA ELECTRIC PROPERTIES CALCULATION
------------------------------------------------------------------------------

Dipole Moment Calculation                       ... on
Quadrupole Moment Calculation                   ... off
Polarizability Calculation                      ... off
GBWName                                         ... ethylphosphine_a.gbw
Electron density file                           ... ethylphosphine_a.scfp.tmp
The origin for moment calculation is the CENTER OF MASS  = ( 0.188084,  0.035590 -0.000000)

-------------
DIPOLE MOMENT
-------------
                                X             Y             Z
Electronic contribution:      5.89343       1.15768       0.00009
Nuclear contribution   :     -6.39473      -1.21005      -0.00012
                        -----------------------------------------
Total Dipole Moment    :     -0.50131      -0.05237      -0.00004
                        -----------------------------------------
Magnitude (a.u.)       :      0.50403
Magnitude (Debye)      :      1.28115



--------------------
Rotational spectrum 
--------------------
 
Rotational constants in cm-1:     0.862962     0.163300     0.150269 
Rotational constants in MHz : 25870.938973  4895.599851  4504.955638 

 Dipole components along the rotational axes: 
x,y,z [a.u.] :     0.501660    -0.048862    -0.000036 
x,y,z [Debye]:     1.275117    -0.124196    -0.000091 

 

Timings for individual modules:

Sum of individual times         ...       95.063 sec (=   1.584 min)
GTO integral calculation        ...        0.528 sec (=   0.009 min)   0.6 %
SCF iterations                  ...        3.886 sec (=   0.065 min)   4.1 %
MDCI module                     ...       90.649 sec (=   1.511 min)  95.4 %
                             ****ORCA TERMINATED NORMALLY****
TOTAL RUN TIME: 0 days 0 hours 1 minutes 35 seconds 404 msec
ethylphosphine_a.gbw -> /home1/pantazis/klk/xyz_1/Phosphorus_compounds/ethylphosphine_a.gbw
ethylphosphine_a.job -> /home1/pantazis/klk/xyz_1/Phosphorus_compounds/ethylphosphine_a.job
ethylphosphine_a.loc -> /home1/pantazis/klk/xyz_1/Phosphorus_compounds/ethylphosphine_a.loc
ethylphosphine_a.nodes -> /home1/pantazis/klk/xyz_1/Phosphorus_compounds/ethylphosphine_a.nodes
ethylphosphine_a.prop -> /home1/pantazis/klk/xyz_1/Phosphorus_compounds/ethylphosphine_a.prop
ethylphosphine_a_property.txt -> /home1/pantazis/klk/xyz_1/Phosphorus_compounds/ethylphosphine_a_property.txt
ethylphosphine_a.xyz -> /home1/pantazis/klk/xyz_1/Phosphorus_compounds/ethylphosphine_a.xyz
cp: cannot stat ethylphosphine_a.asa.inp: No such file or directory
