! Job execution by suborca V 6.07 on ZEUS !
Job started from zeus1, running /scratch/pantazis/ethyl_methyl_ether_a__b7GDmQ/orca/orca copied from /opt/orca on zeussn129 in /scratch/pantazis/ethyl_methyl_ether_a__b7GDmQ
Job execution start: Thu Jun 27 13:52:56 CEST 2019
Shared library path: /scratch/pantazis/ethyl_methyl_ether_a__b7GDmQ/orca:/opt/openmpi_1.10.2/lib:/opt/intel/mkl/lib/intel64:/opt/intel/lib/intel64:
PBS Job ID is: 158132.icqc
izeussn129
izeussn129
izeussn129
izeussn129
izeussn129
izeussn129
izeussn129
izeussn129

                                 *****************
                                 * O   R   C   A *
                                 *****************

           --- An Ab Initio, DFT and Semiempirical electronic structure package ---

                  #######################################################
                  #                        -***-                        #
                  #          Department of theory and spectroscopy      #
                  #               Directorship: Frank Neese             #
                  #        Max Planck Institute fuer Kohlenforschung    #
                  #                Kaiser Wilhelm Platz 1               #
                  #                 D-45470 Muelheim/Ruhr               #
                  #                      Germany                        #
                  #                                                     #
                  #                  All rights reserved                #
                  #                        -***-                        #
                  #######################################################


                         Program Version 4.1.x  -  STABLE  -
                                (SVN: $Rev: 14094$)
                ($Date: 2019-06-14 15:01:15 +0200 (Fri, 14 Jun 2019) $)

                         (BUILD: $Sun Jun 23 06:18:31 CEST 2019$)


 With contributions from (in alphabetic order):
   Daniel Aravena         : Magnetic Properties
   Michael Atanasov       : Ab Initio Ligand Field Theory
   Alexander A. Auer      : GIAO ZORA
   Ute Becker             : Parallelization
   Giovanni Bistoni       : ED, Open-shell LED
   Martin Brehm           : Molecular dynamics
   Dmytro Bykov           : SCF Hessian
   Vijay G. Chilkuri      : MRCI spin determinant printing
   Dipayan Datta          : RHF DLPNO-CCSD density
   Achintya Kumar Dutta   : EOM-CC, STEOM-CC
   Dmitry Ganyushin       : Spin-Orbit,Spin-Spin,Magnetic field MRCI
   Miquel Garcia          : C-PCM Hessian
   Yang Guo               : DLPNO-NEVPT2, CIM, IAO-localization
   Andreas Hansen         : Spin unrestricted coupled pair/coupled cluster methods
   Benjamin Helmich-Paris : CASSCF linear response (MC-RPA)
   Lee Huntington         : MR-EOM, pCC
   Robert Izsak           : Overlap fitted RIJCOSX, COSX-SCS-MP3, EOM
   Christian Kollmar      : KDIIS, OOCD, Brueckner-CCSD(T), CCSD density
   Simone Kossmann        : Meta GGA functionals, TD-DFT gradient, OOMP2, MP2 Hessian
   Martin Krupicka        : AUTO-CI
   Lucas Lang             : DCDCAS
   Dagmar Lenk            : GEPOL surface, SMD
   Dimitrios Liakos       : Extrapolation schemes; parallel MDCI
   Dimitrios Manganas     : ROCIS; embedding schemes
   Dimitrios Pantazis     : SARC Basis sets
   Taras Petrenko         : DFT Hessian,TD-DFT gradient, ASA, ECA, R-Raman, ABS, FL, XAS/XES, NRVS
   Peter Pinski           : DLPNO-MP2, DLPNO-MP2 Gradient
   Christoph Reimann      : Effective Core Potentials
   Marius Retegan         : Local ZFS, SOC
   Christoph Riplinger    : Optimizer, TS searches, QM/MM, DLPNO-CCSD(T), (RO)-DLPNO pert. Triples
   Tobias Risthaus        : Range-separated hybrids, TD-DFT gradient, RPA, STAB
   Michael Roemelt        : Restricted open shell CIS
   Masaaki Saitow         : Open-shell DLPNO
   Barbara Sandhoefer     : DKH picture change effects
   Avijit Sen             : IP-ROCIS
   Kantharuban Sivalingam : CASSCF convergence, NEVPT2, FIC-MRCI
   Bernardo de Souza      : ESD, SOC TD-DFT
   Georgi Stoychev        : AutoAux, RI-MP2 NMR
   Willem Van den Heuvel  : Paramagnetic NMR
   Boris Wezisla          : Elementary symmetry handling
   Frank Wennmohs         : Technical directorship


 We gratefully acknowledge several colleagues who have allowed us to
 interface, adapt or use parts of their codes:
   Stefan Grimme, W. Hujo, H. Kruse,             : VdW corrections, initial TS optimization,
                  C. Bannwarth                     DFT functionals, gCP, sTDA/sTD-DF
   Ed Valeev                                     : LibInt (2-el integral package), F12 methods
   Garnet Chan, S. Sharma, J. Yang, R. Olivares  : DMRG
   Ulf Ekstrom                                   : XCFun DFT Library
   Mihaly Kallay                                 : mrcc  (arbitrary order and MRCC methods)
   Andreas Klamt, Michael Diedenhofen            : otool_cosmo (COSMO solvation model)
   Jiri Pittner, Ondrej Demel                    : Mk-CCSD
   Frank Weinhold                                : gennbo (NPA and NBO analysis)
   Christopher J. Cramer and Donald G. Truhlar   : smd solvation model
   Lars Goerigk                                  : TD-DFT with DH, B97 family of functionals
   V. Asgeirsson, H. Jonsson                     : NEB implementation
   FAccTs GmbH                                   : IRC, NEB, NEB-TS, Multilevel


 Your calculation uses the libint2 library for the computation of 2-el integrals
 For citations please refer to: http://libint.valeyev.net

 This ORCA versions uses:
   CBLAS   interface :  Fast vector & matrix operations
   LAPACKE interface :  Fast linear algebra routines
   SCALAPACK package :  Parallel linear algebra routines




***************************************
The coordinates will be read from file: ethyl_methyl_ether_a.xyz
***************************************


----- Orbital basis set information -----
Your calculation utilizes the basis: cc-pVTZ 
       H, B-Ne : Obtained from the ccRepo (grant-hill.group.shef.ac.uk/ccrepo) Feb. 2017
                 T. H. Dunning, Jr., J. Chem. Phys. 90, 1007 (1989)
            He : Obtained from the ccRepo (grant-hill.group.shef.ac.uk/ccrepo) Feb. 2017
                 D. E. Woon, T. H. Dunning, Jr., J. Chem. Phys. 100, 2975 (1994)
  Li-Be, Na-Mg : Obtained from the ccRepo (grant-hill.group.shef.ac.uk/ccrepo) Feb. 2017
                 B. P. Prascher, D. E. Woon, K. A. Peterson, T. H. Dunning, Jr., A. K. Wilson, Theor. Chem. Acc. 128, 69 (2011)
         Al-Ar : Obtained from the ccRepo (grant-hill.group.shef.ac.uk/ccrepo) Feb. 2017
                 D. E. Woon, T. H. Dunning, Jr., J. Chem. Phys. 98, 1358 (1993)
            Ca : Obtained from the Peterson Research Group Website (tyr0.chem.wsu.edu/~kipeters) Feb. 2017
                 J. Koput, K. A. Peterson, J. Phys. Chem. 106, 9595 (2002)
         Sc-Zn : Obtained from the ccRepo (grant-hill.group.shef.ac.uk/ccrepo) Feb. 2017
                 N. B. Balabanov, K. A. Peterson, J. Chem. Phys. 123, 064107 (2005)
                 N. B. Balabanov, K. A. Peterson, J. Chem. Phys. 125, 074110 (2006)
         Ga-Kr : Obtained from the ccRepo (grant-hill.group.shef.ac.uk/ccrepo) Feb. 2017
                 A. K. Wilson, D. E. Woon, K. A. Peterson, T. H. Dunning, Jr., J. Chem. Phys. 110, 7667 (1999)
             Y : Obtained from the ccRepo (grant-hill.group.shef.ac.uk/ccrepo) Feb. 2017
                 K. A. Peterson, D. Figgen, M. Dolg, H. Stoll, J. Chem. Phys. 126, 124101 (2007)
        Ag, Au : Obtained from the Peterson Research Group Website (tyr0.chem.wsu.edu/~kipeters) Feb. 2017
                 K. A. Peterson, C. Puzzarini, Theor. Chem. Acc. 114, 283 (2005)

----- AuxC basis set information -----
Your calculation utilizes the auxiliary basis: cc-pVTZ/C 
  Obtained from the EMSL Basis Set Exchange (bse.pnl.gov) Feb. 2017
  H-He, B-F, Al-Ar, Ga-Kr : F. Weigend, A. Kohn, C. Hattig, J. Chem. Phys. 116, 3175 (2002)
             Li-Be, Na-Mg : C. Haettig, Phys. Chem. Chem. Phys. 7, 59 (2005)
                       Ne : C. Haettig, Phys. Chem. Chem. Phys. 7, 59 (2005)
                            F. Weigend, A. Kohn, C. Hattig, J. Chem. Phys. 116, 3175 (2002)
                    Sc-Zn : J. G. Hill, J. A. Platts, J. Chem. Phys. 128, 044104 (2008)

----- AuxJK basis set information -----
Your calculation utilizes the auxiliary basis: cc-pVTZ/JK 
  H, B-F, Al-Cl, Ga-Br : Obtained from the TURBOMOLE 7.0 basis set library

================================================================================
                                        WARNINGS
                       Please study these warnings very carefully!
================================================================================


WARNING: MDCI localization with Augmented Hessian Foster-Boys
  ===> : Switching off randomization!

WARNING: Post HF methods need fully converged wavefunctions
  ===> : Setting SCFConvForced true
         You can overwrite this default with %scf ConvForced false 


INFO   : the flag for use of LIBINT has been found!

================================================================================
                                       INPUT FILE
================================================================================
NAME = ethyl_methyl_ether_a.inp
|  1> ! RHF DLPNO-CCSD(T) cc-pVTZ RIJK cc-pVTZ/JK cc-pVTZ/C
|  2> ! KDIIS SOSCF TightSCF TightPNO
|  3> 
|  4> %pal nprocs 8 end
|  5> 
|  6> %maxcore 8000
|  7> 
|  8> %scf maxiter 300
|  9>      shift shift 0.2 erroff 0.1 end
| 10> end
| 11> 
| 12> * xyzfile 0 1 ethyl_methyl_ether_a.xyz 
| 13> 
| 14> 
| 15>                          ****END OF INPUT****
================================================================================

                       ****************************
                       * Single Point Calculation *
                       ****************************

---------------------------------
CARTESIAN COORDINATES (ANGSTROEM)
---------------------------------
  C      1.859350   -0.169100    0.000050
  C      0.497790    0.505270   -0.000050
  O     -0.508990   -0.497580   -0.000090
  C     -1.820430    0.032860    0.000050
  H      2.655090    0.583600    0.000040
  H      1.977320   -0.798980    0.887110
  H      0.383080    1.148770    0.888800
  H     -2.511100   -0.813410    0.000050
  H     -2.006610    0.648340    0.894310
  H     -2.006750    0.648460   -0.894090
  H      1.977380   -0.799070   -0.886950
  H      0.383170    1.148740   -0.888930

----------------------------
CARTESIAN COORDINATES (A.U.)
----------------------------
  NO LB      ZA    FRAG     MASS         X           Y           Z
   0 C     6.0000    0    12.011    3.513662   -0.319553    0.000094
   1 C     6.0000    0    12.011    0.940687    0.954822   -0.000094
   2 O     8.0000    0    15.999   -0.961852   -0.940290   -0.000170
   3 C     6.0000    0    12.011   -3.440114    0.062096    0.000094
   4 H     1.0000    0     1.008    5.017393    1.102844    0.000076
   5 H     1.0000    0     1.008    3.736593   -1.509853    1.676395
   6 H     1.0000    0     1.008    0.723916    2.170861    1.679589
   7 H     1.0000    0     1.008   -4.745291   -1.537122    0.000094
   8 H     1.0000    0     1.008   -3.791943    1.225185    1.690001
   9 H     1.0000    0     1.008   -3.792208    1.225412   -1.689585
  10 H     1.0000    0     1.008    3.736707   -1.510023   -1.676093
  11 H     1.0000    0     1.008    0.724086    2.170804   -1.679834

--------------------------------
INTERNAL COORDINATES (ANGSTROEM)
--------------------------------
 C      0   0   0     0.000000000000     0.00000000     0.00000000
 C      1   0   0     1.519414538729     0.00000000     0.00000000
 O      2   1   0     1.421025718451   108.76319282     0.00000000
 C      3   2   1     1.414652426146   113.09012137   179.98971370
 H      1   2   3     1.095335308342   110.24331343   179.99762951
 H      1   2   3     1.094322246370   110.61718353   299.99724028
 H      2   1   3     1.103315438395   110.60831411   120.60299141
 H      4   3   2     1.092336011399   107.19714005   180.00241574
 H      4   3   2     1.101444311075   111.48800328   299.25306043
 H      4   3   2     1.101437625106   111.48801684    60.75131870
 H      1   2   3     1.094331888323   110.61570434    59.99903856
 H      2   1   3     1.103312756973   110.60964455   239.39663294

---------------------------
INTERNAL COORDINATES (A.U.)
---------------------------
 C      0   0   0     0.000000000000     0.00000000     0.00000000
 C      1   0   0     2.871277362095     0.00000000     0.00000000
 O      2   1   0     2.685349437132   108.76319282     0.00000000
 C      3   2   1     2.673305660103   113.09012137   179.98971370
 H      1   2   3     2.069883757580   110.24331343   179.99762951
 H      1   2   3     2.067969347897   110.61718353   299.99724028
 H      2   1   3     2.084964017893   110.60831411   120.60299141
 H      4   3   2     2.064215907765   107.19714005   180.00241574
 H      4   3   2     2.081428099698   111.48800328   299.25306043
 H      4   3   2     2.081415465048   111.48801684    60.75131870
 H      1   2   3     2.067987568547   110.61570434    59.99903856
 H      2   1   3     2.084958950741   110.60964455   239.39663294

---------------------
BASIS SET INFORMATION
---------------------
There are 3 groups of distinct atoms

 Group   1 Type C   : 18s5p2d1f contracted to 4s3p2d1f pattern {8811/311/11/1}
 Group   2 Type O   : 18s5p2d1f contracted to 4s3p2d1f pattern {8811/311/11/1}
 Group   3 Type H   : 5s2p1d contracted to 3s2p1d pattern {311/11/1}

Atom   0C    basis set group =>   1
Atom   1C    basis set group =>   1
Atom   2O    basis set group =>   2
Atom   3C    basis set group =>   1
Atom   4H    basis set group =>   3
Atom   5H    basis set group =>   3
Atom   6H    basis set group =>   3
Atom   7H    basis set group =>   3
Atom   8H    basis set group =>   3
Atom   9H    basis set group =>   3
Atom  10H    basis set group =>   3
Atom  11H    basis set group =>   3
-------------------------------
AUXILIARY BASIS SET INFORMATION
-------------------------------
There are 3 groups of distinct atoms

 Group   1 Type C   : 8s6p5d3f1g contracted to 8s6p5d3f1g pattern {11111111/111111/11111/111/1}
 Group   2 Type O   : 8s6p5d3f1g contracted to 8s6p5d3f1g pattern {11111111/111111/11111/111/1}
 Group   3 Type H   : 4s3p2d1f contracted to 4s3p2d1f pattern {1111/111/11/1}

Atom   0C    basis set group =>   1
Atom   1C    basis set group =>   1
Atom   2O    basis set group =>   2
Atom   3C    basis set group =>   1
Atom   4H    basis set group =>   3
Atom   5H    basis set group =>   3
Atom   6H    basis set group =>   3
Atom   7H    basis set group =>   3
Atom   8H    basis set group =>   3
Atom   9H    basis set group =>   3
Atom  10H    basis set group =>   3
Atom  11H    basis set group =>   3
-------------------------------
AUXILIARY BASIS SET INFORMATION
-------------------------------
There are 3 groups of distinct atoms

 Group   1 Type C   : 10s7p5d2f1g contracted to 10s7p5d2f1g pattern {1111111111/1111111/11111/11/1}
 Group   2 Type O   : 10s7p5d2f1g contracted to 10s7p5d2f1g pattern {1111111111/1111111/11111/11/1}
 Group   3 Type H   : 4s3p2d1f contracted to 4s3p2d1f pattern {1111/111/11/1}

Atom   0C    basis set group =>   1
Atom   1C    basis set group =>   1
Atom   2O    basis set group =>   2
Atom   3C    basis set group =>   1
Atom   4H    basis set group =>   3
Atom   5H    basis set group =>   3
Atom   6H    basis set group =>   3
Atom   7H    basis set group =>   3
Atom   8H    basis set group =>   3
Atom   9H    basis set group =>   3
Atom  10H    basis set group =>   3
Atom  11H    basis set group =>   3


           ************************************************************
           *        Program running with 8 parallel MPI-processes     *
           *              working on a common directory               *
           ************************************************************
------------------------------------------------------------------------------
                           ORCA GTO INTEGRAL CALCULATION
                           -- RI-GTO INTEGRALS CHOSEN --
------------------------------------------------------------------------------

                         BASIS SET STATISTICS AND STARTUP INFO

Gaussian basis set:
 # of primitive gaussian shells          ...  168
 # of primitive gaussian functions       ...  328
 # of contracted shells                  ...   88
 # of contracted basis functions         ...  232
 Highest angular momentum                ...    3
 Maximum contraction depth               ...    8
Auxiliary gaussian basis set:
 # of primitive gaussian shells          ...  180
 # of primitive gaussian functions       ...  556
 # of contracted shells                  ...  180
 # of contracted aux-basis functions     ...  556
 Highest angular momentum                ...    4
 Maximum contraction depth               ...    1
Ratio of auxiliary to basis functions    ...  2.40
Integral package used                  ... LIBINT
 One Electron integrals                  ... done
 Ordering auxiliary basis shells         ... done
 Integral threshhold             Thresh  ...  2.500e-11
 Primitive cut-off               TCut    ...  2.500e-12
 Pre-screening matrix                    ... done
 Shell pair data                         ... 
 Ordering of the shell pairs             ... done (   0.001 sec) 3777 of 3916 pairs
 Determination of significant pairs      ... done (   0.000 sec)
 Creation of shell pair data             ... done (   0.001 sec)
 Storage of shell pair data              ... done (   0.001 sec)
 Shell pair data done in (   0.003 sec)
 Computing two index integrals           ... done
 Cholesky decomposition of the V-matrix  ... done


Timings:
 Total evaluation time                   ...   0.289 sec (  0.005 min)
 One electron matrix time                ...   0.032 sec (  0.001 min) = 11.2%
 Schwartz matrix evaluation time         ...   0.167 sec (  0.003 min) = 57.7%
 Two index repulsion integral time       ...   0.031 sec (  0.001 min) = 10.9%
 Cholesky decomposition of V             ...   0.030 sec (  0.000 min) = 10.2%
 Three index repulsion integral time     ...   0.000 sec (  0.000 min) =  0.0%



           ************************************************************
           *        Program running with 8 parallel MPI-processes     *
           *              working on a common directory               *
           ************************************************************
-------------------------------------------------------------------------------
                                 ORCA SCF
-------------------------------------------------------------------------------

------------
SCF SETTINGS
------------
Hamiltonian:
 Ab initio Hamiltonian  Method          .... Hartree-Fock(GTOs)
 RI-approximation to the Coulomb term is turned on
   Number of auxiliary basis functions  .... 556
   RI-JK (J+K treated both via RI)      .... on


General Settings:
 Integral files         IntName         .... ethyl_methyl_ether_a
 Hartree-Fock type      HFTyp           .... RHF
 Total Charge           Charge          ....    0
 Multiplicity           Mult            ....    1
 Number of Electrons    NEL             ....   34
 Basis Dimension        Dim             ....  232
 Nuclear Repulsion      ENuc            ....    133.0880001156 Eh

Convergence Acceleration:
 DIIS                   CNVDIIS         .... off
 Newton-Raphson         CNVNR           .... off
 SOSCF                  CNVSOSCF        .... on
   Start iteration      SOSCFMaxIt      ....   150
   Startup grad/error   SOSCFStart      ....  0.003300
 Level Shifting         CNVShift        .... on
   Level shift para.    LevelShift      ....    0.2000
   Turn off err/grad.   ShiftErr        ....    0.1000
 Zerner damping         CNVZerner       .... off
 Static damping         CNVDamp         .... off
 Fernandez-Rico         CNVRico         .... off

SCF Procedure:
 Maximum # iterations   MaxIter         ....   300
 SCF integral mode      SCFMode         .... Direct
   Integral package                     .... LIBINT
 Reset frequency        DirectResetFreq ....    20
 Integral Threshold     Thresh          ....  2.500e-11 Eh
 Primitive CutOff       TCut            ....  2.500e-12 Eh

Convergence Tolerance:
 Convergence Check Mode ConvCheckMode   .... Total+1el-Energy
 Convergence forced     ConvForced      .... 1
 Energy Change          TolE            ....  1.000e-08 Eh
 1-El. energy change                    ....  1.000e-05 Eh
 Orbital Gradient       TolG            ....  1.000e-05
 Orbital Rotation angle TolX            ....  1.000e-05


Diagonalization of the overlap matrix:
Smallest eigenvalue                        ... 9.798e-04
Time for diagonalization                   ...    0.011 sec
Threshold for overlap eigenvalues          ... 1.000e-08
Number of eigenvalues below threshold      ... 0
Time for construction of square roots      ...    0.021 sec
Total time needed                          ...    0.032 sec

-------------------
DFT GRID GENERATION
-------------------

General Integration Accuracy     IntAcc      ...  4.340
Radial Grid Type                 RadialGrid  ... Gauss-Chebyshev
Angular Grid (max. acc.)         AngularGrid ... Lebedev-110
Angular grid pruning method      GridPruning ... 3 (G Style)
Weight generation scheme         WeightScheme... Becke
Basis function cutoff            BFCut       ...    1.0000e-11
Integration weight cutoff        WCut        ...    1.0000e-14
Grids for H and He will be reduced by one unit

# of grid points (after initial pruning)     ...  13036 (   0.0 sec)
# of grid points (after weights+screening)   ...  12305 (   0.0 sec)
nearest neighbour list constructed           ...    0.0 sec
Grid point re-assignment to atoms done       ...    0.0 sec
Grid point division into batches done        ...    0.0 sec
Reduced shell lists constructed in    0.1 sec

Total number of grid points                  ...    12305
Total number of batches                      ...      199
Average number of points per batch           ...       61
Average number of grid points per atom       ...     1025
Average number of shells per batch           ...    76.92 (87.41%)
Average number of basis functions per batch  ...   200.08 (86.24%)
Average number of large shells per batch     ...    65.81 (85.55%)
Average number of large basis fcns per batch ...   170.35 (85.14%)
Average number of aux-shells per batch       ...    76.92 (42.74%)
Average number of aux functions per batch    ...   200.08 (35.99%)
Maximum spatial batch extension              ...   3.14,  7.31,  5.75 au
Average spatial batch extension              ...   0.19,  0.20,  0.20 au

Time for grid setup =    0.066 sec

------------------------------
INITIAL GUESS: MODEL POTENTIAL
------------------------------
Loading Hartree-Fock densities                     ... done
Calculating cut-offs                               ... done
Setting up the integral package                    ... done
Initializing the effective Hamiltonian             ... done
Starting the Coulomb interaction                   ... done (   0.0 sec)
Reading the grid                                   ... done
Mapping shells                                     ... done
Starting the XC term evaluation                    ... done (   0.0 sec)
Transforming the Hamiltonian                       ... done (   0.0 sec)
Diagonalizing the Hamiltonian                      ... done (   0.0 sec)
Back transforming the eigenvectors                 ... done (   0.0 sec)
Now organizing SCF variables                       ... done
                      ------------------
                      INITIAL GUESS DONE (   0.2 sec)
                      ------------------
--------------
SCF ITERATIONS
--------------
ITER       Energy         Delta-E        Max-DP      RMS-DP      [F,P]   Gradient Norm
                             ****Turning on KDIIS(Cayley)****
  0   -192.9630573190   0.000000000000 0.01093393  0.00029067  0.1696564   0.149241588
  1   -193.0228790566  -0.059821737513 0.01785570  0.00032591  0.1557270   0.129741399
  2   -193.0743030961  -0.051424039550 0.02910110  0.00055448  0.1250269   0.105347820
  3   -193.1373945412  -0.063091445121 0.04419965  0.00089233  0.0758850   0.064656227
                      *** Initiating the SOSCF procedure ***
                           *** Shutting down KDIIS ***
                      *** Re-Reading the Fockian *** 
                      *** Removing any level shift *** 
ITER      Energy       Delta-E        Grad      Rot      Max-DP    RMS-DP
  4   -193.17832132  -0.0409267755  0.002805  0.002805  0.002820  0.000082
  5   -193.17853549  -0.0002141748  0.000570  0.000698  0.001043  0.000027
  6   -193.17854289  -0.0000073947  0.000212  0.000190  0.000426  0.000012
  7   -193.17854489  -0.0000019993  0.000031  0.000057  0.000107  0.000004
  8   -193.17854494  -0.0000000514  0.000022  0.000015  0.000032  0.000001
  9   -193.17854495  -0.0000000157  0.000005  0.000003  0.000008  0.000000
                  ***Gradient check signals convergence***
              ***Rediagonalizing the Fockian in SOSCF/NRSCF***

               *****************************************************
               *                     SUCCESS                       *
               *           SCF CONVERGED AFTER  10 CYCLES          *
               *****************************************************


----------------
TOTAL SCF ENERGY
----------------

Total Energy       :         -193.17854495 Eh           -5256.65545 eV

Components:
Nuclear Repulsion  :          133.08800012 Eh            3621.50860 eV
Electronic Energy  :         -326.26654507 Eh           -8878.16405 eV
One Electron Energy:         -525.77884379 Eh          -14307.16970 eV
Two Electron Energy:          199.51229872 Eh            5429.00565 eV

Virial components:
Potential Energy   :         -386.01068556 Eh          -10503.88476 eV
Kinetic Energy     :          192.83214060 Eh            5247.22931 eV
Virial Ratio       :            2.00179640


---------------
SCF CONVERGENCE
---------------

  Last Energy change         ...   -7.2612e-10  Tolerance :   1.0000e-08
  Last MAX-Density change    ...    2.9285e-06  Tolerance :   1.0000e-07
  Last RMS-Density change    ...    9.2356e-08  Tolerance :   5.0000e-09
  Last Orbital Gradient      ...    1.4096e-06  Tolerance :   1.0000e-05
  Last Orbital Rotation      ...    1.2019e-06  Tolerance :   1.0000e-05

             **** THE GBW FILE WAS UPDATED (ethyl_methyl_ether_a.gbw) ****
             **** DENSITY FILE WAS UPDATED (ethyl_methyl_ether_a.scfp.tmp) ****
             **** ENERGY FILE WAS UPDATED (ethyl_methyl_ether_a.en.tmp) ****
----------------
ORBITAL ENERGIES
----------------

  NO   OCC          E(Eh)            E(eV) 
   0   2.0000     -20.549749      -559.1871 
   1   2.0000     -11.273661      -306.7719 
   2   2.0000     -11.268489      -306.6312 
   3   2.0000     -11.213846      -305.1443 
   4   2.0000      -1.365691       -37.1624 
   5   2.0000      -1.020999       -27.7828 
   6   2.0000      -0.911435       -24.8014 
   7   2.0000      -0.827499       -22.5174 
   8   2.0000      -0.664411       -18.0795 
   9   2.0000      -0.648685       -17.6516 
  10   2.0000      -0.621766       -16.9191 
  11   2.0000      -0.579782       -15.7767 
  12   2.0000      -0.533749       -14.5241 
  13   2.0000      -0.505161       -13.7461 
  14   2.0000      -0.501087       -13.6353 
  15   2.0000      -0.472279       -12.8514 
  16   2.0000      -0.418861       -11.3978 
  17   0.0000       0.142402         3.8750 
  18   0.0000       0.160430         4.3655 
  19   0.0000       0.196086         5.3358 
  20   0.0000       0.196643         5.3509 
  21   0.0000       0.218711         5.9514 
  22   0.0000       0.231107         6.2888 
  23   0.0000       0.238320         6.4850 
  24   0.0000       0.256035         6.9671 
  25   0.0000       0.259933         7.0731 
  26   0.0000       0.333883         9.0854 
  27   0.0000       0.346853         9.4384 
  28   0.0000       0.375578        10.2200 
  29   0.0000       0.393845        10.7171 
  30   0.0000       0.411636        11.2012 
  31   0.0000       0.450562        12.2604 
  32   0.0000       0.477373        12.9900 
  33   0.0000       0.519860        14.1461 
  34   0.0000       0.545959        14.8563 
  35   0.0000       0.568904        15.4807 
  36   0.0000       0.588538        16.0149 
  37   0.0000       0.621049        16.8996 
  38   0.0000       0.632897        17.2220 
  39   0.0000       0.634675        17.2704 
  40   0.0000       0.640369        17.4253 
  41   0.0000       0.648167        17.6375 
  42   0.0000       0.664200        18.0738 
  43   0.0000       0.668301        18.1854 
  44   0.0000       0.681300        18.5391 
  45   0.0000       0.698897        19.0180 
  46   0.0000       0.703893        19.1539 
  47   0.0000       0.759009        20.6537 
  48   0.0000       0.807564        21.9749 
  49   0.0000       0.819903        22.3107 
  50   0.0000       0.887476        24.1495 
  51   0.0000       0.918796        25.0017 
  52   0.0000       0.938808        25.5463 
  53   0.0000       0.959229        26.1019 
  54   0.0000       0.975348        26.5406 
  55   0.0000       1.038928        28.2707 
  56   0.0000       1.071316        29.1520 
  57   0.0000       1.087988        29.6057 
  58   0.0000       1.129681        30.7402 
  59   0.0000       1.150409        31.3042 
  60   0.0000       1.175235        31.9798 
  61   0.0000       1.186157        32.2770 
  62   0.0000       1.214382        33.0450 
  63   0.0000       1.222809        33.2743 
  64   0.0000       1.242674        33.8149 
  65   0.0000       1.270325        34.5673 
  66   0.0000       1.277993        34.7760 
  67   0.0000       1.290786        35.1241 
  68   0.0000       1.321777        35.9674 
  69   0.0000       1.328569        36.1522 
  70   0.0000       1.356417        36.9100 
  71   0.0000       1.367861        37.2214 
  72   0.0000       1.405071        38.2339 
  73   0.0000       1.410951        38.3939 
  74   0.0000       1.428103        38.8607 
  75   0.0000       1.465967        39.8910 
  76   0.0000       1.492844        40.6223 
  77   0.0000       1.504869        40.9496 
  78   0.0000       1.533462        41.7276 
  79   0.0000       1.545715        42.0610 
  80   0.0000       1.566323        42.6218 
  81   0.0000       1.591040        43.2944 
  82   0.0000       1.598691        43.5026 
  83   0.0000       1.604143        43.6509 
  84   0.0000       1.634253        44.4703 
  85   0.0000       1.678866        45.6843 
  86   0.0000       1.759378        47.8751 
  87   0.0000       1.766349        48.0648 
  88   0.0000       1.789298        48.6893 
  89   0.0000       1.885218        51.2994 
  90   0.0000       1.959003        53.3072 
  91   0.0000       2.205017        60.0016 
  92   0.0000       2.215585        60.2891 
  93   0.0000       2.302388        62.6512 
  94   0.0000       2.312737        62.9328 
  95   0.0000       2.459773        66.9338 
  96   0.0000       2.495145        67.8963 
  97   0.0000       2.518732        68.5382 
  98   0.0000       2.586499        70.3822 
  99   0.0000       2.610993        71.0487 
 100   0.0000       2.624270        71.4100 
 101   0.0000       2.680331        72.9355 
 102   0.0000       2.697449        73.4013 
 103   0.0000       2.738996        74.5319 
 104   0.0000       2.794265        76.0358 
 105   0.0000       2.830443        77.0203 
 106   0.0000       2.884164        78.4821 
 107   0.0000       2.901788        78.9617 
 108   0.0000       2.963448        80.6395 
 109   0.0000       3.050773        83.0157 
 110   0.0000       3.054804        83.1254 
 111   0.0000       3.089246        84.0626 
 112   0.0000       3.095321        84.2280 
 113   0.0000       3.095921        84.2443 
 114   0.0000       3.131542        85.2136 
 115   0.0000       3.143000        85.5254 
 116   0.0000       3.159587        85.9767 
 117   0.0000       3.231246        87.9267 
 118   0.0000       3.232485        87.9604 
 119   0.0000       3.260652        88.7269 
 120   0.0000       3.262410        88.7747 
 121   0.0000       3.281313        89.2891 
 122   0.0000       3.292410        89.5910 
 123   0.0000       3.317969        90.2865 
 124   0.0000       3.334342        90.7321 
 125   0.0000       3.339492        90.8722 
 126   0.0000       3.390260        92.2537 
 127   0.0000       3.397176        92.4419 
 128   0.0000       3.414602        92.9160 
 129   0.0000       3.446009        93.7707 
 130   0.0000       3.458341        94.1062 
 131   0.0000       3.493073        95.0513 
 132   0.0000       3.540991        96.3553 
 133   0.0000       3.547325        96.5276 
 134   0.0000       3.573900        97.2508 
 135   0.0000       3.601518        98.0023 
 136   0.0000       3.623333        98.5959 
 137   0.0000       3.634636        98.9035 
 138   0.0000       3.701596       100.7255 
 139   0.0000       3.723346       101.3174 
 140   0.0000       3.730462       101.5110 
 141   0.0000       3.745164       101.9111 
 142   0.0000       3.755796       102.2004 
 143   0.0000       3.769316       102.5683 
 144   0.0000       3.775444       102.7351 
 145   0.0000       3.804345       103.5215 
 146   0.0000       3.810056       103.6769 
 147   0.0000       3.853175       104.8502 
 148   0.0000       3.881659       105.6253 
 149   0.0000       3.908226       106.3482 
 150   0.0000       3.940093       107.2154 
 151   0.0000       3.974430       108.1497 
 152   0.0000       3.979010       108.2744 
 153   0.0000       4.078393       110.9787 
 154   0.0000       4.079483       111.0084 
 155   0.0000       4.113468       111.9332 
 156   0.0000       4.122773       112.1864 
 157   0.0000       4.126055       112.2757 
 158   0.0000       4.166574       113.3782 
 159   0.0000       4.179179       113.7213 
 160   0.0000       4.189274       113.9960 
 161   0.0000       4.235250       115.2470 
 162   0.0000       4.276080       116.3581 
 163   0.0000       4.281592       116.5080 
 164   0.0000       4.330513       117.8392 
 165   0.0000       4.344931       118.2316 
 166   0.0000       4.369449       118.8987 
 167   0.0000       4.373606       119.0119 
 168   0.0000       4.381802       119.2349 
 169   0.0000       4.392637       119.5297 
 170   0.0000       4.401645       119.7748 
 171   0.0000       4.429871       120.5429 
 172   0.0000       4.474836       121.7665 
 173   0.0000       4.503870       122.5565 
 174   0.0000       4.526919       123.1837 
 175   0.0000       4.553378       123.9037 
 176   0.0000       4.610183       125.4495 
 177   0.0000       4.620140       125.7204 
 178   0.0000       4.645023       126.3975 
 179   0.0000       4.710100       128.1683 
 180   0.0000       4.763039       129.6089 
 181   0.0000       4.807243       130.8117 
 182   0.0000       4.810325       130.8956 
 183   0.0000       4.899056       133.3101 
 184   0.0000       4.973362       135.3321 
 185   0.0000       5.007719       136.2670 
 186   0.0000       5.076883       138.1490 
 187   0.0000       5.121700       139.3686 
 188   0.0000       5.156422       140.3134 
 189   0.0000       5.174040       140.7928 
 190   0.0000       5.200749       141.5196 
 191   0.0000       5.209706       141.7633 
 192   0.0000       5.232187       142.3750 
 193   0.0000       5.287326       143.8755 
 194   0.0000       5.317275       144.6904 
 195   0.0000       5.338278       145.2619 
 196   0.0000       5.364403       145.9728 
 197   0.0000       5.417735       147.4241 
 198   0.0000       5.478552       149.0790 
 199   0.0000       5.523255       150.2954 
 200   0.0000       5.560740       151.3154 
 201   0.0000       5.577951       151.7838 
 202   0.0000       5.578726       151.8049 
 203   0.0000       5.610536       152.6704 
 204   0.0000       5.666876       154.2035 
 205   0.0000       5.680749       154.5810 
 206   0.0000       5.709863       155.3733 
 207   0.0000       5.742021       156.2483 
 208   0.0000       5.835248       158.7852 
 209   0.0000       5.851495       159.2273 
 210   0.0000       5.892088       160.3319 
 211   0.0000       5.906377       160.7207 
 212   0.0000       6.093022       165.7996 
 213   0.0000       6.202224       168.7711 
 214   0.0000       6.221196       169.2874 
 215   0.0000       6.248180       170.0216 
 216   0.0000       6.268439       170.5729 
 217   0.0000       6.285595       171.0397 
 218   0.0000       6.445428       175.3890 
 219   0.0000       6.533160       177.7763 
 220   0.0000       6.682494       181.8399 
 221   0.0000       6.807898       185.2523 
 222   0.0000       6.881289       187.2494 
 223   0.0000       7.312921       198.9947 
 224   0.0000       7.351293       200.0389 
 225   0.0000       7.517419       204.5594 
 226   0.0000       7.864108       213.9933 
 227   0.0000       7.890461       214.7103 
 228   0.0000      11.083038       301.5848 
 229   0.0000      13.071373       355.6901 
 230   0.0000      13.803112       375.6018 
 231   0.0000      14.116394       384.1266 

                    ********************************
                    * MULLIKEN POPULATION ANALYSIS *
                    ********************************

-----------------------
MULLIKEN ATOMIC CHARGES
-----------------------
   0 C :   -0.262917
   1 C :    0.084610
   2 O :   -0.364331
   3 C :   -0.054163
   4 H :    0.080199
   5 H :    0.095890
   6 H :    0.052211
   7 H :    0.105260
   8 H :    0.057565
   9 H :    0.057568
  10 H :    0.095887
  11 H :    0.052221
Sum of atomic charges:   -0.0000000

--------------------------------
MULLIKEN REDUCED ORBITAL CHARGES
--------------------------------
  0 C s       :     3.253297  s :     3.253297
      pz      :     1.026458  p :     2.931323
      px      :     0.920923
      py      :     0.983942
      dz2     :     0.012841  d :     0.073719
      dxz     :     0.009263
      dyz     :     0.025163
      dx2y2   :     0.006935
      dxy     :     0.019517
      f0      :     0.000250  f :     0.004577
      f+1     :     0.000458
      f-1     :     0.001546
      f+2     :     0.000196
      f-2     :     0.000328
      f+3     :     0.000534
      f-3     :     0.001265
  1 C s       :     3.160611  s :     3.160611
      pz      :     0.957603  p :     2.588956
      px      :     0.796095
      py      :     0.835259
      dz2     :     0.018110  d :     0.153809
      dxz     :     0.022670
      dyz     :     0.038089
      dx2y2   :     0.037223
      dxy     :     0.037716
      f0      :     0.001472  f :     0.012014
      f+1     :     0.001043
      f-1     :     0.001948
      f+2     :     0.000116
      f-2     :     0.002211
      f+3     :     0.002608
      f-3     :     0.002616
  2 O s       :     3.731525  s :     3.731525
      pz      :     1.866036  p :     4.594827
      px      :     1.187026
      py      :     1.541766
      dz2     :     0.005165  d :     0.035904
      dxz     :     0.004082
      dyz     :     0.002751
      dx2y2   :     0.007268
      dxy     :     0.016638
      f0      :     0.000204  f :     0.002076
      f+1     :     0.000491
      f-1     :     0.000240
      f+2     :     0.000071
      f-2     :     0.000175
      f+3     :     0.000399
      f-3     :     0.000497
  3 C s       :     3.214285  s :     3.214285
      pz      :     0.977453  p :     2.715172
      px      :     0.750863
      py      :     0.986855
      dz2     :     0.015162  d :     0.114605
      dxz     :     0.023463
      dyz     :     0.019551
      dx2y2   :     0.022088
      dxy     :     0.034341
      f0      :     0.001212  f :     0.010101
      f+1     :     0.000996
      f-1     :     0.001725
      f+2     :     0.000957
      f-2     :     0.001104
      f+3     :     0.002106
      f-3     :     0.002000
  4 H s       :     0.890071  s :     0.890071
      pz      :     0.007881  p :     0.027550
      px      :     0.011510
      py      :     0.008159
      dz2     :     0.000222  d :     0.002180
      dxz     :     0.000264
      dyz     :     0.000319
      dx2y2   :     0.000838
      dxy     :     0.000537
  5 H s       :     0.874572  s :     0.874572
      pz      :     0.009327  p :     0.027311
      px      :     0.008744
      py      :     0.009240
      dz2     :     0.000613  d :     0.002227
      dxz     :     0.000459
      dyz     :     0.000585
      dx2y2   :     0.000182
      dxy     :     0.000388
  6 H s       :     0.920954  s :     0.920954
      pz      :     0.008555  p :     0.024547
      px      :     0.006107
      py      :     0.009885
      dz2     :     0.000541  d :     0.002288
      dxz     :     0.000410
      dyz     :     0.000789
      dx2y2   :     0.000207
      dxy     :     0.000340
  7 H s       :     0.868701  s :     0.868701
      pz      :     0.009803  p :     0.024048
      px      :     0.005241
      py      :     0.009004
      dz2     :     0.000204  d :     0.001991
      dxz     :     0.000193
      dyz     :     0.000480
      dx2y2   :     0.000401
      dxy     :     0.000714
  8 H s       :     0.917719  s :     0.917719
      pz      :     0.009134  p :     0.022712
      px      :     0.004193
      py      :     0.009385
      dz2     :     0.000543  d :     0.002003
      dxz     :     0.000368
      dyz     :     0.000711
      dx2y2   :     0.000183
      dxy     :     0.000198
  9 H s       :     0.917716  s :     0.917716
      pz      :     0.009134  p :     0.022712
      px      :     0.004193
      py      :     0.009385
      dz2     :     0.000543  d :     0.002003
      dxz     :     0.000368
      dyz     :     0.000711
      dx2y2   :     0.000183
      dxy     :     0.000198
 10 H s       :     0.874576  s :     0.874576
      pz      :     0.009327  p :     0.027311
      px      :     0.008744
      py      :     0.009240
      dz2     :     0.000613  d :     0.002227
      dxz     :     0.000459
      dyz     :     0.000585
      dx2y2   :     0.000182
      dxy     :     0.000389
 11 H s       :     0.920944  s :     0.920944
      pz      :     0.008556  p :     0.024547
      px      :     0.006107
      py      :     0.009884
      dz2     :     0.000541  d :     0.002288
      dxz     :     0.000410
      dyz     :     0.000789
      dx2y2   :     0.000207
      dxy     :     0.000340


                     *******************************
                     * LOEWDIN POPULATION ANALYSIS *
                     *******************************

----------------------
LOEWDIN ATOMIC CHARGES
----------------------
   0 C :    0.104756
   1 C :   -0.066899
   2 O :    0.241783
   3 C :   -0.000555
   4 H :   -0.027862
   5 H :   -0.026726
   6 H :   -0.039635
   7 H :   -0.032062
   8 H :   -0.043220
   9 H :   -0.043223
  10 H :   -0.026721
  11 H :   -0.039636

-------------------------------
LOEWDIN REDUCED ORBITAL CHARGES
-------------------------------
  0 C s       :     2.665917  s :     2.665917
      pz      :     0.987515  p :     2.895663
      px      :     0.938240
      py      :     0.969908
      dz2     :     0.054113  d :     0.304709
      dxz     :     0.034618
      dyz     :     0.085973
      dx2y2   :     0.042057
      dxy     :     0.087948
      f0      :     0.002139  f :     0.028955
      f+1     :     0.004461
      f-1     :     0.005078
      f+2     :     0.004469
      f-2     :     0.002843
      f+3     :     0.004604
      f-3     :     0.005361
  1 C s       :     2.685018  s :     2.685018
      pz      :     0.993488  p :     2.721638
      px      :     0.851854
      py      :     0.876295
      dz2     :     0.072007  d :     0.582548
      dxz     :     0.073071
      dyz     :     0.166234
      dx2y2   :     0.123454
      dxy     :     0.147782
      f0      :     0.008530  f :     0.077694
      f+1     :     0.007555
      f-1     :     0.007591
      f+2     :     0.004796
      f-2     :     0.014885
      f+3     :     0.019834
      f-3     :     0.014504
  2 O s       :     3.249823  s :     3.249823
      pz      :     1.704301  p :     4.404100
      px      :     1.195705
      py      :     1.504094
      dz2     :     0.009914  d :     0.098647
      dxz     :     0.015325
      dyz     :     0.009178
      dx2y2   :     0.027848
      dxy     :     0.036382
      f0      :     0.000664  f :     0.005647
      f+1     :     0.000631
      f-1     :     0.000240
      f+2     :     0.000226
      f-2     :     0.000861
      f+3     :     0.001672
      f-3     :     0.001353
  3 C s       :     2.687743  s :     2.687743
      pz      :     1.003131  p :     2.775544
      px      :     0.788755
      py      :     0.983658
      dz2     :     0.066942  d :     0.470688
      dxz     :     0.086849
      dyz     :     0.097398
      dx2y2   :     0.075400
      dxy     :     0.144099
      f0      :     0.007126  f :     0.066580
      f+1     :     0.008725
      f-1     :     0.005754
      f+2     :     0.010020
      f-2     :     0.006240
      f+3     :     0.014362
      f-3     :     0.014353
  4 H s       :     0.849115  s :     0.849115
      pz      :     0.040273  p :     0.151179
      px      :     0.056942
      py      :     0.053965
      dz2     :     0.002279  d :     0.027568
      dxz     :     0.004272
      dyz     :     0.005151
      dx2y2   :     0.009032
      dxy     :     0.006834
  5 H s       :     0.847995  s :     0.847995
      pz      :     0.061313  p :     0.150978
      px      :     0.038568
      py      :     0.051097
      dz2     :     0.008609  d :     0.027753
      dxz     :     0.005509
      dyz     :     0.007282
      dx2y2   :     0.002608
      dxy     :     0.003745
  6 H s       :     0.869645  s :     0.869645
      pz      :     0.064149  p :     0.143292
      px      :     0.031426
      py      :     0.047718
      dz2     :     0.008360  d :     0.026698
      dxz     :     0.004512
      dyz     :     0.007832
      dx2y2   :     0.002511
      dxy     :     0.003482
  7 H s       :     0.862411  s :     0.862411
      pz      :     0.039943  p :     0.142750
      px      :     0.044103
      py      :     0.058704
      dz2     :     0.002481  d :     0.026901
      dxz     :     0.003188
      dyz     :     0.006473
      dx2y2   :     0.007264
      dxy     :     0.007495
  8 H s       :     0.874654  s :     0.874654
      pz      :     0.064039  p :     0.142333
      px      :     0.027487
      py      :     0.050808
      dz2     :     0.008342  d :     0.026234
      dxz     :     0.004776
      dyz     :     0.007409
      dx2y2   :     0.002822
      dxy     :     0.002885
  9 H s       :     0.874653  s :     0.874653
      pz      :     0.064032  p :     0.142336
      px      :     0.027490
      py      :     0.050813
      dz2     :     0.008341  d :     0.026234
      dxz     :     0.004776
      dyz     :     0.007408
      dx2y2   :     0.002823
      dxy     :     0.002886
 10 H s       :     0.847994  s :     0.847994
      pz      :     0.061308  p :     0.150975
      px      :     0.038568
      py      :     0.051099
      dz2     :     0.008608  d :     0.027752
      dxz     :     0.005508
      dyz     :     0.007281
      dx2y2   :     0.002608
      dxy     :     0.003746
 11 H s       :     0.869646  s :     0.869646
      pz      :     0.064150  p :     0.143293
      px      :     0.031426
      py      :     0.047717
      dz2     :     0.008360  d :     0.026698
      dxz     :     0.004513
      dyz     :     0.007832
      dx2y2   :     0.002510
      dxy     :     0.003482


                      *****************************
                      * MAYER POPULATION ANALYSIS *
                      *****************************

  NA   - Mulliken gross atomic population
  ZA   - Total nuclear charge
  QA   - Mulliken gross atomic charge
  VA   - Mayer's total valence
  BVA  - Mayer's bonded valence
  FA   - Mayer's free valence

  ATOM       NA         ZA         QA         VA         BVA        FA
  0 C      6.2629     6.0000    -0.2629     3.8993     3.8993    -0.0000
  1 C      5.9154     6.0000     0.0846     3.9006     3.9006    -0.0000
  2 O      8.3643     8.0000    -0.3643     1.9740     1.9740    -0.0000
  3 C      6.0542     6.0000    -0.0542     3.9264     3.9264    -0.0000
  4 H      0.9198     1.0000     0.0802     0.9830     0.9830    -0.0000
  5 H      0.9041     1.0000     0.0959     0.9861     0.9861    -0.0000
  6 H      0.9478     1.0000     0.0522     0.9718     0.9718     0.0000
  7 H      0.8947     1.0000     0.1053     0.9782     0.9782    -0.0000
  8 H      0.9424     1.0000     0.0576     0.9682     0.9682     0.0000
  9 H      0.9424     1.0000     0.0576     0.9682     0.9682    -0.0000
 10 H      0.9041     1.0000     0.0959     0.9861     0.9861     0.0000
 11 H      0.9478     1.0000     0.0522     0.9718     0.9718    -0.0000

  Mayer bond orders larger than 0.1
B(  0-C ,  1-C ) :   0.9758 B(  0-C ,  4-H ) :   0.9779 B(  0-C ,  5-H ) :   0.9793 
B(  0-C , 10-H ) :   0.9793 B(  1-C ,  2-O ) :   0.9866 B(  1-C ,  6-H ) :   0.9700 
B(  1-C , 11-H ) :   0.9700 B(  2-O ,  3-C ) :   0.9962 B(  3-C ,  7-H ) :   0.9836 
B(  3-C ,  8-H ) :   0.9703 B(  3-C ,  9-H ) :   0.9703 

-------
TIMINGS
-------

Total SCF time: 0 days 0 hours 0 min 4 sec 

Total time                  ....       4.676 sec
Sum of individual times     ....       4.479 sec  ( 95.8%)

Fock matrix formation       ....       4.144 sec  ( 88.6%)
Diagonalization             ....       0.033 sec  (  0.7%)
Density matrix formation    ....       0.006 sec  (  0.1%)
Population analysis         ....       0.027 sec  (  0.6%)
Initial guess               ....       0.170 sec  (  3.6%)
Orbital Transformation      ....       0.000 sec  (  0.0%)
Orbital Orthonormalization  ....       0.000 sec  (  0.0%)
DIIS solution               ....       0.000 sec  (  0.0%)
SOSCF solution              ....       0.034 sec  (  0.7%)


           ************************************************************
           *        Program running with 8 parallel MPI-processes     *
           *              working on a common directory               *
           ************************************************************


------------------------------------------------------------------------------- 
                              ORCA-MATRIX DRIVEN CI                            
------------------------------------------------------------------------------- 


Wavefunction type
-----------------
Correlation treatment                      ...      CCSD     
Single excitations                         ... ON
Orbital optimization                       ... OFF
Calculation of Z vector                    ... OFF
Calculation of Brueckner orbitals          ... OFF
Perturbative triple excitations            ... ON
Calculation of F12 correction              ... OFF
Frozen core treatment                      ... chemical core (8 el)
Reference Wavefunction                     ... RHF
  Internal Orbitals:     4 ...   16 ( 13 MO's/ 26 electrons)
  Virtual  Orbitals:    17 ...  231 (215 MO's              )
Number of AO's                             ...    232
Number of electrons                        ...     34
Number of correlated electrons             ...     26

Algorithmic settings
--------------------
Integral transformation                    ... All integrals via the RI transformation
K(C) Formation                             ... RI-DLPNO
   PNO-Integral Storage                    ... ON DISK
   PNO occupation number cut-off           ... 1.000e-07
   Singles PNO occupation number cut-off   ... 3.000e-09
   PNO Mulliken prescreening cut-off       ... 1.000e-03
   Domain cut-off (Mulliken population)    ... 1.000e-03
   PNO Normalization                       ...    1
Maximum number of iterations               ...        50
Convergence tolerance (max. residuum)      ... 1.000e-05
Level shift for amplitude update           ... 2.000e-01
Maximum number of DIIS vectors             ...         7
DIIS turned on at iteration                ...         0
Damping before turning on DIIS             ...     0.500
Damping after turning on DIIS              ...     0.000
Pair specific amplitude update             ... OFF
Natural orbital iterations                 ... OFF
Perturbative natural orbital generation    ... OFF
Printlevel                                 ... 2

Singles Fock matrix elements calculated using PNOs.

Memory handling:
----------------
Maximum memory for working arrays          ...   8000 MB
Data storage in matrix containers          ... UNCOMPRESSED
Data type for integral storage             ... DOUBLE
In-Core Storage of quantities:
   Amplitudes+Sigma Vector      ... NO
   J+K operators                ... NO
   DIIS vectors                 ... NO
   3-external integrals         ... NO
   4-external integrals         ... NO

Localization treatment:
-----------------------
Localization option                        ...    6
Localization threshhold                    ... -1.0e+00
Using relative localization threshhold     ... 1.0e-08
Neglect threshold for strong pairs         ... 1.000e-05 Eh
Prescreening threshold for very weak pairs ... 1.000e-07 Eh

Initializing the integral package          ... done
Localizing the valence orbitals
------------------------------------------------------------------------------
                           ORCA ORBITAL LOCALIZATION
------------------------------------------------------------------------------

Input orbitals are from                  ... ethyl_methyl_ether_a.proc0.gbw
Output orbitals are to                   ... ethyl_methyl_ether_a.proc0.loc
Max. number of iterations                ... 128
Localizations seeded randomly            ... off
Convergence tolerance                    ... 1.000e-06
Using relative localization threshhold   ... 1.000e-08
Treshold for strong local MOs            ... 9.500e-01
Treshold for bond MOs                    ... 8.500e-01
Operator                                 ... 0
Orbital range for localization           ... 4 to 16
Localization criterion                   ... FOSTER-BOYS (AUGMENTED HESSIAN)
Doing the dipole integrals     ... o.k.
Initial value of the localization sum :    99.146020
ITERATION   0 : L=  126.6324772624 DL=  2.75e+01 (AVERGE_DL)=    0.5936248663 
ITERATION   1 : L=  128.3743233884 DL=  1.74e+00 (AVERGE_DL)=    0.1494368114 
ITERATION   2 : L=  128.3974033441 DL=  2.31e-02 (AVERGE_DL)=    0.0172016530 
ITERATION   3 : L=  128.3983520184 DL=  9.49e-04 (AVERGE_DL)=    0.0034874764 
ITERATION   4 : L=  128.3984367098 DL=  8.47e-05 (AVERGE_DL)=    0.0010420109 
ITERATION   5 : L=  128.3984456449 DL=  8.94e-06 (AVERGE_DL)=    0.0003384568 
ITERATION   6 : L=  128.3984465097 DL=  8.65e-07 (AVERGE_DL)=    0.0001052981 
LOCALIZATION SUM CONVERGED

------------------------------------------------------
AUGMENTED HESSIAN OPTIMIZATION OF FOSTER-BOYS ORBITALS
------------------------------------------------------

Spin operator:           0
Orbital window:          4 to 16
Number of iterations:    128
Gradient tolerance:      1.000e-06
Number of pairs:         78
Davidson threshold:      2000
Diagonalization method:  LAPACK
Iter:    0   L: 128.3984465097   Grad. norm: 7.363188e-04
   *** Likely close to a maximum now. ***
       Augmented Hessian eigenvalues:  1.89e-07 -1.30e+00 -3.65e+00 -5.40e+00 ... 
Iter:    1   L: 128.3984466041   Grad. norm: 1.009086e-07
LOCALIZATION HAS CONVERGED.

Eigenvalues of the Hessian:
  0 -1.296e+00
  1 -3.651e+00
  2 -5.402e+00
  3 -5.554e+00
  4 -7.618e+00
  5 -1.089e+01
  6 -1.710e+01
  7 -1.773e+01
  8 -1.786e+01
  9 -1.789e+01
    ...


------------------------------------------------------------------------------- 
                    LOCALIZED MOLECULAR ORBITAL COMPOSITIONS                   
------------------------------------------------------------------------------- 

The Mulliken populations for each LMO on each atom are computed
The LMO`s will be ordered according to atom index and type
  (A) Strongly localized MO`s have populations of >=0.950 on one atom
  (B) Two center bond orbitals have populations of >=0.850 on two atoms
  (C) Other MO`s are considered to be `delocalized`

FOUND  -   2 strongly local MO`s
       -  11 two center bond MO`s
       -   0 significantly delocalized MO`s

Rather strongly localized orbitals:
MO   5:   2O  -   0.973082
MO   4:   2O  -   0.973081
Bond-like localized orbitals:
MO  16:  11H  -   0.498862  and   1C  -   0.535321
MO  15:  10H  -   0.469342  and   0C  -   0.554216
MO  14:   9H  -   0.497169  and   3C  -   0.538071
MO  13:   8H  -   0.497170  and   3C  -   0.538071
MO  12:   7H  -   0.464994  and   3C  -   0.560943
MO  11:   6H  -   0.498868  and   1C  -   0.535316
MO  10:   5H  -   0.469341  and   0C  -   0.554217
MO   9:   4H  -   0.480499  and   0C  -   0.542837
MO   8:   3C  -   0.359935  and   2O  -   0.649885
MO   7:   2O  -   0.658596  and   1C  -   0.355475
MO   6:   1C  -   0.533522  and   0C  -   0.499533
Localized MO's were stored in: ethyl_methyl_ether_a.proc0.loc

Localizing the core orbitals
------------------------------------------------------------------------------
                           ORCA ORBITAL LOCALIZATION
------------------------------------------------------------------------------

Input orbitals are from                  ... ethyl_methyl_ether_a.proc0.loc
Output orbitals are to                   ... ethyl_methyl_ether_a.proc0.loc
Max. number of iterations                ... 128
Localizations seeded randomly            ... off
Convergence tolerance                    ... 1.000e-06
Using relative localization threshhold   ... 1.000e-08
Treshold for strong local MOs            ... 9.500e-01
Treshold for bond MOs                    ... 8.500e-01
Operator                                 ... 0
Orbital range for localization           ... 0 to 3
Localization criterion                   ... FOSTER-BOYS (AUGMENTED HESSIAN)
Doing the dipole integrals     ... o.k.
Initial value of the localization sum :    27.889920
ITERATION   0 : L=   27.8899237360 DL=  3.32e-06 (AVERGE_DL)=    0.0007434505 
ITERATION   1 : L=   27.8899237360 DL=  0.00e+00 (AVERGE_DL)=    0.0000000000 
LOCALIZATION SUM CONVERGED

------------------------------------------------------
AUGMENTED HESSIAN OPTIMIZATION OF FOSTER-BOYS ORBITALS
------------------------------------------------------

Spin operator:           0
Orbital window:          0 to 3
Number of iterations:    128
Gradient tolerance:      1.000e-06
Number of pairs:         6
Davidson threshold:      2000
Diagonalization method:  LAPACK
Iter:    0   L: 27.8899237360   Grad. norm: 1.940871e-04
   *** Likely close to a maximum now. ***
       Augmented Hessian eigenvalues:  1.94e-10 -2.86e+01 -2.88e+01 -3.30e+01 ... 
Iter:    1   L: 27.8899237361   Grad. norm: 7.346330e-16
LOCALIZATION HAS CONVERGED.

Eigenvalues of the Hessian:
  0 -2.858e+01
  1 -2.884e+01
  2 -3.298e+01
  3 -7.994e+01
  4 -8.166e+01
  5 -1.940e+02


------------------------------------------------------------------------------- 
                    LOCALIZED MOLECULAR ORBITAL COMPOSITIONS                   
------------------------------------------------------------------------------- 

The Mulliken populations for each LMO on each atom are computed
The LMO`s will be ordered according to atom index and type
  (A) Strongly localized MO`s have populations of >=0.950 on one atom
  (B) Two center bond orbitals have populations of >=0.850 on two atoms
  (C) Other MO`s are considered to be `delocalized`

FOUND  -   4 strongly local MO`s
       -   0 two center bond MO`s
       -   0 significantly delocalized MO`s

Rather strongly localized orbitals:
MO   3:   3C  -   1.000702
MO   2:   2O  -   0.999657
MO   1:   1C  -   1.000876
MO   0:   0C  -   1.001149
Localized MO's were stored in: ethyl_methyl_ether_a.proc0.loc

Warning: internal orbitals are localized - no re-canonicalization of internal orbitals

--------------------------
CLOSED-SHELL FOCK OPERATOR
--------------------------

RI-JK section for the Fock operator:
  RHF full Fock operator         ... done
  RHF frozen core Fock operator  ... done
Time needed for Fock operator              ...            0.785 sec
Reference energy                           ...   -193.178544953

--------------
DLPNO SETTINGS (2015 fully linear scaling implementation)
--------------

TCutMKN:           1.000e-03
TCutPAO:           1.000e-03
TCutPNO:           1.000e-07
TCutPNOSingles:    3.000e-09
TCutEN:            9.700e-01
TCutPAOExt:        1.000e-01
TCutPairs:         1.000e-05
TCutPre:           1.000e-07
TCutOSV:           1.000e-06
TCutDOij:          1.000e-05
TCutDO:            5.000e-03
TCutC:             1.000e-04
TCutCPAO:          1.000e-03
TCutCMO:           1.000e-03
TScaleDOMP2PreScr: 2.000e+00
TScaleMKNMP2PreScr:1.000e+01
TScalePNOMP2PreScr:1.000e+00
PAO overlap thresh 1.000e-08
Using PNOs for Singles Fock computation
Use new domains
Use fully linear algorithm
TCutTNO:           1.000e-09
TCutMP2Pairs:      1.000e-06
TCutDOStrong:      2.000e-03
TCutMKNStrong:     1.000e-02
TCutMKNWeak:       1.000e-01
TCutDOWeak:        4.000e-03
NTCutTNO:          1

--------------------------
Calculating differential overlap integrals ... ok
--------------------------
ELECTRON PAIR PRESCREENING
--------------------------

Dipole-based pair screening          .... used

   TCutDOij = 1.000000e-05
   TCutPre  = 1.000000e-07
   .... Finished loop over pairs
Total time spent in the prescreening                  ...     0.000 sec
sum of pair energies estimated for screened out pairs ...       0.000000000000 Eh
Thresholds for map construction and integral transformation for crude MP2:
   TCutMKN                    ...     1.0e-02
   TCutDO                     ...     1.0e-02
   TCutPairs                  ...     1.0e-05
   TCutPNO_CrudeMP2           ...     1.0e-07
   TCutPNOSingles_CrudeMP2    ...     3.0e-09
--------------------------------
LOCAL RI TRANSFORMATION (IAVPAO)
--------------------------------

Orbital window:       4 to 16
Number of PAOs:     232
Basis functions:    232 (88 shells)
Aux. functions:     564 (172 shells)

Processing maps (0.0 sec)
Average map sizes:
   Aux shells -> MOs              13.0
   Aux shells -> PAOs            232.0
   MOs        -> AO shells        86.2
   PAOs       -> AO shells        88.0

Calculating integrals (0.3 sec, 12.984 MB)
Sorting integrals (0.0 sec, 12.978 MB)
Total time for the integral transformation: 0.4 sec
--------------------------------
INITIAL GUESS AND PNO GENERATION
--------------------------------

PNO truncation parameters                   .... 
    PAOOverlapThresh   =        1.000e-08

    TCutPairs          =        1.000e-05
    TCutPNO            =        1.000e-07
    TCutPNOSingles     =        3.000e-09
    TCutMP2Pairs       =        1.000e-06
    TCutMKN            =        1.000e-02
    TCutDO             =        1.000e-02

Pair selection                          .... not used
Type of local MP2 treatment                 .... semi-local MP2
Strategy for PNO selection                  .... occupation number selection
Pair density normalization                  .... MP2 norm
Spin component scaling                      .... not used

   .... Finished loop over pairs
Making pair pair interaction lists          ... done

                       ===========================
                         91 OF   91 PAIRS ARE KEPT CCSD PAIRS
                          0 OF   91 PAIRS ARE KEPT MP2 PAIRS FOR (T)
                          0 OF   91 PAIRS ARE SKIPPED
                       ===========================

Total time spent in the initial guess                 ...     0.442 sec
SL-MP2 correlation energy (all non-screened pairs)    ...      -0.750618454087 Eh

Initial PNO correlation energy                        ...      -0.750059533266 Eh
sum of pair energies prescreened and skipped MP2 pairs...       0.000000000000 Eh
sum of pair energies of crude MP2 skipped pairs only  ...       0.000000000000 Eh
sum of MP2 pair energies for pairs that were not kept ...       0.000000000000 Eh
sum of PNO error estimates for the kept pairs         ...      -0.000558920821 Eh
                                                          --------------------
sum of all corrections                                         -0.000558920821
Initial total correlation energy                               -0.750618454087
Thresholds for map construction and integral transformation for fine MP2 and CCSD(T) calculation:
   TCutMKN   ...     1.0e-03
   TCutDO    ...     5.0e-03
   TCutPairs ...     1.0e-05
   TCutCMO   ...     1.0e-03
   TCutCPAO  ...     1.0e-03

Thresholds for map construction and integral transformation for strong Triples:
   TCutMKN   ...     1.0e-02
   TCutDO    ...     1.0e-02
   TCutCMO   ...     1.0e-03
   TCutCPAO  ...     1.0e-03

Thresholds for map construction and integral transformation for weak Triples:
   TCutMKN   ...     1.0e-01
   TCutDO    ...     2.0e-02
   TCutCMO   ...     1.0e-03
   TCutCPAO  ...     1.0e-03

--------------------------------
LOCAL RI TRANSFORMATION (IAVPAO)
--------------------------------

Orbital window:       4 to 16
Number of PAOs:     232
Basis functions:    232 (88 shells)
Aux. functions:     564 (172 shells)

Processing maps (0.0 sec)
Average map sizes:
   Aux shells -> MOs              13.0
   Aux shells -> PAOs            232.0
   MOs        -> AO shells        86.2
   PAOs       -> AO shells        88.0

Calculating integrals (0.4 sec, 12.984 MB)
Sorting integrals (0.0 sec, 12.978 MB)
Total time for the integral transformation: 0.4 sec
--------------------------------
INITIAL GUESS AND PNO GENERATION
--------------------------------

PNO truncation parameters                   .... 
    ScaleTCutPNO       =        1.000e-02
    PAOOverlapThresh   =        1.000e-08

    TCutPairs          =        1.000e-05
    TCutPNO            =        1.000e-07
    TCutPNOSingles     =        3.000e-09
    TCutMP2Pairs       =        1.000e-06
    TCutMKN            =        1.000e-03
    TCutDO             =        5.000e-03

Pair selection                          .... not used
Type of local MP2 treatment                 .... full local PMP2
Strategy for PNO selection                  .... occupation number selection
Pair density normalization                  .... MP2 norm
Spin component scaling                      .... not used

PASS-1: Formation of initial guess LMP2 amplitudes
Initial amplitudes guess done. Entering LMP2 iteration loop:
   Max. no of iterations          ...  50
   Energy convergence tolerance   ...    1.0e-07
   Residual convergence tolerance ...    5.0e-07
   Fock matrix cutoff             ...    1.0e-05 Eh
   DIIS convergence acceleration parameters:
        Max # vectors in DIIS     ... 7
        Start iteration of DIIS   ... 0
        Levelshift                ... 2.000e-01
        Damping factor 1          ... 5.000e-01
        Damping factor 2          ... 1.000e+00
   L-MP2 PNO cut-off              ...   1.0e-09
   L-MP2 PNO cut-off (core)       ...   1.0e-11
                           *** Turning on DIIS ***
LMP2-Iter=   0:  ELMP2= -0.764047400602  DE=   1.3e-02 RMAX=   4.8e-03
LMP2-Iter=   1:  ELMP2= -0.770965649450  DE=   6.9e-03 RMAX=   2.4e-03
LMP2-Iter=   2:  ELMP2= -0.772006393586  DE=   1.0e-03 RMAX=   5.1e-04
LMP2-Iter=   3:  ELMP2= -0.772124942873  DE=   1.2e-04 RMAX=   1.7e-04
LMP2-Iter=   4:  ELMP2= -0.772131399318  DE=   6.5e-06 RMAX=   2.2e-05
LMP2-Iter=   5:  ELMP2= -0.772130500350  DE=   9.0e-07 RMAX=   6.2e-06
LMP2-Iter=   6:  ELMP2= -0.772130371314  DE=   1.3e-07 RMAX=   1.2e-06
LMP2-Iter=   7:  ELMP2= -0.772130366993  DE=   4.3e-09 RMAX=   2.9e-07
LMP2-Iter=   8:  ELMP2= -0.772130374361  DE=   7.4e-09 RMAX=   5.3e-08 => CONVERGED
PASS-2: Formation of Pair natural orbitals
   .... Finished loop over pairs

 PNO Occupation Number Statistics: 
  | Av. % of trace(Dij) retained        ...  99.684970829149
  | sigma^2 in % of trace(Dij) retained ...   2.55e-01
  | Av. % of trace(Di) retained         ...  99.999751276355
  | sigma^2 in % of trace(Di) retained  ...   1.16e-08
 Distributions of % trace(Dij) recovered:
  |       >= 99.9  ...    37 ( 40.7 % of all pairs)
  |   [90.0, 99.0) ...     9 (  9.9 % of all pairs)
  |   [99.0, 99.9) ...    45 ( 49.5 % of all pairs)
 Distributions of % trace(Di) recovered :
  |       >= 99.9  ...    13 (100.0 % of all I-pairs )

Making pair pair interaction lists          ... done

                       ===========================
                         91 OF   91 PAIRS ARE KEPT
                       ===========================

Total time spent in the initial guess                 ...     3.399 sec
L-MP2 correlation energy (all non-screened pairs)     ...      -0.772130374361 Eh
L-MP2 PNO error correction                            ...      -0.000009422509 Eh
                                                          --------------------
Initial total L-MP2 energy (non-screened pairs)       ...      -0.772139796870 Eh

Initial PNO correlation energy                        ...      -0.771600560580 Eh
sum of pair energies estimated for screened out pairs ...       0.000000000000 Eh
sum of MP2 pair energies for pairs that were not kept ...       0.000000000000 Eh
sum of PNO error estimates for the kept pairs         ...      -0.000539236290 Eh
                                                          --------------------
sum of all corrections                                         -0.000539236290
Initial total correlation energy                               -0.772139796870
Thresholds for map construction and integral transformation for fine MP2 and CCSD(T) calculation:
   TCutMKN   ...     1.0e-03
   TCutDO    ...     5.0e-03
   TCutPairs ...     1.0e-05
   TCutCMO   ...     1.0e-03
   TCutCPAO  ...     1.0e-03

Time for aux screen maps:            0.001
Time for maps after fine MP2:            0.005
-----------------------------
LOCAL RI TRANSFORMATION (IJV)
-----------------------------

Orbital window:       4 to 16
Basis functions:    232 (88 shells)
Aux. functions:     564 (172 shells)

Processing maps (0.0 sec)
Average map sizes:
   Aux shells -> MOs(i)           13.0
   Aux shells -> MOs(j)           13.0
   MOs        -> AO shells        86.2

Calculating integrals (0.3 sec, 0.734 MB)
Sorting integrals (0.0 sec, 0.727 MB)
Total time for the integral transformation: 0.3 sec
--------------------------------
LOCAL RI TRANSFORMATION (VABPAO)
--------------------------------

Number of PAOs:     232
Basis functions:    232 (88 shells)
Aux. functions:     564 (172 shells)

Processing maps (0.0 sec)
Average map sizes:
   Aux shells -> PAOs            232.0
   PAOs       -> AO shells        88.0

Calculating integrals (0.7 sec, 436.938 MB)
Finished


-------------------------------------
Pair Pair Term precalculation with     
RI-(ij|mn) and (im|jn) transformation  
ON THE FLY                             
-------------------------------------

   IBatch   1 (of   1)              ... done (   11.342 sec)
Total EXT                           ...          11.342 sec

---------------------
RI-PNO TRANSFORMATION
---------------------

Total Number of PNOs                   ...  4157
Average number of PNOs per pair        ...    45
Maximal number of PNOs per pair        ...    66
   #pairs with  1 -  5 PNOs   :    0
   #pairs with  6 - 10 PNOs   :    2
   #pairs with 11 - 15 PNOs   :    6
   #pairs with 16 - 20 PNOs   :    1
   #pairs with 21 - 25 PNOs   :    0
   #pairs with 26 - 30 PNOs   :   10
   #pairs with 31 - 35 PNOs   :    6
   #pairs with 36 - 40 PNOs   :    4
   #pairs with 41 - 45 PNOs   :    3
   #pairs with 46 - 50 PNOs   :   17
   #pairs with 51 - 55 PNOs   :   16
   #pairs with 56 - 60 PNOs   :    8
   #pairs with 61 - 65 PNOs   :   16
   #pairs with 66 - 70 PNOs   :    2

Generation of (ij|ab)[P] integrals            ... on
Generation of (ia|bc)[P],(ja|bc)[P] integrals ... on
Storage of 3 and 4 external integrals         ... on
Generation of ALL (ka|bc)[P] integrals        ... on
Keep RI integrals in memory                   ... off

Ibatch:  1 (of  1)
Starting 2-4 index PNO integral generation ... done

Timings:
Total PNO integral transformation time     ...          7.292 sec
Size of the 3-external file                ...        88 MB
Size of the 4-external file                ...       622 MB
Size of the IKJL file                      ...         0 MB
Size of the all 3-external file            ...       572 MB
Size of the 1-external file                ...         1 MB

Making pair/pair overlap matrices          ... done (    0.426 sec)
Size of the pair overlap file              ... 104 MB
Redoing the guess amplitudes               ... done (    0.002 sec)

-------------------------
FINAL STARTUP INFORMATION
-------------------------

E(0)                                       ...   -193.178544953
E(L-MP2)                                   ...     -0.772139797
E(L-MP2) including corrections             ...     -0.772139797
Initial E(tot)                             ...   -193.950684750
<T|T>                                      ...      0.201675082
Number of pairs included                   ... 91
Total number of pairs                      ... 91

------------------------------------------------
                  RHF COUPLED CLUSTER ITERATIONS
------------------------------------------------

Number of PNO amplitudes to be optimized   ...       210973
Number of non-PNO amplitudes               ...      4206475
Untruncated number of regular amplitudes   ...      4206475

Iter       E(tot)           E(Corr)          Delta-E          Residual     Time
  0   -193.929152448     -0.750068259      0.022071538      0.017555389    4.50
                           *** Turning on DIIS ***
  1   -193.965689628     -0.786605439     -0.036537180      0.007794431   10.26
  2   -193.986548556     -0.807464366     -0.020858927      0.001665272    4.54
  3   -193.990362029     -0.811277839     -0.003813473      0.001168608    4.51
  4   -193.991208362     -0.812124172     -0.000846333      0.000337925    4.50
  5   -193.991367986     -0.812283796     -0.000159624      0.000213935    4.45
  6   -193.991405426     -0.812321237     -0.000037440      0.000086411    5.52
  7   -193.991411347     -0.812327158     -0.000005921      0.000038106    4.51
  8   -193.991412045     -0.812327855     -0.000000697      0.000012077    4.55
  9   -193.991411313     -0.812327123      0.000000732      0.000002646    4.47
               --- The Coupled-Cluster iterations have converged ---

----------------------
COUPLED CLUSTER ENERGY
----------------------

E(0)                                       ...   -193.178544953
E(CORR)(strong-pairs)                      ...     -0.812327123
E(CORR)(weak-pairs)                        ...     -0.000539236
E(CORR)(corrected)                         ...     -0.812866360
E(TOT)                                     ...   -193.991411313
Singles Norm <S|S>**1/2                    ...      0.046702550  
T1 diagnostic                              ...      0.009159124  

------------------
LARGEST AMPLITUDES
------------------
   7-> 17   7-> 17       0.035697
  11-> 23  11-> 23       0.030997
  16-> 23  16-> 23       0.030994
  15-> 23  15-> 23       0.029307
  10-> 23  10-> 23       0.029302
  13-> 23  13-> 23       0.029138
  14-> 23  14-> 23       0.029135
  11-> 17  11-> 17       0.028742
  16-> 17  16-> 17       0.028742
   9-> 24   9-> 24       0.028034
  13-> 17  13-> 17       0.027902
  14-> 17  14-> 17       0.027901
   8-> 17   8-> 17       0.027438
   9-> 17   9-> 17       0.026975
  15-> 17  15-> 17       0.026386
  10-> 17  10-> 17       0.026385


-------------------------------------------
DLPNO BASED TRIPLES CORRECTION
-------------------------------------------

Singles multiplier          ...  1.000000
TCutTNO                     ... 1.000e-09
TCutMP2Pairs                ... 1.000e-06
TCutDOStrong                ... 1.000e-02
TCutMKNStrong               ... 1.000e-02
TCutDOWeak                  ... 2.000e-02
TCutMKNWeak                 ... 1.000e-01

Fragment selection                          .... not used
Number of Triples that are to be computed   ...       442

 . . . . . . . . .
10% done  
20% done  
30% done  
40% done  
50% done  
60% done  
70% done  
80% done  
90% done               (     26.069 sec)
Triples timings:
Total time for T0               ...    27.575 sec
Total time for Iterative (T)    ...     0.000 sec
Total time of overall (T)       ...    27.575 sec

Triples List generation         ...     0.000 sec
TNO generation                  ...     1.503 sec
Pair density generation         ...     0.002 sec
Look up tables                  ...     0.000 sec
Generating 3-index integrals    ...    13.804 sec
  Make 4-ind.int. from 3-ind.int...     4.530 sec
  Projecting amplitudes (D + S) ...     1.403 sec
  Downprojecting integrals      ...     0.001 sec
  Energy contr. (sum over a,b,c)...     1.700 sec
Fitting ET(->0)                 ...     0.000 sec

Everything after 3-index        ...    12.265 sec

Timing details:
 TNO integrals                  ...    17.780 sec
   Reading 3-index integrals    ...     0.072 sec
   Sorting integrals            ...     2.755 sec
       Sorting integrals 1      ...     0.000 sec
       Sorting integrals 2      ...     0.869 sec
       Sorting integrals 3      ...     0.122 sec
       Sorting integrals 4      ...     0.004 sec
       Sorting integrals 5      ...     0.025 sec
       Sorting integrals 6      ...     1.736 sec
   Calculating local VM**-1/2   ...     0.081 sec
   Orthogonal. integrals        ...     0.175 sec
   Multipl. 3-index integrals   ...    14.696 sec
   All concerning IRIab (w/TNO) ...     2.411 sec

 Calculate W0/W1                ...     4.628 sec
 W 3-ext contribution           ...     2.628 sec
 W 3-int contribution           ...     0.586 sec
 Sorting W                      ...     1.343 sec

 V exchange contribution        ...     0.596 sec

 Timings for Triples without generation
     of 3-index integrals       ...    12.264 sec
       0 weak pairs             ...    12.264 sec
       1 weak pair              ...     0.000 sec
       2 weak pairs             ...     0.000 sec
       3 weak pairs             ...     0.000 sec
  Extra time for extrapolation  ...     0.000 sec

Number of Triples   (0, 1, 2, 3 weak pairs; overall):    442       0       0       0  (   442)
Number of Atoms     (0, 1, 2, 3 weak pairs; overall):   11.8     0.0     0.0     0.0  (    12)
Number of PAOs      (0, 1, 2, 3 weak pairs; overall):  229.3     0.0     0.0     0.0  (   232)
Number of AuxFcns   (0, 1, 2, 3 weak pairs; overall):  331.5     0.0     0.0     0.0  (   564)
Number of TNOs      (0, 1, 2, 3 weak pairs         ):   99.6     0.0     0.0     0.0
Aver. Number of NTNO, Atoms, PAOs, AuxFcns / Triples:    442    99.6    11.8   229.3   331.5

Triples Correction (T)                     ...     -0.028938285
Final correlation energy                   ...     -0.841804645
E(CCSD)                                    ...   -193.991411313
E(CCSD(T))                                 ...   -194.020349599


Maximum memory used throughout the entire calculation: 2389.7 MB


------------------------------------------------------------------------------- 
                                     TIMINGS                                   
------------------------------------------------------------------------------- 


Total execution time                   ...      107.998 sec

Localization of occupied MO's          ...        0.443 sec (  0.4%)
Fock Matrix Formation                  ...        0.785 sec (  0.7%)
Global overlap, Fock, MKN matrices     ...        0.137 sec (  0.1%)
Differential overlap integrals         ...        0.054 sec (  0.1%)
Organizing maps                        ...        0.015 sec (  0.0%)
RI 3-index integral generations        ...        1.798 sec (  1.7%)
RI-PNO integral transformation         ...       21.153 sec ( 19.6%)
Initial Guess                          ...        3.872 sec (  3.6%)
DIIS Solver                            ...        5.003 sec (  4.6%)
State Vector Update                    ...        0.015 sec (  0.0%)
Sigma-vector construction              ...       47.287 sec ( 43.8%)
  <D|H|D>(0-ext)                       ...        0.697 sec (  1.5% of sigma)
  <D|H|D>(2-ext Fock)                  ...        0.007 sec (  0.0% of sigma)
  <D|H|D>(2-ext)                       ...        2.624 sec (  5.5% of sigma)
  <D|H|D>(4-ext)                       ...        7.432 sec ( 15.7% of sigma)
  <D|H|D>(4-ext-corr)                  ...       26.753 sec ( 56.6% of sigma)
  CCSD doubles correction              ...        0.060 sec (  0.1% of sigma)
  <S|H|S>                              ...        0.194 sec (  0.4% of sigma)
  <S|H|D>(1-ext)                       ...        0.105 sec (  0.2% of sigma)
  <D|H|S>(1-ext)                       ...        0.004 sec (  0.0% of sigma)
  <S|H|D>(3-ext)                       ...        0.222 sec (  0.5% of sigma)
  Fock-dressing                        ...        5.969 sec ( 12.6% of sigma)
  Singles amplitudes                   ...        0.144 sec (  0.3% of sigma)
  (ik|jl)-dressing                     ...        0.506 sec (  1.1% of sigma)
  (ij|ab),(ia|jb)-dressing             ...        0.931 sec (  2.0% of sigma)
  Pair energies                        ...        0.004 sec (  0.0% of sigma)
Total Time for computing (T)           ...       27.594 sec ( 25.6% of ALL)


-------------------------   --------------------
FINAL SINGLE POINT ENERGY      -194.020349598585
-------------------------   --------------------


                            ***************************************
                            *     ORCA property calculations      *
                            ***************************************

                                    ---------------------
                                    Active property flags
                                    ---------------------
   (+) Dipole Moment


------------------------------------------------------------------------------
                       ORCA ELECTRIC PROPERTIES CALCULATION
------------------------------------------------------------------------------

Dipole Moment Calculation                       ... on
Quadrupole Moment Calculation                   ... off
Polarizability Calculation                      ... off
GBWName                                         ... ethyl_methyl_ether_a.gbw
Electron density file                           ... ethyl_methyl_ether_a.scfp.tmp
The origin for moment calculation is the CENTER OF MASS  = (-0.026367, -0.054959 -0.000016)

-------------
DIPOLE MOMENT
-------------
                                X             Y             Z
Electronic contribution:     -0.98176      -1.35121      -0.00031
Nuclear contribution   :      0.89633       1.86859       0.00038
                        -----------------------------------------
Total Dipole Moment    :     -0.08542       0.51739       0.00007
                        -----------------------------------------
Magnitude (a.u.)       :      0.52439
Magnitude (Debye)      :      1.33289



--------------------
Rotational spectrum 
--------------------
 
Rotational constants in cm-1:     0.941007     0.137052     0.128357 
Rotational constants in MHz : 28210.692754  4108.713035  3848.038129 

 Dipole components along the rotational axes: 
x,y,z [a.u.] :    -0.079247    -0.518368     0.000063 
x,y,z [Debye]:    -0.201430    -1.317587     0.000161 

 

Timings for individual modules:

Sum of individual times         ...      113.379 sec (=   1.890 min)
GTO integral calculation        ...        0.412 sec (=   0.007 min)   0.4 %
SCF iterations                  ...        4.786 sec (=   0.080 min)   4.2 %
MDCI module                     ...      108.181 sec (=   1.803 min)  95.4 %
                             ****ORCA TERMINATED NORMALLY****
TOTAL RUN TIME: 0 days 0 hours 1 minutes 53 seconds 653 msec
ethyl_methyl_ether_a.gbw -> /home1/pantazis/klk/xyz_1/Oxygen_compounds/ethyl_methyl_ether_a.gbw
ethyl_methyl_ether_a.job -> /home1/pantazis/klk/xyz_1/Oxygen_compounds/ethyl_methyl_ether_a.job
ethyl_methyl_ether_a.loc -> /home1/pantazis/klk/xyz_1/Oxygen_compounds/ethyl_methyl_ether_a.loc
ethyl_methyl_ether_a.nodes -> /home1/pantazis/klk/xyz_1/Oxygen_compounds/ethyl_methyl_ether_a.nodes
ethyl_methyl_ether_a.prop -> /home1/pantazis/klk/xyz_1/Oxygen_compounds/ethyl_methyl_ether_a.prop
ethyl_methyl_ether_a_property.txt -> /home1/pantazis/klk/xyz_1/Oxygen_compounds/ethyl_methyl_ether_a_property.txt
ethyl_methyl_ether_a.xyz -> /home1/pantazis/klk/xyz_1/Oxygen_compounds/ethyl_methyl_ether_a.xyz
cp: cannot stat ethyl_methyl_ether_a.asa.inp: No such file or directory
