! Job execution by suborca V 6.07 on ZEUS !
Job started from zeus1, running /scratch/pantazis/fluoropropane_g__GQxYft/orca/orca copied from /opt/orca on zeussn126 in /scratch/pantazis/fluoropropane_g__GQxYft
Job execution start: Thu Jun 27 10:53:49 CEST 2019
Shared library path: /scratch/pantazis/fluoropropane_g__GQxYft/orca:/opt/openmpi_1.10.2/lib:/opt/intel/mkl/lib/intel64:/opt/intel/lib/intel64:
PBS Job ID is: 157974.icqc
izeussn126
izeussn126
izeussn126
izeussn126
izeussn126
izeussn126
izeussn126
izeussn126

                                 *****************
                                 * O   R   C   A *
                                 *****************

           --- An Ab Initio, DFT and Semiempirical electronic structure package ---

                  #######################################################
                  #                        -***-                        #
                  #          Department of theory and spectroscopy      #
                  #               Directorship: Frank Neese             #
                  #        Max Planck Institute fuer Kohlenforschung    #
                  #                Kaiser Wilhelm Platz 1               #
                  #                 D-45470 Muelheim/Ruhr               #
                  #                      Germany                        #
                  #                                                     #
                  #                  All rights reserved                #
                  #                        -***-                        #
                  #######################################################


                         Program Version 4.1.x  -  STABLE  -
                                (SVN: $Rev: 14094$)
                ($Date: 2019-06-14 15:01:15 +0200 (Fri, 14 Jun 2019) $)

                         (BUILD: $Sun Jun 23 06:18:31 CEST 2019$)


 With contributions from (in alphabetic order):
   Daniel Aravena         : Magnetic Properties
   Michael Atanasov       : Ab Initio Ligand Field Theory
   Alexander A. Auer      : GIAO ZORA
   Ute Becker             : Parallelization
   Giovanni Bistoni       : ED, Open-shell LED
   Martin Brehm           : Molecular dynamics
   Dmytro Bykov           : SCF Hessian
   Vijay G. Chilkuri      : MRCI spin determinant printing
   Dipayan Datta          : RHF DLPNO-CCSD density
   Achintya Kumar Dutta   : EOM-CC, STEOM-CC
   Dmitry Ganyushin       : Spin-Orbit,Spin-Spin,Magnetic field MRCI
   Miquel Garcia          : C-PCM Hessian
   Yang Guo               : DLPNO-NEVPT2, CIM, IAO-localization
   Andreas Hansen         : Spin unrestricted coupled pair/coupled cluster methods
   Benjamin Helmich-Paris : CASSCF linear response (MC-RPA)
   Lee Huntington         : MR-EOM, pCC
   Robert Izsak           : Overlap fitted RIJCOSX, COSX-SCS-MP3, EOM
   Christian Kollmar      : KDIIS, OOCD, Brueckner-CCSD(T), CCSD density
   Simone Kossmann        : Meta GGA functionals, TD-DFT gradient, OOMP2, MP2 Hessian
   Martin Krupicka        : AUTO-CI
   Lucas Lang             : DCDCAS
   Dagmar Lenk            : GEPOL surface, SMD
   Dimitrios Liakos       : Extrapolation schemes; parallel MDCI
   Dimitrios Manganas     : ROCIS; embedding schemes
   Dimitrios Pantazis     : SARC Basis sets
   Taras Petrenko         : DFT Hessian,TD-DFT gradient, ASA, ECA, R-Raman, ABS, FL, XAS/XES, NRVS
   Peter Pinski           : DLPNO-MP2, DLPNO-MP2 Gradient
   Christoph Reimann      : Effective Core Potentials
   Marius Retegan         : Local ZFS, SOC
   Christoph Riplinger    : Optimizer, TS searches, QM/MM, DLPNO-CCSD(T), (RO)-DLPNO pert. Triples
   Tobias Risthaus        : Range-separated hybrids, TD-DFT gradient, RPA, STAB
   Michael Roemelt        : Restricted open shell CIS
   Masaaki Saitow         : Open-shell DLPNO
   Barbara Sandhoefer     : DKH picture change effects
   Avijit Sen             : IP-ROCIS
   Kantharuban Sivalingam : CASSCF convergence, NEVPT2, FIC-MRCI
   Bernardo de Souza      : ESD, SOC TD-DFT
   Georgi Stoychev        : AutoAux, RI-MP2 NMR
   Willem Van den Heuvel  : Paramagnetic NMR
   Boris Wezisla          : Elementary symmetry handling
   Frank Wennmohs         : Technical directorship


 We gratefully acknowledge several colleagues who have allowed us to
 interface, adapt or use parts of their codes:
   Stefan Grimme, W. Hujo, H. Kruse,             : VdW corrections, initial TS optimization,
                  C. Bannwarth                     DFT functionals, gCP, sTDA/sTD-DF
   Ed Valeev                                     : LibInt (2-el integral package), F12 methods
   Garnet Chan, S. Sharma, J. Yang, R. Olivares  : DMRG
   Ulf Ekstrom                                   : XCFun DFT Library
   Mihaly Kallay                                 : mrcc  (arbitrary order and MRCC methods)
   Andreas Klamt, Michael Diedenhofen            : otool_cosmo (COSMO solvation model)
   Jiri Pittner, Ondrej Demel                    : Mk-CCSD
   Frank Weinhold                                : gennbo (NPA and NBO analysis)
   Christopher J. Cramer and Donald G. Truhlar   : smd solvation model
   Lars Goerigk                                  : TD-DFT with DH, B97 family of functionals
   V. Asgeirsson, H. Jonsson                     : NEB implementation
   FAccTs GmbH                                   : IRC, NEB, NEB-TS, Multilevel


 Your calculation uses the libint2 library for the computation of 2-el integrals
 For citations please refer to: http://libint.valeyev.net

 This ORCA versions uses:
   CBLAS   interface :  Fast vector & matrix operations
   LAPACKE interface :  Fast linear algebra routines
   SCALAPACK package :  Parallel linear algebra routines




***************************************
The coordinates will be read from file: fluoropropane_g.xyz
***************************************


----- Orbital basis set information -----
Your calculation utilizes the basis: cc-pVTZ 
       H, B-Ne : Obtained from the ccRepo (grant-hill.group.shef.ac.uk/ccrepo) Feb. 2017
                 T. H. Dunning, Jr., J. Chem. Phys. 90, 1007 (1989)
            He : Obtained from the ccRepo (grant-hill.group.shef.ac.uk/ccrepo) Feb. 2017
                 D. E. Woon, T. H. Dunning, Jr., J. Chem. Phys. 100, 2975 (1994)
  Li-Be, Na-Mg : Obtained from the ccRepo (grant-hill.group.shef.ac.uk/ccrepo) Feb. 2017
                 B. P. Prascher, D. E. Woon, K. A. Peterson, T. H. Dunning, Jr., A. K. Wilson, Theor. Chem. Acc. 128, 69 (2011)
         Al-Ar : Obtained from the ccRepo (grant-hill.group.shef.ac.uk/ccrepo) Feb. 2017
                 D. E. Woon, T. H. Dunning, Jr., J. Chem. Phys. 98, 1358 (1993)
            Ca : Obtained from the Peterson Research Group Website (tyr0.chem.wsu.edu/~kipeters) Feb. 2017
                 J. Koput, K. A. Peterson, J. Phys. Chem. 106, 9595 (2002)
         Sc-Zn : Obtained from the ccRepo (grant-hill.group.shef.ac.uk/ccrepo) Feb. 2017
                 N. B. Balabanov, K. A. Peterson, J. Chem. Phys. 123, 064107 (2005)
                 N. B. Balabanov, K. A. Peterson, J. Chem. Phys. 125, 074110 (2006)
         Ga-Kr : Obtained from the ccRepo (grant-hill.group.shef.ac.uk/ccrepo) Feb. 2017
                 A. K. Wilson, D. E. Woon, K. A. Peterson, T. H. Dunning, Jr., J. Chem. Phys. 110, 7667 (1999)
             Y : Obtained from the ccRepo (grant-hill.group.shef.ac.uk/ccrepo) Feb. 2017
                 K. A. Peterson, D. Figgen, M. Dolg, H. Stoll, J. Chem. Phys. 126, 124101 (2007)
        Ag, Au : Obtained from the Peterson Research Group Website (tyr0.chem.wsu.edu/~kipeters) Feb. 2017
                 K. A. Peterson, C. Puzzarini, Theor. Chem. Acc. 114, 283 (2005)

----- AuxC basis set information -----
Your calculation utilizes the auxiliary basis: cc-pVTZ/C 
  Obtained from the EMSL Basis Set Exchange (bse.pnl.gov) Feb. 2017
  H-He, B-F, Al-Ar, Ga-Kr : F. Weigend, A. Kohn, C. Hattig, J. Chem. Phys. 116, 3175 (2002)
             Li-Be, Na-Mg : C. Haettig, Phys. Chem. Chem. Phys. 7, 59 (2005)
                       Ne : C. Haettig, Phys. Chem. Chem. Phys. 7, 59 (2005)
                            F. Weigend, A. Kohn, C. Hattig, J. Chem. Phys. 116, 3175 (2002)
                    Sc-Zn : J. G. Hill, J. A. Platts, J. Chem. Phys. 128, 044104 (2008)

----- AuxJK basis set information -----
Your calculation utilizes the auxiliary basis: cc-pVTZ/JK 
  H, B-F, Al-Cl, Ga-Br : Obtained from the TURBOMOLE 7.0 basis set library

================================================================================
                                        WARNINGS
                       Please study these warnings very carefully!
================================================================================


WARNING: MDCI localization with Augmented Hessian Foster-Boys
  ===> : Switching off randomization!

WARNING: Post HF methods need fully converged wavefunctions
  ===> : Setting SCFConvForced true
         You can overwrite this default with %scf ConvForced false 


INFO   : the flag for use of LIBINT has been found!

================================================================================
                                       INPUT FILE
================================================================================
NAME = fluoropropane_g.inp
|  1> ! RHF DLPNO-CCSD(T) cc-pVTZ RIJK cc-pVTZ/JK cc-pVTZ/C
|  2> ! KDIIS SOSCF TightSCF TightPNO
|  3> 
|  4> %pal nprocs 8 end
|  5> 
|  6> %maxcore 8000
|  7> 
|  8> %scf maxiter 300
|  9>      shift shift 0.2 erroff 0.1 end
| 10> end
| 11> 
| 12> * xyzfile 0 1 fluoropropane_g.xyz 
| 13> 
| 14> 
| 15>                          ****END OF INPUT****
================================================================================

                       ****************************
                       * Single Point Calculation *
                       ****************************

---------------------------------
CARTESIAN COORDINATES (ANGSTROEM)
---------------------------------
  C      0.794360    0.517840    0.303310
  F      1.421040   -0.654700   -0.171130
  C     -0.597390    0.647870   -0.289070
  C     -1.548300   -0.482470    0.119080
  H      1.437980    1.356340    0.016880
  H      0.766440    0.437570    1.396410
  H     -0.999050    1.617830    0.036050
  H     -0.509350    0.695660   -1.381560
  H     -2.537000   -0.343000   -0.329710
  H     -1.163820   -1.453900   -0.205300
  H     -1.676610   -0.517660    1.207490

----------------------------
CARTESIAN COORDINATES (A.U.)
----------------------------
  NO LB      ZA    FRAG     MASS         X           Y           Z
   0 C     6.0000    0    12.011    1.501123    0.978576    0.573173
   1 F     9.0000    0    18.998    2.685376   -1.237204   -0.323389
   2 C     6.0000    0    12.011   -1.128903    1.224297   -0.546263
   3 C     6.0000    0    12.011   -2.925863   -0.911736    0.225029
   4 H     1.0000    0     1.008    2.717388    2.563111    0.031899
   5 H     1.0000    0     1.008    1.448362    0.826887    2.638832
   6 H     1.0000    0     1.008   -1.887931    3.057256    0.068125
   7 H     1.0000    0     1.008   -0.962532    1.314607   -2.610770
   8 H     1.0000    0     1.008   -4.794235   -0.648176   -0.623062
   9 H     1.0000    0     1.008   -2.199301   -2.747473   -0.387961
  10 H     1.0000    0     1.008   -3.168334   -0.978236    2.281825

--------------------------------
INTERNAL COORDINATES (ANGSTROEM)
--------------------------------
 C      0   0   0     0.000000000000     0.00000000     0.00000000
 F      1   0   0     1.411620057806     0.00000000     0.00000000
 C      1   2   0     1.518153459898   110.30273697     0.00000000
 C      3   1   2     1.532476677212   113.68723896    63.21182083
 H      1   2   3     1.095158024807   106.68812194   238.39708682
 H      1   2   3     1.096398836783   106.59335578   121.60543166
 H      3   1   2     1.099025100532   107.16959305   185.23911040
 H      3   1   2     1.097073072224   108.58616771   300.01854697
 H      4   3   1     1.094710936732   110.93188674   179.84652796
 H      4   3   1     1.093948581836   110.97285434   299.90762788
 H      4   3   1     1.096511796699   111.13989602    59.95234591

---------------------------
INTERNAL COORDINATES (A.U.)
---------------------------
 C      0   0   0     0.000000000000     0.00000000     0.00000000
 F      1   0   0     2.667575314403     0.00000000     0.00000000
 C      1   2   0     2.868894268472   110.30273697     0.00000000
 C      3   1   2     2.895961226553   113.68723896    63.21182083
 H      1   2   3     2.069548740252   106.68812194   238.39708682
 H      1   2   3     2.071893535070   106.59335578   121.60543166
 H      3   1   2     2.076856454311   107.16959305   185.23911040
 H      3   1   2     2.073167655404   108.58616771   300.01854697
 H      4   3   1     2.068703866231   110.93188674   179.84652796
 H      4   3   1     2.067263224261   110.97285434   299.90762788
 H      4   3   1     2.072106998375   111.13989602    59.95234591

---------------------
BASIS SET INFORMATION
---------------------
There are 3 groups of distinct atoms

 Group   1 Type C   : 18s5p2d1f contracted to 4s3p2d1f pattern {8811/311/11/1}
 Group   2 Type F   : 18s5p2d1f contracted to 4s3p2d1f pattern {8811/311/11/1}
 Group   3 Type H   : 5s2p1d contracted to 3s2p1d pattern {311/11/1}

Atom   0C    basis set group =>   1
Atom   1F    basis set group =>   2
Atom   2C    basis set group =>   1
Atom   3C    basis set group =>   1
Atom   4H    basis set group =>   3
Atom   5H    basis set group =>   3
Atom   6H    basis set group =>   3
Atom   7H    basis set group =>   3
Atom   8H    basis set group =>   3
Atom   9H    basis set group =>   3
Atom  10H    basis set group =>   3
-------------------------------
AUXILIARY BASIS SET INFORMATION
-------------------------------
There are 3 groups of distinct atoms

 Group   1 Type C   : 8s6p5d3f1g contracted to 8s6p5d3f1g pattern {11111111/111111/11111/111/1}
 Group   2 Type F   : 8s6p5d3f1g contracted to 8s6p5d3f1g pattern {11111111/111111/11111/111/1}
 Group   3 Type H   : 4s3p2d1f contracted to 4s3p2d1f pattern {1111/111/11/1}

Atom   0C    basis set group =>   1
Atom   1F    basis set group =>   2
Atom   2C    basis set group =>   1
Atom   3C    basis set group =>   1
Atom   4H    basis set group =>   3
Atom   5H    basis set group =>   3
Atom   6H    basis set group =>   3
Atom   7H    basis set group =>   3
Atom   8H    basis set group =>   3
Atom   9H    basis set group =>   3
Atom  10H    basis set group =>   3
-------------------------------
AUXILIARY BASIS SET INFORMATION
-------------------------------
There are 3 groups of distinct atoms

 Group   1 Type C   : 10s7p5d2f1g contracted to 10s7p5d2f1g pattern {1111111111/1111111/11111/11/1}
 Group   2 Type F   : 10s7p5d2f1g contracted to 10s7p5d2f1g pattern {1111111111/1111111/11111/11/1}
 Group   3 Type H   : 4s3p2d1f contracted to 4s3p2d1f pattern {1111/111/11/1}

Atom   0C    basis set group =>   1
Atom   1F    basis set group =>   2
Atom   2C    basis set group =>   1
Atom   3C    basis set group =>   1
Atom   4H    basis set group =>   3
Atom   5H    basis set group =>   3
Atom   6H    basis set group =>   3
Atom   7H    basis set group =>   3
Atom   8H    basis set group =>   3
Atom   9H    basis set group =>   3
Atom  10H    basis set group =>   3


           ************************************************************
           *        Program running with 8 parallel MPI-processes     *
           *              working on a common directory               *
           ************************************************************
------------------------------------------------------------------------------
                           ORCA GTO INTEGRAL CALCULATION
                           -- RI-GTO INTEGRALS CHOSEN --
------------------------------------------------------------------------------

                         BASIS SET STATISTICS AND STARTUP INFO

Gaussian basis set:
 # of primitive gaussian shells          ...  160
 # of primitive gaussian functions       ...  312
 # of contracted shells                  ...   82
 # of contracted basis functions         ...  218
 Highest angular momentum                ...    3
 Maximum contraction depth               ...    8
Auxiliary gaussian basis set:
 # of primitive gaussian shells          ...  170
 # of primitive gaussian functions       ...  526
 # of contracted shells                  ...  170
 # of contracted aux-basis functions     ...  526
 Highest angular momentum                ...    4
 Maximum contraction depth               ...    1
Ratio of auxiliary to basis functions    ...  2.41
Integral package used                  ... LIBINT
 One Electron integrals                  ... done
 Ordering auxiliary basis shells         ... done
 Integral threshhold             Thresh  ...  2.500e-11
 Primitive cut-off               TCut    ...  2.500e-12
 Pre-screening matrix                    ... done
 Shell pair data                         ... 
 Ordering of the shell pairs             ... done (   0.001 sec) 3353 of 3403 pairs
 Determination of significant pairs      ... done (   0.000 sec)
 Creation of shell pair data             ... done (   0.001 sec)
 Storage of shell pair data              ... done (   0.002 sec)
 Shell pair data done in (   0.004 sec)
 Computing two index integrals           ... done
 Cholesky decomposition of the V-matrix  ... done


Timings:
 Total evaluation time                   ...   0.294 sec (  0.005 min)
 One electron matrix time                ...   0.029 sec (  0.000 min) =  9.9%
 Schwartz matrix evaluation time         ...   0.165 sec (  0.003 min) = 56.1%
 Two index repulsion integral time       ...   0.036 sec (  0.001 min) = 12.4%
 Cholesky decomposition of V             ...   0.034 sec (  0.001 min) = 11.5%
 Three index repulsion integral time     ...   0.000 sec (  0.000 min) =  0.0%



           ************************************************************
           *        Program running with 8 parallel MPI-processes     *
           *              working on a common directory               *
           ************************************************************
-------------------------------------------------------------------------------
                                 ORCA SCF
-------------------------------------------------------------------------------

------------
SCF SETTINGS
------------
Hamiltonian:
 Ab initio Hamiltonian  Method          .... Hartree-Fock(GTOs)
 RI-approximation to the Coulomb term is turned on
   Number of auxiliary basis functions  .... 526
   RI-JK (J+K treated both via RI)      .... on


General Settings:
 Integral files         IntName         .... fluoropropane_g
 Hartree-Fock type      HFTyp           .... RHF
 Total Charge           Charge          ....    0
 Multiplicity           Mult            ....    1
 Number of Electrons    NEL             ....   34
 Basis Dimension        Dim             ....  218
 Nuclear Repulsion      ENuc            ....    129.4874717120 Eh

Convergence Acceleration:
 DIIS                   CNVDIIS         .... off
 Newton-Raphson         CNVNR           .... off
 SOSCF                  CNVSOSCF        .... on
   Start iteration      SOSCFMaxIt      ....   150
   Startup grad/error   SOSCFStart      ....  0.003300
 Level Shifting         CNVShift        .... on
   Level shift para.    LevelShift      ....    0.2000
   Turn off err/grad.   ShiftErr        ....    0.1000
 Zerner damping         CNVZerner       .... off
 Static damping         CNVDamp         .... off
 Fernandez-Rico         CNVRico         .... off

SCF Procedure:
 Maximum # iterations   MaxIter         ....   300
 SCF integral mode      SCFMode         .... Direct
   Integral package                     .... LIBINT
 Reset frequency        DirectResetFreq ....    20
 Integral Threshold     Thresh          ....  2.500e-11 Eh
 Primitive CutOff       TCut            ....  2.500e-12 Eh

Convergence Tolerance:
 Convergence Check Mode ConvCheckMode   .... Total+1el-Energy
 Convergence forced     ConvForced      .... 1
 Energy Change          TolE            ....  1.000e-08 Eh
 1-El. energy change                    ....  1.000e-05 Eh
 Orbital Gradient       TolG            ....  1.000e-05
 Orbital Rotation angle TolX            ....  1.000e-05


Diagonalization of the overlap matrix:
Smallest eigenvalue                        ... 9.212e-04
Time for diagonalization                   ...    0.011 sec
Threshold for overlap eigenvalues          ... 1.000e-08
Number of eigenvalues below threshold      ... 0
Time for construction of square roots      ...    0.008 sec
Total time needed                          ...    0.019 sec

-------------------
DFT GRID GENERATION
-------------------

General Integration Accuracy     IntAcc      ...  4.340
Radial Grid Type                 RadialGrid  ... Gauss-Chebyshev
Angular Grid (max. acc.)         AngularGrid ... Lebedev-110
Angular grid pruning method      GridPruning ... 3 (G Style)
Weight generation scheme         WeightScheme... Becke
Basis function cutoff            BFCut       ...    1.0000e-11
Integration weight cutoff        WCut        ...    1.0000e-14
Grids for H and He will be reduced by one unit

# of grid points (after initial pruning)     ...  12266 (   0.0 sec)
# of grid points (after weights+screening)   ...  11581 (   0.0 sec)
nearest neighbour list constructed           ...    0.0 sec
Grid point re-assignment to atoms done       ...    0.0 sec
Grid point division into batches done        ...    0.0 sec
Reduced shell lists constructed in    0.0 sec

Total number of grid points                  ...    11581
Total number of batches                      ...      187
Average number of points per batch           ...       61
Average number of grid points per atom       ...     1053
Average number of shells per batch           ...    64.00 (78.05%)
Average number of basis functions per batch  ...   166.48 (76.37%)
Average number of large shells per batch     ...    52.60 (82.19%)
Average number of large basis fcns per batch ...   135.72 (81.52%)
Average number of aux-shells per batch       ...    64.00 (37.65%)
Average number of aux functions per batch    ...   166.48 (31.65%)
Maximum spatial batch extension              ...  17.18, 17.84, 19.17 au
Average spatial batch extension              ...   0.51,  0.56,  0.60 au

Time for grid setup =    0.061 sec

------------------------------
INITIAL GUESS: MODEL POTENTIAL
------------------------------
Loading Hartree-Fock densities                     ... done
Calculating cut-offs                               ... done
Setting up the integral package                    ... done
Initializing the effective Hamiltonian             ... done
Starting the Coulomb interaction                   ... done (   0.0 sec)
Reading the grid                                   ... done
Mapping shells                                     ... done
Starting the XC term evaluation                    ... done (   0.0 sec)
Transforming the Hamiltonian                       ... done (   0.0 sec)
Diagonalizing the Hamiltonian                      ... done (   0.0 sec)
Back transforming the eigenvectors                 ... done (   0.0 sec)
Now organizing SCF variables                       ... done
                      ------------------
                      INITIAL GUESS DONE (   0.2 sec)
                      ------------------
--------------
SCF ITERATIONS
--------------
ITER       Energy         Delta-E        Max-DP      RMS-DP      [F,P]   Gradient Norm
                             ****Turning on KDIIS(Cayley)****
  0   -216.9998266035   0.000000000000 0.01077869  0.00026695  0.1991015   0.147149640
  1   -217.0524661855  -0.052639581960 0.01788975  0.00032865  0.1812962   0.128936624
  2   -217.1002419046  -0.047775719069 0.02923654  0.00056890  0.1462295   0.104351248
  3   -217.1590064054  -0.058764500878 0.04404279  0.00090854  0.0873390   0.063829212
                      *** Initiating the SOSCF procedure ***
                           *** Shutting down KDIIS ***
                      *** Re-Reading the Fockian *** 
                      *** Removing any level shift *** 
ITER      Energy       Delta-E        Grad      Rot      Max-DP    RMS-DP
  4   -217.19600097  -0.0369945691  0.002043  0.002043  0.002314  0.000051
  5   -217.19610223  -0.0001012535  0.000543  0.000481  0.001112  0.000027
  6   -217.19611053  -0.0000083011  0.000280  0.000240  0.000257  0.000010
  7   -217.19611301  -0.0000024839  0.000063  0.000080  0.000123  0.000004
  8   -217.19611309  -0.0000000722  0.000024  0.000019  0.000037  0.000001
                  ***Gradient check signals convergence***
              ***Rediagonalizing the Fockian in SOSCF/NRSCF***

               *****************************************************
               *                     SUCCESS                       *
               *           SCF CONVERGED AFTER   9 CYCLES          *
               *****************************************************


----------------
TOTAL SCF ENERGY
----------------

Total Energy       :         -217.19611311 Eh           -5910.20671 eV

Components:
Nuclear Repulsion  :          129.48747171 Eh            3523.53324 eV
Electronic Energy  :         -346.68358482 Eh           -9433.73995 eV
One Electron Energy:         -554.16440554 Eh          -15079.58011 eV
Two Electron Energy:          207.48082071 Eh            5645.84016 eV

Virial components:
Potential Energy   :         -434.08320864 Eh          -11812.00462 eV
Kinetic Energy     :          216.88709553 Eh            5901.79791 eV
Virial Ratio       :            2.00142479


---------------
SCF CONVERGENCE
---------------

  Last Energy change         ...   -2.7564e-08  Tolerance :   1.0000e-08
  Last MAX-Density change    ...    9.8881e-06  Tolerance :   1.0000e-07
  Last RMS-Density change    ...    3.1257e-07  Tolerance :   5.0000e-09
  Last Orbital Gradient      ...    2.4853e-06  Tolerance :   1.0000e-05
  Last Orbital Rotation      ...    2.7449e-06  Tolerance :   1.0000e-05

             **** THE GBW FILE WAS UPDATED (fluoropropane_g.gbw) ****
             **** DENSITY FILE WAS UPDATED (fluoropropane_g.scfp.tmp) ****
             **** ENERGY FILE WAS UPDATED (fluoropropane_g.en.tmp) ****
----------------
ORBITAL ENERGIES
----------------

  NO   OCC          E(Eh)            E(eV) 
   0   2.0000     -26.262619      -714.6422 
   1   2.0000     -11.305798      -307.6464 
   2   2.0000     -11.233722      -305.6851 
   3   2.0000     -11.219446      -305.2967 
   4   2.0000      -1.567932       -42.6656 
   5   2.0000      -1.063485       -28.9389 
   6   2.0000      -0.935165       -25.4471 
   7   2.0000      -0.817924       -22.2568 
   8   2.0000      -0.690774       -18.7969 
   9   2.0000      -0.685548       -18.6547 
  10   2.0000      -0.644972       -17.5506 
  11   2.0000      -0.597952       -16.2711 
  12   2.0000      -0.569944       -15.5090 
  13   2.0000      -0.540610       -14.7107 
  14   2.0000      -0.496840       -13.5197 
  15   2.0000      -0.485174       -13.2023 
  16   2.0000      -0.483396       -13.1539 
  17   0.0000       0.139438         3.7943 
  18   0.0000       0.170175         4.6307 
  19   0.0000       0.177383         4.8268 
  20   0.0000       0.199396         5.4258 
  21   0.0000       0.215330         5.8594 
  22   0.0000       0.232764         6.3338 
  23   0.0000       0.238997         6.5034 
  24   0.0000       0.273215         7.4346 
  25   0.0000       0.302323         8.2266 
  26   0.0000       0.357809         9.7365 
  27   0.0000       0.387502        10.5445 
  28   0.0000       0.392387        10.6774 
  29   0.0000       0.424502        11.5513 
  30   0.0000       0.437586        11.9073 
  31   0.0000       0.506477        13.7819 
  32   0.0000       0.532190        14.4816 
  33   0.0000       0.563474        15.3329 
  34   0.0000       0.574673        15.6377 
  35   0.0000       0.591034        16.0829 
  36   0.0000       0.604433        16.4475 
  37   0.0000       0.616434        16.7740 
  38   0.0000       0.638394        17.3716 
  39   0.0000       0.649810        17.6822 
  40   0.0000       0.665506        18.1094 
  41   0.0000       0.667524        18.1643 
  42   0.0000       0.674340        18.3497 
  43   0.0000       0.722098        19.6493 
  44   0.0000       0.750756        20.4291 
  45   0.0000       0.786247        21.3949 
  46   0.0000       0.831289        22.6205 
  47   0.0000       0.883447        24.0398 
  48   0.0000       0.914804        24.8931 
  49   0.0000       0.920319        25.0431 
  50   0.0000       0.951709        25.8973 
  51   0.0000       1.028647        27.9909 
  52   0.0000       1.041210        28.3328 
  53   0.0000       1.089280        29.6408 
  54   0.0000       1.103723        30.0338 
  55   0.0000       1.132855        30.8266 
  56   0.0000       1.165094        31.7038 
  57   0.0000       1.198128        32.6027 
  58   0.0000       1.226497        33.3747 
  59   0.0000       1.246483        33.9185 
  60   0.0000       1.252317        34.0773 
  61   0.0000       1.281127        34.8612 
  62   0.0000       1.291753        35.1504 
  63   0.0000       1.307251        35.5721 
  64   0.0000       1.329468        36.1767 
  65   0.0000       1.344987        36.5990 
  66   0.0000       1.363527        37.1035 
  67   0.0000       1.380698        37.5707 
  68   0.0000       1.395618        37.9767 
  69   0.0000       1.432087        38.9691 
  70   0.0000       1.436553        39.0906 
  71   0.0000       1.491652        40.5899 
  72   0.0000       1.505696        40.9721 
  73   0.0000       1.515357        41.2350 
  74   0.0000       1.542715        41.9794 
  75   0.0000       1.557912        42.3929 
  76   0.0000       1.584845        43.1258 
  77   0.0000       1.615292        43.9543 
  78   0.0000       1.647611        44.8338 
  79   0.0000       1.668561        45.4038 
  80   0.0000       1.723476        46.8982 
  81   0.0000       1.748932        47.5909 
  82   0.0000       1.802933        49.0603 
  83   0.0000       1.824621        49.6505 
  84   0.0000       1.868580        50.8467 
  85   0.0000       2.115679        57.5706 
  86   0.0000       2.339486        63.6607 
  87   0.0000       2.390591        65.0513 
  88   0.0000       2.452051        66.7237 
  89   0.0000       2.513909        68.4069 
  90   0.0000       2.552282        69.4511 
  91   0.0000       2.566590        69.8405 
  92   0.0000       2.603794        70.8528 
  93   0.0000       2.644796        71.9686 
  94   0.0000       2.689307        73.1798 
  95   0.0000       2.697284        73.3968 
  96   0.0000       2.740264        74.5664 
  97   0.0000       2.778542        75.6080 
  98   0.0000       2.810097        76.4666 
  99   0.0000       2.826541        76.9141 
 100   0.0000       2.850153        77.5566 
 101   0.0000       2.870639        78.1141 
 102   0.0000       2.906394        79.0870 
 103   0.0000       2.976355        80.9907 
 104   0.0000       3.000451        81.6464 
 105   0.0000       3.015353        82.0519 
 106   0.0000       3.079866        83.8074 
 107   0.0000       3.102409        84.4208 
 108   0.0000       3.145227        85.5860 
 109   0.0000       3.162033        86.0433 
 110   0.0000       3.192813        86.8809 
 111   0.0000       3.215382        87.4950 
 112   0.0000       3.248044        88.3838 
 113   0.0000       3.291963        89.5789 
 114   0.0000       3.309757        90.0631 
 115   0.0000       3.344572        91.0104 
 116   0.0000       3.371063        91.7313 
 117   0.0000       3.378994        91.9471 
 118   0.0000       3.391705        92.2930 
 119   0.0000       3.427895        93.2778 
 120   0.0000       3.434980        93.4706 
 121   0.0000       3.453001        93.9609 
 122   0.0000       3.469247        94.4030 
 123   0.0000       3.488972        94.9398 
 124   0.0000       3.516169        95.6798 
 125   0.0000       3.553309        96.6905 
 126   0.0000       3.579155        97.3938 
 127   0.0000       3.596703        97.8713 
 128   0.0000       3.643657        99.1489 
 129   0.0000       3.671271        99.9004 
 130   0.0000       3.695947       100.5718 
 131   0.0000       3.724313       101.3437 
 132   0.0000       3.732040       101.5540 
 133   0.0000       3.769866       102.5833 
 134   0.0000       3.801001       103.4305 
 135   0.0000       3.823212       104.0349 
 136   0.0000       3.861075       105.0652 
 137   0.0000       3.881652       105.6251 
 138   0.0000       3.896308       106.0239 
 139   0.0000       3.919224       106.6475 
 140   0.0000       3.993219       108.6610 
 141   0.0000       4.015984       109.2805 
 142   0.0000       4.036685       109.8438 
 143   0.0000       4.060082       110.4804 
 144   0.0000       4.101992       111.6209 
 145   0.0000       4.125106       112.2498 
 146   0.0000       4.141281       112.6900 
 147   0.0000       4.152472       112.9945 
 148   0.0000       4.189330       113.9975 
 149   0.0000       4.215225       114.7021 
 150   0.0000       4.221465       114.8719 
 151   0.0000       4.277311       116.3916 
 152   0.0000       4.281562       116.5072 
 153   0.0000       4.317717       117.4910 
 154   0.0000       4.337019       118.0163 
 155   0.0000       4.347239       118.2944 
 156   0.0000       4.389194       119.4360 
 157   0.0000       4.408998       119.9749 
 158   0.0000       4.429375       120.5294 
 159   0.0000       4.436879       120.7336 
 160   0.0000       4.467884       121.5773 
 161   0.0000       4.519294       122.9762 
 162   0.0000       4.538203       123.4908 
 163   0.0000       4.587954       124.8446 
 164   0.0000       4.611110       125.4747 
 165   0.0000       4.625684       125.8713 
 166   0.0000       4.662978       126.8861 
 167   0.0000       4.692357       127.6855 
 168   0.0000       4.746704       129.1644 
 169   0.0000       4.869256       132.4992 
 170   0.0000       4.883089       132.8756 
 171   0.0000       4.920615       133.8967 
 172   0.0000       5.039072       137.1201 
 173   0.0000       5.074845       138.0936 
 174   0.0000       5.155308       140.2831 
 175   0.0000       5.163662       140.5104 
 176   0.0000       5.172552       140.7523 
 177   0.0000       5.201932       141.5518 
 178   0.0000       5.225165       142.1840 
 179   0.0000       5.249608       142.8491 
 180   0.0000       5.300598       144.2366 
 181   0.0000       5.347635       145.5166 
 182   0.0000       5.401570       146.9842 
 183   0.0000       5.419619       147.4753 
 184   0.0000       5.502087       149.7194 
 185   0.0000       5.557802       151.2355 
 186   0.0000       5.588404       152.0682 
 187   0.0000       5.602994       152.4652 
 188   0.0000       5.657342       153.9441 
 189   0.0000       5.687500       154.7647 
 190   0.0000       5.692606       154.9037 
 191   0.0000       5.714035       155.4868 
 192   0.0000       5.753939       156.5726 
 193   0.0000       5.805773       157.9831 
 194   0.0000       5.832653       158.7146 
 195   0.0000       5.861276       159.4934 
 196   0.0000       5.971573       162.4948 
 197   0.0000       6.238716       169.7641 
 198   0.0000       6.282598       170.9582 
 199   0.0000       6.300672       171.4500 
 200   0.0000       6.331511       172.2892 
 201   0.0000       6.470540       176.0724 
 202   0.0000       7.446282       202.6236 
 203   0.0000       7.450883       202.7488 
 204   0.0000       7.550497       205.4595 
 205   0.0000       7.585546       206.4132 
 206   0.0000       7.802739       212.3233 
 207   0.0000       7.804888       212.3818 
 208   0.0000       7.901124       215.0005 
 209   0.0000       9.037013       245.9096 
 210   0.0000       9.052940       246.3430 
 211   0.0000       9.475013       257.8282 
 212   0.0000       9.503131       258.5934 
 213   0.0000       9.655079       262.7280 
 214   0.0000      12.154236       330.7336 
 215   0.0000      12.768929       347.4602 
 216   0.0000      13.303058       361.9946 
 217   0.0000      13.971493       380.1837 

                    ********************************
                    * MULLIKEN POPULATION ANALYSIS *
                    ********************************

-----------------------
MULLIKEN ATOMIC CHARGES
-----------------------
   0 C :    0.176662
   1 F :   -0.332635
   2 C :   -0.172059
   3 C :   -0.289738
   4 H :    0.080378
   5 H :    0.059851
   6 H :    0.087000
   7 H :    0.096306
   8 H :    0.099723
   9 H :    0.110275
  10 H :    0.084237
Sum of atomic charges:   -0.0000000

--------------------------------
MULLIKEN REDUCED ORBITAL CHARGES
--------------------------------
  0 C s       :     3.157461  s :     3.157461
      pz      :     0.930517  p :     2.499053
      px      :     0.873937
      py      :     0.694599
      dz2     :     0.033575  d :     0.151812
      dxz     :     0.018789
      dyz     :     0.022595
      dx2y2   :     0.030878
      dxy     :     0.045976
      f0      :     0.001868  f :     0.015011
      f+1     :     0.001180
      f-1     :     0.002117
      f+2     :     0.001945
      f-2     :     0.001988
      f+3     :     0.002634
      f-3     :     0.003279
  1 F s       :     3.910104  s :     3.910104
      pz      :     1.895765  p :     5.409959
      px      :     1.863043
      py      :     1.651150
      dz2     :     0.001577  d :     0.012030
      dxz     :     0.000984
      dyz     :     0.002755
      dx2y2   :     0.002760
      dxy     :     0.003954
      f0      :     0.000063  f :     0.000542
      f+1     :     0.000022
      f-1     :     0.000066
      f+2     :     0.000056
      f-2     :     0.000101
      f+3     :     0.000156
      f-3     :     0.000078
  2 C s       :     3.205474  s :     3.205474
      pz      :     0.998618  p :     2.856800
      px      :     0.890796
      py      :     0.967386
      dz2     :     0.031703  d :     0.103491
      dxz     :     0.016413
      dyz     :     0.010789
      dx2y2   :     0.028826
      dxy     :     0.015760
      f0      :     0.001441  f :     0.006294
      f+1     :     0.000755
      f-1     :     0.000326
      f+2     :     0.000708
      f-2     :     0.000584
      f+3     :     0.001543
      f-3     :     0.000936
  3 C s       :     3.259566  s :     3.259566
      pz      :     0.994482  p :     2.941559
      px      :     0.975778
      py      :     0.971299
      dz2     :     0.023374  d :     0.083893
      dxz     :     0.011484
      dyz     :     0.009145
      dx2y2   :     0.024868
      dxy     :     0.015022
      f0      :     0.001394  f :     0.004720
      f+1     :     0.000315
      f-1     :     0.000316
      f+2     :     0.000163
      f-2     :     0.000551
      f+3     :     0.001216
      f-3     :     0.000766
  4 H s       :     0.889632  s :     0.889632
      pz      :     0.007398  p :     0.027845
      px      :     0.011249
      py      :     0.009198
      dz2     :     0.000376  d :     0.002145
      dxz     :     0.000189
      dyz     :     0.000327
      dx2y2   :     0.000534
      dxy     :     0.000718
  5 H s       :     0.910154  s :     0.910154
      pz      :     0.014919  p :     0.027834
      px      :     0.008300
      py      :     0.004615
      dz2     :     0.001016  d :     0.002161
      dxz     :     0.000810
      dyz     :     0.000340
      dx2y2   :     0.000005
      dxy     :    -0.000011
  6 H s       :     0.881530  s :     0.881530
      pz      :     0.007196  p :     0.029010
      px      :     0.009724
      py      :     0.012090
      dz2     :     0.000384  d :     0.002459
      dxz     :     0.000115
      dyz     :     0.000462
      dx2y2   :     0.000739
      dxy     :     0.000759
  7 H s       :     0.872084  s :     0.872084
      pz      :     0.012347  p :     0.029119
      px      :     0.008435
      py      :     0.008337
      dz2     :     0.000760  d :     0.002492
      dxz     :     0.000914
      dyz     :     0.000742
      dx2y2   :     0.000016
      dxy     :     0.000060
  8 H s       :     0.870874  s :     0.870874
      pz      :     0.007694  p :     0.027217
      px      :     0.011783
      py      :     0.007740
      dz2     :     0.000395  d :     0.002185
      dxz     :     0.000508
      dyz     :     0.000080
      dx2y2   :     0.000545
      dxy     :     0.000656
  9 H s       :     0.860334  s :     0.860334
      pz      :     0.007284  p :     0.027202
      px      :     0.008075
      py      :     0.011842
      dz2     :     0.000324  d :     0.002188
      dxz     :     0.000112
      dyz     :     0.000453
      dx2y2   :     0.000709
      dxy     :     0.000589
 10 H s       :     0.886428  s :     0.886428
      pz      :     0.010515  p :     0.027162
      px      :     0.008437
      py      :     0.008210
      dz2     :     0.000707  d :     0.002173
      dxz     :     0.000697
      dyz     :     0.000713
      dx2y2   :     0.000006
      dxy     :     0.000049


                     *******************************
                     * LOEWDIN POPULATION ANALYSIS *
                     *******************************

----------------------
LOEWDIN ATOMIC CHARGES
----------------------
   0 C :   -0.027684
   1 F :    0.071434
   2 C :    0.037889
   3 C :    0.109172
   4 H :   -0.032623
   5 H :   -0.033387
   6 H :   -0.019907
   7 H :   -0.021514
   8 H :   -0.028343
   9 H :   -0.025107
  10 H :   -0.029930

-------------------------------
LOEWDIN REDUCED ORBITAL CHARGES
-------------------------------
  0 C s       :     2.700832  s :     2.700832
      pz      :     0.962286  p :     2.651317
      px      :     0.925702
      py      :     0.763329
      dz2     :     0.148029  d :     0.585771
      dxz     :     0.070753
      dyz     :     0.078346
      dx2y2   :     0.121066
      dxy     :     0.167576
      f0      :     0.008981  f :     0.089764
      f+1     :     0.007606
      f-1     :     0.011067
      f+2     :     0.012996
      f-2     :     0.015144
      f+3     :     0.016477
      f-3     :     0.017493
  1 F s       :     3.622837  s :     3.622837
      pz      :     1.836925  p :     5.281214
      px      :     1.803019
      py      :     1.641271
      dz2     :     0.003388  d :     0.023524
      dxz     :     0.001954
      dyz     :     0.005376
      dx2y2   :     0.005834
      dxy     :     0.006973
      f0      :     0.000078  f :     0.000991
      f+1     :     0.000059
      f-1     :     0.000178
      f+2     :     0.000094
      f-2     :     0.000156
      f+3     :     0.000189
      f-3     :     0.000238
  2 C s       :     2.665652  s :     2.665652
      pz      :     0.967583  p :     2.843791
      px      :     0.926795
      py      :     0.949413
      dz2     :     0.113285  d :     0.413285
      dxz     :     0.066618
      dyz     :     0.039605
      dx2y2   :     0.106823
      dxy     :     0.086953
      f0      :     0.005682  f :     0.039383
      f+1     :     0.005646
      f-1     :     0.002786
      f+2     :     0.006156
      f-2     :     0.005619
      f+3     :     0.006884
      f-3     :     0.006609
  3 C s       :     2.662570  s :     2.662570
      pz      :     0.977178  p :     2.889392
      px      :     0.957376
      py      :     0.954838
      dz2     :     0.086197  d :     0.309979
      dxz     :     0.043392
      dyz     :     0.034605
      dx2y2   :     0.086671
      dxy     :     0.059115
      f0      :     0.005312  f :     0.028887
      f+1     :     0.001884
      f-1     :     0.002812
      f+2     :     0.004419
      f-2     :     0.004777
      f+3     :     0.005371
      f-3     :     0.004311
  4 H s       :     0.863802  s :     0.863802
      pz      :     0.038757  p :     0.142298
      px      :     0.049336
      py      :     0.054205
      dz2     :     0.004010  d :     0.026522
      dxz     :     0.002899
      dyz     :     0.005440
      dx2y2   :     0.006593
      dxy     :     0.007580
  5 H s       :     0.865290  s :     0.865290
      pz      :     0.080814  p :     0.141557
      px      :     0.035250
      py      :     0.025493
      dz2     :     0.010563  d :     0.026540
      dxz     :     0.009048
      dyz     :     0.006616
      dx2y2   :     0.000069
      dxy     :     0.000243
  6 H s       :     0.839650  s :     0.839650
      pz      :     0.042102  p :     0.152216
      px      :     0.043545
      py      :     0.066570
      dz2     :     0.004249  d :     0.028041
      dxz     :     0.001683
      dyz     :     0.006807
      dx2y2   :     0.007585
      dxy     :     0.007716
  7 H s       :     0.841039  s :     0.841039
      pz      :     0.075164  p :     0.152278
      px      :     0.038294
      py      :     0.038819
      dz2     :     0.009553  d :     0.028197
      dxz     :     0.009223
      dyz     :     0.009124
      dx2y2   :     0.000027
      dxy     :     0.000271
  8 H s       :     0.848614  s :     0.848614
      pz      :     0.044998  p :     0.152094
      px      :     0.066630
      py      :     0.040465
      dz2     :     0.005166  d :     0.027634
      dxz     :     0.007341
      dyz     :     0.001196
      dx2y2   :     0.006028
      dxy     :     0.007903
  9 H s       :     0.844579  s :     0.844579
      pz      :     0.042247  p :     0.152732
      px      :     0.043737
      py      :     0.066749
      dz2     :     0.004061  d :     0.027796
      dxz     :     0.001569
      dyz     :     0.007035
      dx2y2   :     0.007640
      dxy     :     0.007490
 10 H s       :     0.851287  s :     0.851287
      pz      :     0.072227  p :     0.151072
      px      :     0.039181
      py      :     0.039663
      dz2     :     0.008943  d :     0.027572
      dxz     :     0.009287
      dyz     :     0.008970
      dx2y2   :     0.000038
      dxy     :     0.000334


                      *****************************
                      * MAYER POPULATION ANALYSIS *
                      *****************************

  NA   - Mulliken gross atomic population
  ZA   - Total nuclear charge
  QA   - Mulliken gross atomic charge
  VA   - Mayer's total valence
  BVA  - Mayer's bonded valence
  FA   - Mayer's free valence

  ATOM       NA         ZA         QA         VA         BVA        FA
  0 C      5.8233     6.0000     0.1767     3.8727     3.8727     0.0000
  1 F      9.3326     9.0000    -0.3326     0.9315     0.9315    -0.0000
  2 C      6.1721     6.0000    -0.1721     3.8585     3.8585    -0.0000
  3 C      6.2897     6.0000    -0.2897     3.8922     3.8922    -0.0000
  4 H      0.9196     1.0000     0.0804     0.9777     0.9777     0.0000
  5 H      0.9401     1.0000     0.0599     0.9812     0.9812     0.0000
  6 H      0.9130     1.0000     0.0870     0.9828     0.9828    -0.0000
  7 H      0.9037     1.0000     0.0963     0.9847     0.9847    -0.0000
  8 H      0.9003     1.0000     0.0997     0.9791     0.9791     0.0000
  9 H      0.8897     1.0000     0.1103     0.9844     0.9844     0.0000
 10 H      0.9158     1.0000     0.0842     0.9823     0.9823    -0.0000

  Mayer bond orders larger than 0.1
B(  0-C ,  1-F ) :   0.9238 B(  0-C ,  2-C ) :   0.9761 B(  0-C ,  4-H ) :   0.9857 
B(  0-C ,  5-H ) :   0.9799 B(  2-C ,  3-C ) :   0.9520 B(  2-C ,  6-H ) :   0.9721 
B(  2-C ,  7-H ) :   0.9783 B(  3-C ,  8-H ) :   0.9854 B(  3-C ,  9-H ) :   0.9769 
B(  3-C , 10-H ) :   0.9818 

-------
TIMINGS
-------

Total SCF time: 0 days 0 hours 0 min 3 sec 

Total time                  ....       3.951 sec
Sum of individual times     ....       3.773 sec  ( 95.5%)

Fock matrix formation       ....       3.477 sec  ( 88.0%)
Diagonalization             ....       0.031 sec  (  0.8%)
Density matrix formation    ....       0.005 sec  (  0.1%)
Population analysis         ....       0.011 sec  (  0.3%)
Initial guess               ....       0.163 sec  (  4.1%)
Orbital Transformation      ....       0.000 sec  (  0.0%)
Orbital Orthonormalization  ....       0.000 sec  (  0.0%)
DIIS solution               ....       0.000 sec  (  0.0%)
SOSCF solution              ....       0.025 sec  (  0.6%)


           ************************************************************
           *        Program running with 8 parallel MPI-processes     *
           *              working on a common directory               *
           ************************************************************


------------------------------------------------------------------------------- 
                              ORCA-MATRIX DRIVEN CI                            
------------------------------------------------------------------------------- 


Wavefunction type
-----------------
Correlation treatment                      ...      CCSD     
Single excitations                         ... ON
Orbital optimization                       ... OFF
Calculation of Z vector                    ... OFF
Calculation of Brueckner orbitals          ... OFF
Perturbative triple excitations            ... ON
Calculation of F12 correction              ... OFF
Frozen core treatment                      ... chemical core (8 el)
Reference Wavefunction                     ... RHF
  Internal Orbitals:     4 ...   16 ( 13 MO's/ 26 electrons)
  Virtual  Orbitals:    17 ...  217 (201 MO's              )
Number of AO's                             ...    218
Number of electrons                        ...     34
Number of correlated electrons             ...     26

Algorithmic settings
--------------------
Integral transformation                    ... All integrals via the RI transformation
K(C) Formation                             ... RI-DLPNO
   PNO-Integral Storage                    ... ON DISK
   PNO occupation number cut-off           ... 1.000e-07
   Singles PNO occupation number cut-off   ... 3.000e-09
   PNO Mulliken prescreening cut-off       ... 1.000e-03
   Domain cut-off (Mulliken population)    ... 1.000e-03
   PNO Normalization                       ...    1
Maximum number of iterations               ...        50
Convergence tolerance (max. residuum)      ... 1.000e-05
Level shift for amplitude update           ... 2.000e-01
Maximum number of DIIS vectors             ...         7
DIIS turned on at iteration                ...         0
Damping before turning on DIIS             ...     0.500
Damping after turning on DIIS              ...     0.000
Pair specific amplitude update             ... OFF
Natural orbital iterations                 ... OFF
Perturbative natural orbital generation    ... OFF
Printlevel                                 ... 2

Singles Fock matrix elements calculated using PNOs.

Memory handling:
----------------
Maximum memory for working arrays          ...   8000 MB
Data storage in matrix containers          ... UNCOMPRESSED
Data type for integral storage             ... DOUBLE
In-Core Storage of quantities:
   Amplitudes+Sigma Vector      ... NO
   J+K operators                ... NO
   DIIS vectors                 ... NO
   3-external integrals         ... NO
   4-external integrals         ... NO

Localization treatment:
-----------------------
Localization option                        ...    6
Localization threshhold                    ... -1.0e+00
Using relative localization threshhold     ... 1.0e-08
Neglect threshold for strong pairs         ... 1.000e-05 Eh
Prescreening threshold for very weak pairs ... 1.000e-07 Eh

Initializing the integral package          ... done
Localizing the valence orbitals
------------------------------------------------------------------------------
                           ORCA ORBITAL LOCALIZATION
------------------------------------------------------------------------------

Input orbitals are from                  ... fluoropropane_g.proc0.gbw
Output orbitals are to                   ... fluoropropane_g.proc0.loc
Max. number of iterations                ... 128
Localizations seeded randomly            ... off
Convergence tolerance                    ... 1.000e-06
Using relative localization threshhold   ... 1.000e-08
Treshold for strong local MOs            ... 9.500e-01
Treshold for bond MOs                    ... 8.500e-01
Operator                                 ... 0
Orbital range for localization           ... 4 to 16
Localization criterion                   ... FOSTER-BOYS (AUGMENTED HESSIAN)
Doing the dipole integrals     ... o.k.
Initial value of the localization sum :    83.414063
ITERATION   0 : L=  111.7804873083 DL=  2.84e+01 (AVERGE_DL)=    0.6030523208 
ITERATION   1 : L=  113.4098092503 DL=  1.63e+00 (AVERGE_DL)=    0.1445293840 
ITERATION   2 : L=  113.4323951970 DL=  2.26e-02 (AVERGE_DL)=    0.0170165631 
ITERATION   3 : L=  113.4330931957 DL=  6.98e-04 (AVERGE_DL)=    0.0029914379 
ITERATION   4 : L=  113.4331552873 DL=  6.21e-05 (AVERGE_DL)=    0.0008922143 
ITERATION   5 : L=  113.4332010550 DL=  4.58e-05 (AVERGE_DL)=    0.0007660063 
ITERATION   6 : L=  113.4332543645 DL=  5.33e-05 (AVERGE_DL)=    0.0008267129 
ITERATION   7 : L=  113.4333140065 DL=  5.96e-05 (AVERGE_DL)=    0.0008744380 
ITERATION   8 : L=  113.4333786136 DL=  6.46e-05 (AVERGE_DL)=    0.0009101071 
ITERATION   9 : L=  113.4334476901 DL=  6.91e-05 (AVERGE_DL)=    0.0009410616 
ITERATION  10 : L=  113.4335211666 DL=  7.35e-05 (AVERGE_DL)=    0.0009705702 
ITERATION  11 : L=  113.4335991141 DL=  7.79e-05 (AVERGE_DL)=    0.0009996636 
ITERATION  12 : L=  113.4336816347 DL=  8.25e-05 (AVERGE_DL)=    0.0010285695 
ITERATION  13 : L=  113.4337688227 DL=  8.72e-05 (AVERGE_DL)=    0.0010572582 
ITERATION  14 : L=  113.4338607507 DL=  9.19e-05 (AVERGE_DL)=    0.0010856172 
ITERATION  15 : L=  113.4339574665 DL=  9.67e-05 (AVERGE_DL)=    0.0011135285 
ITERATION  16 : L=  113.4340589870 DL=  1.02e-04 (AVERGE_DL)=    0.0011408528 
ITERATION  17 : L=  113.4341652934 DL=  1.06e-04 (AVERGE_DL)=    0.0011674344 
ITERATION  18 : L=  113.4342763309 DL=  1.11e-04 (AVERGE_DL)=    0.0011931293 
ITERATION  19 : L=  113.4343920047 DL=  1.16e-04 (AVERGE_DL)=    0.0012177839 
ITERATION  20 : L=  113.4345121852 DL=  1.20e-04 (AVERGE_DL)=    0.0012412796 
ITERATION  21 : L=  113.4346366792 DL=  1.24e-04 (AVERGE_DL)=    0.0012633596 
ITERATION  22 : L=  113.4347652638 DL=  1.29e-04 (AVERGE_DL)=    0.0012839469 
ITERATION  23 : L=  113.4348976767 DL=  1.32e-04 (AVERGE_DL)=    0.0013029205 
ITERATION  24 : L=  113.4350336013 DL=  1.36e-04 (AVERGE_DL)=    0.0013200842 
ITERATION  25 : L=  113.4351726802 DL=  1.39e-04 (AVERGE_DL)=    0.0013353142 
ITERATION  26 : L=  113.4353145184 DL=  1.42e-04 (AVERGE_DL)=    0.0013484948 
ITERATION  27 : L=  113.4354586836 DL=  1.44e-04 (AVERGE_DL)=    0.0013595117 
ITERATION  28 : L=  113.4356047151 DL=  1.46e-04 (AVERGE_DL)=    0.0013682831 
ITERATION  29 : L=  113.4357521270 DL=  1.47e-04 (AVERGE_DL)=    0.0013747346 
DETECTED SLOW CONVERGENCE - QUITTING

------------------------------------------------------
AUGMENTED HESSIAN OPTIMIZATION OF FOSTER-BOYS ORBITALS
------------------------------------------------------

Spin operator:           0
Orbital window:          4 to 16
Number of iterations:    128
Gradient tolerance:      1.000e-06
Number of pairs:         78
Davidson threshold:      2000
Diagonalization method:  LAPACK
Iter:    0   L: 113.4357521270   Grad. norm: 1.370786e-02
Iter:    1   L: 113.4377938745   Grad. norm: 1.390723e-02
Iter:    2   L: 113.4392138386   Grad. norm: 1.323080e-02
Iter:    3   L: 113.4395594218   Grad. norm: 4.806852e-03
   *** Likely close to a maximum now. ***
       Augmented Hessian eigenvalues:  1.03e-06 -3.20e-02 -1.51e+00 -1.51e+00 ... 
Iter:    4   L: 113.4395599355   Grad. norm: 3.365778e-06
Iter:    5   L: 113.4395599355   Grad. norm: 4.797842e-12
LOCALIZATION HAS CONVERGED.

Eigenvalues of the Hessian:
  0 -3.197e-02
  1 -1.510e+00
  2 -1.512e+00
  3 -3.649e+00
  4 -3.657e+00
  5 -5.783e+00
  6 -1.700e+01
  7 -1.740e+01
  8 -1.793e+01
  9 -1.815e+01
    ...


------------------------------------------------------------------------------- 
                    LOCALIZED MOLECULAR ORBITAL COMPOSITIONS                   
------------------------------------------------------------------------------- 

The Mulliken populations for each LMO on each atom are computed
The LMO`s will be ordered according to atom index and type
  (A) Strongly localized MO`s have populations of >=0.950 on one atom
  (B) Two center bond orbitals have populations of >=0.850 on two atoms
  (C) Other MO`s are considered to be `delocalized`

FOUND  -   3 strongly local MO`s
       -  10 two center bond MO`s
       -   0 significantly delocalized MO`s

Rather strongly localized orbitals:
MO   6:   1F  -   0.987739
MO   5:   1F  -   0.984342
MO   4:   1F  -   0.987034
Bond-like localized orbitals:
MO  16:  10H  -   0.478006  and   3C  -   0.547048
MO  15:   9H  -   0.461148  and   3C  -   0.563135
MO  14:   8H  -   0.469976  and   3C  -   0.558005
MO  13:   7H  -   0.469201  and   2C  -   0.552597
MO  12:   6H  -   0.476277  and   2C  -   0.542910
MO  11:   5H  -   0.490670  and   0C  -   0.541519
MO  10:   4H  -   0.480023  and   0C  -   0.556555
MO   9:   3C  -   0.500786  and   2C  -   0.524727
MO   8:   2C  -   0.522984  and   0C  -   0.513238
MO   7:   1F  -   0.736124  and   0C  -   0.263951
Localized MO's were stored in: fluoropropane_g.proc0.loc

Localizing the core orbitals
------------------------------------------------------------------------------
                           ORCA ORBITAL LOCALIZATION
------------------------------------------------------------------------------

Input orbitals are from                  ... fluoropropane_g.proc0.loc
Output orbitals are to                   ... fluoropropane_g.proc0.loc
Max. number of iterations                ... 128
Localizations seeded randomly            ... off
Convergence tolerance                    ... 1.000e-06
Using relative localization threshhold   ... 1.000e-08
Treshold for strong local MOs            ... 9.500e-01
Treshold for bond MOs                    ... 8.500e-01
Operator                                 ... 0
Orbital range for localization           ... 0 to 3
Localization criterion                   ... FOSTER-BOYS (AUGMENTED HESSIAN)
Doing the dipole integrals     ... o.k.
Initial value of the localization sum :    24.899286
ITERATION   0 : L=   24.8992863172 DL=  7.58e-07 (AVERGE_DL)=    0.0003553875 
LOCALIZATION SUM CONVERGED

------------------------------------------------------
AUGMENTED HESSIAN OPTIMIZATION OF FOSTER-BOYS ORBITALS
------------------------------------------------------

Spin operator:           0
Orbital window:          0 to 3
Number of iterations:    128
Gradient tolerance:      1.000e-06
Number of pairs:         6
Davidson threshold:      2000
Diagonalization method:  LAPACK
Iter:    0   L: 24.8992863172   Grad. norm: 2.535753e-07
   *** Likely close to a maximum now. ***
       Augmented Hessian eigenvalues:  1.48e-15 -2.85e+01 -3.29e+01 -3.35e+01 ... 
Iter:    1   L: 24.8992863172   Grad. norm: 1.690594e-21
LOCALIZATION HAS CONVERGED.

Eigenvalues of the Hessian:
  0 -2.845e+01
  1 -3.292e+01
  2 -3.355e+01
  3 -8.262e+01
  4 -9.317e+01
  5 -1.276e+02


------------------------------------------------------------------------------- 
                    LOCALIZED MOLECULAR ORBITAL COMPOSITIONS                   
------------------------------------------------------------------------------- 

The Mulliken populations for each LMO on each atom are computed
The LMO`s will be ordered according to atom index and type
  (A) Strongly localized MO`s have populations of >=0.950 on one atom
  (B) Two center bond orbitals have populations of >=0.850 on two atoms
  (C) Other MO`s are considered to be `delocalized`

FOUND  -   4 strongly local MO`s
       -   0 two center bond MO`s
       -   0 significantly delocalized MO`s

Rather strongly localized orbitals:
MO   3:   3C  -   1.001075
MO   2:   2C  -   1.001286
MO   1:   1F  -   1.000018
MO   0:   0C  -   1.000945
Localized MO's were stored in: fluoropropane_g.proc0.loc

Warning: internal orbitals are localized - no re-canonicalization of internal orbitals

--------------------------
CLOSED-SHELL FOCK OPERATOR
--------------------------

RI-JK section for the Fock operator:
  RHF full Fock operator         ... done
  RHF frozen core Fock operator  ... done
Time needed for Fock operator              ...            0.771 sec
Reference energy                           ...   -217.196113113

--------------
DLPNO SETTINGS (2015 fully linear scaling implementation)
--------------

TCutMKN:           1.000e-03
TCutPAO:           1.000e-03
TCutPNO:           1.000e-07
TCutPNOSingles:    3.000e-09
TCutEN:            9.700e-01
TCutPAOExt:        1.000e-01
TCutPairs:         1.000e-05
TCutPre:           1.000e-07
TCutOSV:           1.000e-06
TCutDOij:          1.000e-05
TCutDO:            5.000e-03
TCutC:             1.000e-04
TCutCPAO:          1.000e-03
TCutCMO:           1.000e-03
TScaleDOMP2PreScr: 2.000e+00
TScaleMKNMP2PreScr:1.000e+01
TScalePNOMP2PreScr:1.000e+00
PAO overlap thresh 1.000e-08
Using PNOs for Singles Fock computation
Use new domains
Use fully linear algorithm
TCutTNO:           1.000e-09
TCutMP2Pairs:      1.000e-06
TCutDOStrong:      2.000e-03
TCutMKNStrong:     1.000e-02
TCutMKNWeak:       1.000e-01
TCutDOWeak:        4.000e-03
NTCutTNO:          1

--------------------------
Calculating differential overlap integrals ... ok
--------------------------
ELECTRON PAIR PRESCREENING
--------------------------

Dipole-based pair screening          .... used

   TCutDOij = 1.000000e-05
   TCutPre  = 1.000000e-07
   .... Finished loop over pairs
Total time spent in the prescreening                  ...     0.000 sec
sum of pair energies estimated for screened out pairs ...       0.000000000000 Eh
Thresholds for map construction and integral transformation for crude MP2:
   TCutMKN                    ...     1.0e-02
   TCutDO                     ...     1.0e-02
   TCutPairs                  ...     1.0e-05
   TCutPNO_CrudeMP2           ...     1.0e-07
   TCutPNOSingles_CrudeMP2    ...     3.0e-09
--------------------------------
LOCAL RI TRANSFORMATION (IAVPAO)
--------------------------------

Orbital window:       4 to 16
Number of PAOs:     218
Basis functions:    218 (82 shells)
Aux. functions:     534 (162 shells)

Processing maps (0.0 sec)
Average map sizes:
   Aux shells -> MOs              13.0
   Aux shells -> PAOs            218.0
   MOs        -> AO shells        82.0
   PAOs       -> AO shells        82.0

Calculating integrals (0.3 sec, 11.552 MB)
Sorting integrals (0.0 sec, 11.546 MB)
Total time for the integral transformation: 0.4 sec
--------------------------------
INITIAL GUESS AND PNO GENERATION
--------------------------------

PNO truncation parameters                   .... 
    PAOOverlapThresh   =        1.000e-08

    TCutPairs          =        1.000e-05
    TCutPNO            =        1.000e-07
    TCutPNOSingles     =        3.000e-09
    TCutMP2Pairs       =        1.000e-06
    TCutMKN            =        1.000e-02
    TCutDO             =        1.000e-02

Pair selection                          .... not used
Type of local MP2 treatment                 .... semi-local MP2
Strategy for PNO selection                  .... occupation number selection
Pair density normalization                  .... MP2 norm
Spin component scaling                      .... not used

   .... Finished loop over pairs
Making pair pair interaction lists          ... done

                       ===========================
                         91 OF   91 PAIRS ARE KEPT CCSD PAIRS
                          0 OF   91 PAIRS ARE KEPT MP2 PAIRS FOR (T)
                          0 OF   91 PAIRS ARE SKIPPED
                       ===========================

Total time spent in the initial guess                 ...     0.388 sec
SL-MP2 correlation energy (all non-screened pairs)    ...      -0.759859071002 Eh

Initial PNO correlation energy                        ...      -0.759326917702 Eh
sum of pair energies prescreened and skipped MP2 pairs...       0.000000000000 Eh
sum of pair energies of crude MP2 skipped pairs only  ...       0.000000000000 Eh
sum of MP2 pair energies for pairs that were not kept ...       0.000000000000 Eh
sum of PNO error estimates for the kept pairs         ...      -0.000532153300 Eh
                                                          --------------------
sum of all corrections                                         -0.000532153300
Initial total correlation energy                               -0.759859071002
Thresholds for map construction and integral transformation for fine MP2 and CCSD(T) calculation:
   TCutMKN   ...     1.0e-03
   TCutDO    ...     5.0e-03
   TCutPairs ...     1.0e-05
   TCutCMO   ...     1.0e-03
   TCutCPAO  ...     1.0e-03

Thresholds for map construction and integral transformation for strong Triples:
   TCutMKN   ...     1.0e-02
   TCutDO    ...     1.0e-02
   TCutCMO   ...     1.0e-03
   TCutCPAO  ...     1.0e-03

Thresholds for map construction and integral transformation for weak Triples:
   TCutMKN   ...     1.0e-01
   TCutDO    ...     2.0e-02
   TCutCMO   ...     1.0e-03
   TCutCPAO  ...     1.0e-03

--------------------------------
LOCAL RI TRANSFORMATION (IAVPAO)
--------------------------------

Orbital window:       4 to 16
Number of PAOs:     218
Basis functions:    218 (82 shells)
Aux. functions:     534 (162 shells)

Processing maps (0.0 sec)
Average map sizes:
   Aux shells -> MOs              13.0
   Aux shells -> PAOs            218.0
   MOs        -> AO shells        82.0
   PAOs       -> AO shells        82.0

Calculating integrals (0.3 sec, 11.552 MB)
Sorting integrals (0.0 sec, 11.546 MB)
Total time for the integral transformation: 0.4 sec
--------------------------------
INITIAL GUESS AND PNO GENERATION
--------------------------------

PNO truncation parameters                   .... 
    ScaleTCutPNO       =        1.000e-02
    PAOOverlapThresh   =        1.000e-08

    TCutPairs          =        1.000e-05
    TCutPNO            =        1.000e-07
    TCutPNOSingles     =        3.000e-09
    TCutMP2Pairs       =        1.000e-06
    TCutMKN            =        1.000e-03
    TCutDO             =        5.000e-03

Pair selection                          .... not used
Type of local MP2 treatment                 .... full local PMP2
Strategy for PNO selection                  .... occupation number selection
Pair density normalization                  .... MP2 norm
Spin component scaling                      .... not used

PASS-1: Formation of initial guess LMP2 amplitudes
Initial amplitudes guess done. Entering LMP2 iteration loop:
   Max. no of iterations          ...  50
   Energy convergence tolerance   ...    1.0e-07
   Residual convergence tolerance ...    5.0e-07
   Fock matrix cutoff             ...    1.0e-05 Eh
   DIIS convergence acceleration parameters:
        Max # vectors in DIIS     ... 7
        Start iteration of DIIS   ... 0
        Levelshift                ... 2.000e-01
        Damping factor 1          ... 5.000e-01
        Damping factor 2          ... 1.000e+00
   L-MP2 PNO cut-off              ...   1.0e-09
   L-MP2 PNO cut-off (core)       ...   1.0e-11
                           *** Turning on DIIS ***
LMP2-Iter=   0:  ELMP2= -0.773588406616  DE=   1.4e-02 RMAX=   6.9e-03
LMP2-Iter=   1:  ELMP2= -0.780323806494  DE=   6.7e-03 RMAX=   4.4e-03
LMP2-Iter=   2:  ELMP2= -0.781305194877  DE=   9.8e-04 RMAX=   9.3e-04
LMP2-Iter=   3:  ELMP2= -0.781440151831  DE=   1.3e-04 RMAX=   4.0e-04
LMP2-Iter=   4:  ELMP2= -0.781451254612  DE=   1.1e-05 RMAX=   4.3e-05
LMP2-Iter=   5:  ELMP2= -0.781450632428  DE=   6.2e-07 RMAX=   1.6e-05
LMP2-Iter=   6:  ELMP2= -0.781450425073  DE=   2.1e-07 RMAX=   1.1e-06
LMP2-Iter=   7:  ELMP2= -0.781450396487  DE=   2.9e-08 RMAX=   4.6e-07
LMP2-Iter=   8:  ELMP2= -0.781450400800  DE=   4.3e-09 RMAX=   4.2e-08 => CONVERGED
PASS-2: Formation of Pair natural orbitals
   .... Finished loop over pairs

 PNO Occupation Number Statistics: 
  | Av. % of trace(Dij) retained        ...  99.627636298955
  | sigma^2 in % of trace(Dij) retained ...   2.87e-01
  | Av. % of trace(Di) retained         ...  99.999773876503
  | sigma^2 in % of trace(Di) retained  ...   3.44e-09
 Distributions of % trace(Dij) recovered:
  |       >= 99.9  ...    37 ( 40.7 % of all pairs)
  |   [90.0, 99.0) ...    11 ( 12.1 % of all pairs)
  |   [99.0, 99.9) ...    43 ( 47.3 % of all pairs)
 Distributions of % trace(Di) recovered :
  |       >= 99.9  ...    13 (100.0 % of all I-pairs )

Making pair pair interaction lists          ... done

                       ===========================
                         91 OF   91 PAIRS ARE KEPT
                       ===========================

Total time spent in the initial guess                 ...     2.894 sec
L-MP2 correlation energy (all non-screened pairs)     ...      -0.781450400800 Eh
L-MP2 PNO error correction                            ...      -0.000009075760 Eh
                                                          --------------------
Initial total L-MP2 energy (non-screened pairs)       ...      -0.781459476561 Eh

Initial PNO correlation energy                        ...      -0.780944204279 Eh
sum of pair energies estimated for screened out pairs ...       0.000000000000 Eh
sum of MP2 pair energies for pairs that were not kept ...       0.000000000000 Eh
sum of PNO error estimates for the kept pairs         ...      -0.000515272282 Eh
                                                          --------------------
sum of all corrections                                         -0.000515272282
Initial total correlation energy                               -0.781459476561
Thresholds for map construction and integral transformation for fine MP2 and CCSD(T) calculation:
   TCutMKN   ...     1.0e-03
   TCutDO    ...     5.0e-03
   TCutPairs ...     1.0e-05
   TCutCMO   ...     1.0e-03
   TCutCPAO  ...     1.0e-03

Time for aux screen maps:            0.001
Time for maps after fine MP2:            0.004
-----------------------------
LOCAL RI TRANSFORMATION (IJV)
-----------------------------

Orbital window:       4 to 16
Basis functions:    218 (82 shells)
Aux. functions:     534 (162 shells)

Processing maps (0.0 sec)
Average map sizes:
   Aux shells -> MOs(i)           13.0
   Aux shells -> MOs(j)           13.0
   MOs        -> AO shells        82.0

Calculating integrals (0.3 sec, 0.695 MB)
Sorting integrals (0.0 sec, 0.689 MB)
Total time for the integral transformation: 0.3 sec
--------------------------------
LOCAL RI TRANSFORMATION (VABPAO)
--------------------------------

Number of PAOs:     218
Basis functions:    218 (82 shells)
Aux. functions:     534 (162 shells)

Processing maps (0.0 sec)
Average map sizes:
   Aux shells -> PAOs            218.0
   PAOs       -> AO shells        82.0

Calculating integrals (0.6 sec, 365.129 MB)
Finished


-------------------------------------
Pair Pair Term precalculation with     
RI-(ij|mn) and (im|jn) transformation  
ON THE FLY                             
-------------------------------------

   IBatch   1 (of   1)              ... done (   12.285 sec)
Total EXT                           ...          12.285 sec

---------------------
RI-PNO TRANSFORMATION
---------------------

Total Number of PNOs                   ...  3848
Average number of PNOs per pair        ...    42
Maximal number of PNOs per pair        ...    71
   #pairs with  1 -  5 PNOs   :    0
   #pairs with  6 - 10 PNOs   :    2
   #pairs with 11 - 15 PNOs   :    6
   #pairs with 16 - 20 PNOs   :    5
   #pairs with 21 - 25 PNOs   :    6
   #pairs with 26 - 30 PNOs   :    6
   #pairs with 31 - 35 PNOs   :    5
   #pairs with 36 - 40 PNOs   :    5
   #pairs with 41 - 45 PNOs   :   10
   #pairs with 46 - 50 PNOs   :   18
   #pairs with 51 - 55 PNOs   :    8
   #pairs with 56 - 60 PNOs   :    4
   #pairs with 61 - 65 PNOs   :    8
   #pairs with 66 - 70 PNOs   :    7
   #pairs with 71 - 75 PNOs   :    1

Generation of (ij|ab)[P] integrals            ... on
Generation of (ia|bc)[P],(ja|bc)[P] integrals ... on
Storage of 3 and 4 external integrals         ... on
Generation of ALL (ka|bc)[P] integrals        ... on
Keep RI integrals in memory                   ... off

Ibatch:  1 (of  1)
Starting 2-4 index PNO integral generation ... done

Timings:
Total PNO integral transformation time     ...          6.290 sec
Size of the 3-external file                ...        76 MB
Size of the 4-external file                ...       543 MB
Size of the IKJL file                      ...         0 MB
Size of the all 3-external file            ...       500 MB
Size of the 1-external file                ...         1 MB

Making pair/pair overlap matrices          ... done (    0.367 sec)
Size of the pair overlap file              ... 89 MB
Redoing the guess amplitudes               ... done (    0.002 sec)

-------------------------
FINAL STARTUP INFORMATION
-------------------------

E(0)                                       ...   -217.196113113
E(L-MP2)                                   ...     -0.781459477
E(L-MP2) including corrections             ...     -0.781459477
Initial E(tot)                             ...   -217.977572590
<T|T>                                      ...      0.190859758
Number of pairs included                   ... 91
Total number of pairs                      ... 91

------------------------------------------------
                  RHF COUPLED CLUSTER ITERATIONS
------------------------------------------------

Number of PNO amplitudes to be optimized   ...       187450
Number of non-PNO amplitudes               ...      3676491
Untruncated number of regular amplitudes   ...      3676491

Iter       E(tot)           E(Corr)          Delta-E          Residual     Time
  0   -217.955998788     -0.759370402      0.022089074      0.020993255   10.31
                           *** Turning on DIIS ***
  1   -217.990729015     -0.794100630     -0.034730227      0.013734204   10.32
  2   -218.010354313     -0.813725928     -0.019625298      0.003585713   11.16
  3   -218.013998786     -0.817370401     -0.003644473      0.002544742   14.46
  4   -218.014892654     -0.818264268     -0.000893868      0.000776391   11.60
  5   -218.015076042     -0.818447656     -0.000183388      0.000282920   11.70
  6   -218.015109419     -0.818481034     -0.000033377      0.000133562   11.41
  7   -218.015114824     -0.818486438     -0.000005405      0.000038718   11.55
  8   -218.015115064     -0.818486679     -0.000000240      0.000016991   11.14
  9   -218.015114219     -0.818485833      0.000000845      0.000002718   11.50
               --- The Coupled-Cluster iterations have converged ---

----------------------
COUPLED CLUSTER ENERGY
----------------------

E(0)                                       ...   -217.196113113
E(CORR)(strong-pairs)                      ...     -0.818485833
E(CORR)(weak-pairs)                        ...     -0.000515272
E(CORR)(corrected)                         ...     -0.819001105
E(TOT)                                     ...   -218.015114219
Singles Norm <S|S>**1/2                    ...      0.046536632  
T1 diagnostic                              ...      0.009126584  

------------------
LARGEST AMPLITUDES
------------------
   7-> 17   7-> 17       0.053475
  12-> 23  12-> 23       0.034329
  11-> 23  11-> 23       0.033346
  13-> 23  13-> 23       0.032219
  15-> 23  15-> 23       0.029300
  16-> 23  16-> 23       0.028798
  10-> 23  10-> 23       0.028670
  12-> 17  12-> 17       0.028162
  11-> 17  11-> 17       0.028137
  13-> 17  13-> 17       0.027477
  10-> 17  10-> 17       0.027457
  16-> 17  16-> 17       0.027316
  14-> 17  14-> 17       0.026694
  15-> 17  15-> 17       0.026354
  12-> 23  12-> 17       0.026188
  12-> 17  12-> 23       0.026188


-------------------------------------------
DLPNO BASED TRIPLES CORRECTION
-------------------------------------------

Singles multiplier          ...  1.000000
TCutTNO                     ... 1.000e-09
TCutMP2Pairs                ... 1.000e-06
TCutDOStrong                ... 1.000e-02
TCutMKNStrong               ... 1.000e-02
TCutDOWeak                  ... 2.000e-02
TCutMKNWeak                 ... 1.000e-01

Fragment selection                          .... not used
Number of Triples that are to be computed   ...       442

 . . . . . . . . .
10% done  
20% done  
30% done  
40% done  
50% done  
60% done  
70% done  
80% done  
90% done               (     22.892 sec)
Triples timings:
Total time for T0               ...    24.224 sec
Total time for Iterative (T)    ...     0.000 sec
Total time of overall (T)       ...    25.348 sec

Triples List generation         ...     0.000 sec
TNO generation                  ...     1.328 sec
Pair density generation         ...     0.003 sec
Look up tables                  ...     0.000 sec
Generating 3-index integrals    ...    10.271 sec
  Make 4-ind.int. from 3-ind.int...     5.034 sec
  Projecting amplitudes (D + S) ...     1.573 sec
  Downprojecting integrals      ...     0.001 sec
  Energy contr. (sum over a,b,c)...     1.565 sec
Fitting ET(->0)                 ...     0.000 sec

Everything after 3-index        ...    12.622 sec

Timing details:
 TNO integrals                  ...    14.712 sec
   Reading 3-index integrals    ...     0.063 sec
   Sorting integrals            ...     3.497 sec
       Sorting integrals 1      ...     0.000 sec
       Sorting integrals 2      ...     0.682 sec
       Sorting integrals 3      ...     0.105 sec
       Sorting integrals 4      ...     0.004 sec
       Sorting integrals 5      ...     0.020 sec
       Sorting integrals 6      ...     2.685 sec
   Calculating local VM**-1/2   ...     0.064 sec
   Orthogonal. integrals        ...     0.137 sec
   Multipl. 3-index integrals   ...    10.951 sec
   All concerning IRIab (w/TNO) ...     1.987 sec

 Calculate W0/W1                ...     4.446 sec
 W 3-ext contribution           ...     2.300 sec
 W 3-int contribution           ...     0.663 sec
 Sorting W                      ...     1.391 sec

 V exchange contribution        ...     0.498 sec

 Timings for Triples without generation
     of 3-index integrals       ...    12.621 sec
       0 weak pairs             ...    12.621 sec
       1 weak pair              ...     0.000 sec
       2 weak pairs             ...     0.000 sec
       3 weak pairs             ...     0.000 sec
  Extra time for extrapolation  ...     0.000 sec

Number of Triples   (0, 1, 2, 3 weak pairs; overall):    442       0       0       0  (   442)
Number of Atoms     (0, 1, 2, 3 weak pairs; overall):   10.9     0.0     0.0     0.0  (    11)
Number of PAOs      (0, 1, 2, 3 weak pairs; overall):  216.6     0.0     0.0     0.0  (   218)
Number of AuxFcns   (0, 1, 2, 3 weak pairs; overall):  296.8     0.0     0.0     0.0  (   534)
Number of TNOs      (0, 1, 2, 3 weak pairs         ):   93.3     0.0     0.0     0.0
Aver. Number of NTNO, Atoms, PAOs, AuxFcns / Triples:    442    93.3    10.9   216.6   296.8

Triples Correction (T)                     ...     -0.027338195
Final correlation energy                   ...     -0.846339301
E(CCSD)                                    ...   -218.015114219
E(CCSD(T))                                 ...   -218.042452414


Maximum memory used throughout the entire calculation: 2225.0 MB


------------------------------------------------------------------------------- 
                                     TIMINGS                                   
------------------------------------------------------------------------------- 


Total execution time                   ...      190.239 sec

Localization of occupied MO's          ...        0.437 sec (  0.2%)
Fock Matrix Formation                  ...        0.771 sec (  0.4%)
Global overlap, Fock, MKN matrices     ...        0.160 sec (  0.1%)
Differential overlap integrals         ...        0.052 sec (  0.0%)
Organizing maps                        ...        0.014 sec (  0.0%)
RI 3-index integral generations        ...        1.718 sec (  0.9%)
RI-PNO integral transformation         ...       42.899 sec ( 22.5%)
Initial Guess                          ...        3.307 sec (  1.7%)
DIIS Solver                            ...        0.591 sec (  0.3%)
State Vector Update                    ...        0.015 sec (  0.0%)
Sigma-vector construction              ...      115.021 sec ( 60.5%)
  <D|H|D>(0-ext)                       ...        0.604 sec (  0.5% of sigma)
  <D|H|D>(2-ext Fock)                  ...        0.008 sec (  0.0% of sigma)
  <D|H|D>(2-ext)                       ...        2.416 sec (  2.1% of sigma)
  <D|H|D>(4-ext)                       ...       18.547 sec ( 16.1% of sigma)
  <D|H|D>(4-ext-corr)                  ...       83.319 sec ( 72.4% of sigma)
  CCSD doubles correction              ...        0.061 sec (  0.1% of sigma)
  <S|H|S>                              ...        0.088 sec (  0.1% of sigma)
  <S|H|D>(1-ext)                       ...        0.093 sec (  0.1% of sigma)
  <D|H|S>(1-ext)                       ...        0.004 sec (  0.0% of sigma)
  <S|H|D>(3-ext)                       ...        0.207 sec (  0.2% of sigma)
  Fock-dressing                        ...        7.678 sec (  6.7% of sigma)
  Singles amplitudes                   ...        0.130 sec (  0.1% of sigma)
  (ik|jl)-dressing                     ...        0.475 sec (  0.4% of sigma)
  (ij|ab),(ia|jb)-dressing             ...        0.965 sec (  0.8% of sigma)
  Pair energies                        ...        0.005 sec (  0.0% of sigma)
Total Time for computing (T)           ...       25.365 sec ( 13.3% of ALL)


-------------------------   --------------------
FINAL SINGLE POINT ENERGY      -218.042452413894
-------------------------   --------------------


                            ***************************************
                            *     ORCA property calculations      *
                            ***************************************

                                    ---------------------
                                    Active property flags
                                    ---------------------
   (+) Dipole Moment


------------------------------------------------------------------------------
                       ORCA ELECTRIC PROPERTIES CALCULATION
------------------------------------------------------------------------------

Dipole Moment Calculation                       ... on
Quadrupole Moment Calculation                   ... off
Polarizability Calculation                      ... off
GBWName                                         ... fluoropropane_g.gbw
Electron density file                           ... fluoropropane_g.scfp.tmp
The origin for moment calculation is the CENTER OF MASS  = ( 0.184058, -0.073791 -0.027504)

-------------
DIPOLE MOMENT
-------------
                                X             Y             Z
Electronic contribution:      5.80072      -1.84596      -0.71579
Nuclear contribution   :     -6.25803       2.50886       0.93515
                        -----------------------------------------
Total Dipole Moment    :     -0.45731       0.66290       0.21936
                        -----------------------------------------
Magnitude (a.u.)       :      0.83468
Magnitude (Debye)      :      2.12159



--------------------
Rotational spectrum 
--------------------
 
Rotational constants in cm-1:     0.483966     0.165797     0.140611 
Rotational constants in MHz : 14508.930837  4970.454611  4215.414416 

 Dipole components along the rotational axes: 
x,y,z [a.u.] :     0.502618     0.636770     0.196448 
x,y,z [Debye]:     1.277555     1.618541     0.499330 

 

Timings for individual modules:

Sum of individual times         ...      194.915 sec (=   3.249 min)
GTO integral calculation        ...        0.423 sec (=   0.007 min)   0.2 %
SCF iterations                  ...        4.076 sec (=   0.068 min)   2.1 %
MDCI module                     ...      190.416 sec (=   3.174 min)  97.7 %
                             ****ORCA TERMINATED NORMALLY****
TOTAL RUN TIME: 0 days 0 hours 3 minutes 15 seconds 151 msec
fluoropropane_g.gbw -> /home1/pantazis/klk/xyz_1/haloalkanes_xyz/fluoropropane_g.gbw
fluoropropane_g.job -> /home1/pantazis/klk/xyz_1/haloalkanes_xyz/fluoropropane_g.job
fluoropropane_g.loc -> /home1/pantazis/klk/xyz_1/haloalkanes_xyz/fluoropropane_g.loc
fluoropropane_g.nodes -> /home1/pantazis/klk/xyz_1/haloalkanes_xyz/fluoropropane_g.nodes
fluoropropane_g.prop -> /home1/pantazis/klk/xyz_1/haloalkanes_xyz/fluoropropane_g.prop
fluoropropane_g_property.txt -> /home1/pantazis/klk/xyz_1/haloalkanes_xyz/fluoropropane_g_property.txt
fluoropropane_g.xyz -> /home1/pantazis/klk/xyz_1/haloalkanes_xyz/fluoropropane_g.xyz
cp: cannot stat fluoropropane_g.asa.inp: No such file or directory
