! Job execution by suborca V 6.07 on ZEUS !
Job started from zeus1, running /scratch/pantazis/fluorocyclohexane_eq__cq3HVH/orca/orca copied from /opt/orca on zeussn129 in /scratch/pantazis/fluorocyclohexane_eq__cq3HVH
Job execution start: Fri Jun 28 09:53:48 CEST 2019
Shared library path: /scratch/pantazis/fluorocyclohexane_eq__cq3HVH/orca:/opt/openmpi_1.10.2/lib:/opt/intel/mkl/lib/intel64:/opt/intel/lib/intel64:
PBS Job ID is: 158370.icqc
izeussn129
izeussn129
izeussn129
izeussn129
izeussn129
izeussn129
izeussn129
izeussn129

                                 *****************
                                 * O   R   C   A *
                                 *****************

           --- An Ab Initio, DFT and Semiempirical electronic structure package ---

                  #######################################################
                  #                        -***-                        #
                  #          Department of theory and spectroscopy      #
                  #               Directorship: Frank Neese             #
                  #        Max Planck Institute fuer Kohlenforschung    #
                  #                Kaiser Wilhelm Platz 1               #
                  #                 D-45470 Muelheim/Ruhr               #
                  #                      Germany                        #
                  #                                                     #
                  #                  All rights reserved                #
                  #                        -***-                        #
                  #######################################################


                         Program Version 4.1.x  -  STABLE  -
                                (SVN: $Rev: 14094$)
                ($Date: 2019-06-14 15:01:15 +0200 (Fri, 14 Jun 2019) $)

                         (BUILD: $Sun Jun 23 06:18:31 CEST 2019$)


 With contributions from (in alphabetic order):
   Daniel Aravena         : Magnetic Properties
   Michael Atanasov       : Ab Initio Ligand Field Theory
   Alexander A. Auer      : GIAO ZORA
   Ute Becker             : Parallelization
   Giovanni Bistoni       : ED, Open-shell LED
   Martin Brehm           : Molecular dynamics
   Dmytro Bykov           : SCF Hessian
   Vijay G. Chilkuri      : MRCI spin determinant printing
   Dipayan Datta          : RHF DLPNO-CCSD density
   Achintya Kumar Dutta   : EOM-CC, STEOM-CC
   Dmitry Ganyushin       : Spin-Orbit,Spin-Spin,Magnetic field MRCI
   Miquel Garcia          : C-PCM Hessian
   Yang Guo               : DLPNO-NEVPT2, CIM, IAO-localization
   Andreas Hansen         : Spin unrestricted coupled pair/coupled cluster methods
   Benjamin Helmich-Paris : CASSCF linear response (MC-RPA)
   Lee Huntington         : MR-EOM, pCC
   Robert Izsak           : Overlap fitted RIJCOSX, COSX-SCS-MP3, EOM
   Christian Kollmar      : KDIIS, OOCD, Brueckner-CCSD(T), CCSD density
   Simone Kossmann        : Meta GGA functionals, TD-DFT gradient, OOMP2, MP2 Hessian
   Martin Krupicka        : AUTO-CI
   Lucas Lang             : DCDCAS
   Dagmar Lenk            : GEPOL surface, SMD
   Dimitrios Liakos       : Extrapolation schemes; parallel MDCI
   Dimitrios Manganas     : ROCIS; embedding schemes
   Dimitrios Pantazis     : SARC Basis sets
   Taras Petrenko         : DFT Hessian,TD-DFT gradient, ASA, ECA, R-Raman, ABS, FL, XAS/XES, NRVS
   Peter Pinski           : DLPNO-MP2, DLPNO-MP2 Gradient
   Christoph Reimann      : Effective Core Potentials
   Marius Retegan         : Local ZFS, SOC
   Christoph Riplinger    : Optimizer, TS searches, QM/MM, DLPNO-CCSD(T), (RO)-DLPNO pert. Triples
   Tobias Risthaus        : Range-separated hybrids, TD-DFT gradient, RPA, STAB
   Michael Roemelt        : Restricted open shell CIS
   Masaaki Saitow         : Open-shell DLPNO
   Barbara Sandhoefer     : DKH picture change effects
   Avijit Sen             : IP-ROCIS
   Kantharuban Sivalingam : CASSCF convergence, NEVPT2, FIC-MRCI
   Bernardo de Souza      : ESD, SOC TD-DFT
   Georgi Stoychev        : AutoAux, RI-MP2 NMR
   Willem Van den Heuvel  : Paramagnetic NMR
   Boris Wezisla          : Elementary symmetry handling
   Frank Wennmohs         : Technical directorship


 We gratefully acknowledge several colleagues who have allowed us to
 interface, adapt or use parts of their codes:
   Stefan Grimme, W. Hujo, H. Kruse,             : VdW corrections, initial TS optimization,
                  C. Bannwarth                     DFT functionals, gCP, sTDA/sTD-DF
   Ed Valeev                                     : LibInt (2-el integral package), F12 methods
   Garnet Chan, S. Sharma, J. Yang, R. Olivares  : DMRG
   Ulf Ekstrom                                   : XCFun DFT Library
   Mihaly Kallay                                 : mrcc  (arbitrary order and MRCC methods)
   Andreas Klamt, Michael Diedenhofen            : otool_cosmo (COSMO solvation model)
   Jiri Pittner, Ondrej Demel                    : Mk-CCSD
   Frank Weinhold                                : gennbo (NPA and NBO analysis)
   Christopher J. Cramer and Donald G. Truhlar   : smd solvation model
   Lars Goerigk                                  : TD-DFT with DH, B97 family of functionals
   V. Asgeirsson, H. Jonsson                     : NEB implementation
   FAccTs GmbH                                   : IRC, NEB, NEB-TS, Multilevel


 Your calculation uses the libint2 library for the computation of 2-el integrals
 For citations please refer to: http://libint.valeyev.net

 This ORCA versions uses:
   CBLAS   interface :  Fast vector & matrix operations
   LAPACKE interface :  Fast linear algebra routines
   SCALAPACK package :  Parallel linear algebra routines




***************************************
The coordinates will be read from file: fluorocyclohexane_eq.xyz
***************************************


----- Orbital basis set information -----
Your calculation utilizes the basis: cc-pVTZ 
       H, B-Ne : Obtained from the ccRepo (grant-hill.group.shef.ac.uk/ccrepo) Feb. 2017
                 T. H. Dunning, Jr., J. Chem. Phys. 90, 1007 (1989)
            He : Obtained from the ccRepo (grant-hill.group.shef.ac.uk/ccrepo) Feb. 2017
                 D. E. Woon, T. H. Dunning, Jr., J. Chem. Phys. 100, 2975 (1994)
  Li-Be, Na-Mg : Obtained from the ccRepo (grant-hill.group.shef.ac.uk/ccrepo) Feb. 2017
                 B. P. Prascher, D. E. Woon, K. A. Peterson, T. H. Dunning, Jr., A. K. Wilson, Theor. Chem. Acc. 128, 69 (2011)
         Al-Ar : Obtained from the ccRepo (grant-hill.group.shef.ac.uk/ccrepo) Feb. 2017
                 D. E. Woon, T. H. Dunning, Jr., J. Chem. Phys. 98, 1358 (1993)
            Ca : Obtained from the Peterson Research Group Website (tyr0.chem.wsu.edu/~kipeters) Feb. 2017
                 J. Koput, K. A. Peterson, J. Phys. Chem. 106, 9595 (2002)
         Sc-Zn : Obtained from the ccRepo (grant-hill.group.shef.ac.uk/ccrepo) Feb. 2017
                 N. B. Balabanov, K. A. Peterson, J. Chem. Phys. 123, 064107 (2005)
                 N. B. Balabanov, K. A. Peterson, J. Chem. Phys. 125, 074110 (2006)
         Ga-Kr : Obtained from the ccRepo (grant-hill.group.shef.ac.uk/ccrepo) Feb. 2017
                 A. K. Wilson, D. E. Woon, K. A. Peterson, T. H. Dunning, Jr., J. Chem. Phys. 110, 7667 (1999)
             Y : Obtained from the ccRepo (grant-hill.group.shef.ac.uk/ccrepo) Feb. 2017
                 K. A. Peterson, D. Figgen, M. Dolg, H. Stoll, J. Chem. Phys. 126, 124101 (2007)
        Ag, Au : Obtained from the Peterson Research Group Website (tyr0.chem.wsu.edu/~kipeters) Feb. 2017
                 K. A. Peterson, C. Puzzarini, Theor. Chem. Acc. 114, 283 (2005)

----- AuxC basis set information -----
Your calculation utilizes the auxiliary basis: cc-pVTZ/C 
  Obtained from the EMSL Basis Set Exchange (bse.pnl.gov) Feb. 2017
  H-He, B-F, Al-Ar, Ga-Kr : F. Weigend, A. Kohn, C. Hattig, J. Chem. Phys. 116, 3175 (2002)
             Li-Be, Na-Mg : C. Haettig, Phys. Chem. Chem. Phys. 7, 59 (2005)
                       Ne : C. Haettig, Phys. Chem. Chem. Phys. 7, 59 (2005)
                            F. Weigend, A. Kohn, C. Hattig, J. Chem. Phys. 116, 3175 (2002)
                    Sc-Zn : J. G. Hill, J. A. Platts, J. Chem. Phys. 128, 044104 (2008)

----- AuxJK basis set information -----
Your calculation utilizes the auxiliary basis: cc-pVTZ/JK 
  H, B-F, Al-Cl, Ga-Br : Obtained from the TURBOMOLE 7.0 basis set library

================================================================================
                                        WARNINGS
                       Please study these warnings very carefully!
================================================================================


WARNING: MDCI localization with Augmented Hessian Foster-Boys
  ===> : Switching off randomization!

WARNING: Post HF methods need fully converged wavefunctions
  ===> : Setting SCFConvForced true
         You can overwrite this default with %scf ConvForced false 


INFO   : the flag for use of LIBINT has been found!

================================================================================
                                       INPUT FILE
================================================================================
NAME = fluorocyclohexane_eq.inp
|  1> ! RHF DLPNO-CCSD(T) cc-pVTZ RIJK cc-pVTZ/JK cc-pVTZ/C
|  2> ! KDIIS SOSCF TightSCF TightPNO
|  3> 
|  4> %pal nprocs 8 end
|  5> 
|  6> %maxcore 8000
|  7> 
|  8> %scf maxiter 300
|  9>      shift shift 0.2 erroff 0.1 end
| 10> end
| 11> 
| 12> * xyzfile 0 1 fluorocyclohexane_eq.xyz 
| 13> 
| 14> 
| 15>                          ****END OF INPUT****
================================================================================

                       ****************************
                       * Single Point Calculation *
                       ****************************

---------------------------------
CARTESIAN COORDINATES (ANGSTROEM)
---------------------------------
  C      0.346320   -1.266110   -0.175090
  C      1.027130   -0.000000    0.328460
  C      0.346340    1.266110   -0.175080
  C     -1.145040    1.270050    0.209900
  C     -1.858270    0.000000   -0.282340
  C     -1.145060   -1.270040    0.209900
  F      2.378120   -0.000020   -0.102560
  H      0.858750    2.146360    0.228840
  H      0.451350    1.301700   -1.267640
  H     -1.628820    2.164900   -0.198340
  H     -1.880060    0.000000   -1.381480
  H     -2.902880    0.000020    0.051620
  H      1.068850   -0.000020    1.426140
  H     -1.628860   -2.164900   -0.198300
  H     -1.239960   -1.338090    1.303280
  H      0.451310   -1.301670   -1.267650
  H      0.858700   -2.146370    0.228840
  H     -1.239970    1.338120    1.303270

----------------------------
CARTESIAN COORDINATES (A.U.)
----------------------------
  NO LB      ZA    FRAG     MASS         X           Y           Z
   0 C     6.0000    0    12.011    0.654450   -2.392601   -0.330872
   1 C     6.0000    0    12.011    1.940994   -0.000000    0.620699
   2 C     6.0000    0    12.011    0.654488    2.392601   -0.330853
   3 C     6.0000    0    12.011   -2.163812    2.400047    0.396654
   4 C     6.0000    0    12.011   -3.511621    0.000000   -0.533545
   5 C     6.0000    0    12.011   -2.163850   -2.400028    0.396654
   6 F     9.0000    0    18.998    4.493996   -0.000038   -0.193810
   7 H     1.0000    0     1.008    1.622802    4.056033    0.432445
   8 H     1.0000    0     1.008    0.852928    2.459857   -2.395492
   9 H     1.0000    0     1.008   -3.078024    4.091068   -0.374808
  10 H     1.0000    0     1.008   -3.552799    0.000000   -2.610619
  11 H     1.0000    0     1.008   -5.485648    0.000038    0.097548
  12 H     1.0000    0     1.008    2.019834   -0.000038    2.695014
  13 H     1.0000    0     1.008   -3.078099   -4.091068   -0.374733
  14 H     1.0000    0     1.008   -2.343185   -2.528624    2.462842
  15 H     1.0000    0     1.008    0.852852   -2.459800   -2.395511
  16 H     1.0000    0     1.008    1.622708   -4.056051    0.432445
  17 H     1.0000    0     1.008   -2.343204    2.528680    2.462823

--------------------------------
INTERNAL COORDINATES (ANGSTROEM)
--------------------------------
 C      0   0   0     0.000000000000     0.00000000     0.00000000
 C      1   0   0     1.523187247419     0.00000000     0.00000000
 C      2   1   0     1.523175002355   112.45007314     0.00000000
 C      3   2   1     1.540272517576   110.62595970    56.09114845
 C      4   3   2     1.537538374480   111.53203647   305.27304633
 C      5   4   3     1.537520836704   111.38603702    54.32998666
 F      2   1   3     1.418080470530   108.98524876   239.04102436
 H      3   2   1     1.095698606826   109.68788831   178.88702357
 H      3   2   1     1.098171708705   108.24593345   295.56567216
 H      4   3   2     1.096111084015   109.65459027   182.52860566
 H      5   4   3     1.099355967692   109.22505573   293.59384304
 H      5   4   3     1.096694731500   110.14164556   176.84715973
 H      2   1   3     1.098472549134   110.32297678   123.62818527
 H      6   5   4     1.096113178280   110.51165986   183.41493773
 H      6   5   4     1.099598398007   109.23401520    66.73139886
 H      1   2   3     1.098168824589   108.24527067    64.43268550
 H      1   2   3     1.095696297749   109.68826851   181.11427018
 H      4   3   2     1.099592282030   109.40712124    66.23526421

---------------------------
INTERNAL COORDINATES (A.U.)
---------------------------
 C      0   0   0     0.000000000000     0.00000000     0.00000000
 C      1   0   0     2.878406748303     0.00000000     0.00000000
 C      2   1   0     2.878383608486   112.45007314     0.00000000
 C      3   2   1     2.910693229824   110.62595970    56.09114845
 C      4   3   2     2.905526448163   111.53203647   305.27304633
 C      5   4   3     2.905493306569   111.38603702    54.32998666
 F      2   1   3     2.679783725165   108.98524876   239.04102436
 H      3   2   1     2.070570292220   109.68788831   178.88702357
 H      3   2   1     2.075243777473   108.24593345   295.56567216
 H      4   3   2     2.071349761143   109.65459027   182.52860566
 H      5   4   3     2.077481702630   109.22505573   293.59384304
 H      5   4   3     2.072452695049   110.14164556   176.84715973
 H      2   1   3     2.075812283493   110.32297678   123.62818527
 H      6   5   4     2.071353718732   110.51165986   183.41493773
 H      6   5   4     2.077939829532   109.23401520    66.73139886
 H      1   2   3     2.075238327284   108.24527067    64.43268550
 H      1   2   3     2.070565928696   109.68826851   181.11427018
 H      4   3   2     2.077928272010   109.40712124    66.23526421

---------------------
BASIS SET INFORMATION
---------------------
There are 3 groups of distinct atoms

 Group   1 Type C   : 18s5p2d1f contracted to 4s3p2d1f pattern {8811/311/11/1}
 Group   2 Type F   : 18s5p2d1f contracted to 4s3p2d1f pattern {8811/311/11/1}
 Group   3 Type H   : 5s2p1d contracted to 3s2p1d pattern {311/11/1}

Atom   0C    basis set group =>   1
Atom   1C    basis set group =>   1
Atom   2C    basis set group =>   1
Atom   3C    basis set group =>   1
Atom   4C    basis set group =>   1
Atom   5C    basis set group =>   1
Atom   6F    basis set group =>   2
Atom   7H    basis set group =>   3
Atom   8H    basis set group =>   3
Atom   9H    basis set group =>   3
Atom  10H    basis set group =>   3
Atom  11H    basis set group =>   3
Atom  12H    basis set group =>   3
Atom  13H    basis set group =>   3
Atom  14H    basis set group =>   3
Atom  15H    basis set group =>   3
Atom  16H    basis set group =>   3
Atom  17H    basis set group =>   3
-------------------------------
AUXILIARY BASIS SET INFORMATION
-------------------------------
There are 3 groups of distinct atoms

 Group   1 Type C   : 8s6p5d3f1g contracted to 8s6p5d3f1g pattern {11111111/111111/11111/111/1}
 Group   2 Type F   : 8s6p5d3f1g contracted to 8s6p5d3f1g pattern {11111111/111111/11111/111/1}
 Group   3 Type H   : 4s3p2d1f contracted to 4s3p2d1f pattern {1111/111/11/1}

Atom   0C    basis set group =>   1
Atom   1C    basis set group =>   1
Atom   2C    basis set group =>   1
Atom   3C    basis set group =>   1
Atom   4C    basis set group =>   1
Atom   5C    basis set group =>   1
Atom   6F    basis set group =>   2
Atom   7H    basis set group =>   3
Atom   8H    basis set group =>   3
Atom   9H    basis set group =>   3
Atom  10H    basis set group =>   3
Atom  11H    basis set group =>   3
Atom  12H    basis set group =>   3
Atom  13H    basis set group =>   3
Atom  14H    basis set group =>   3
Atom  15H    basis set group =>   3
Atom  16H    basis set group =>   3
Atom  17H    basis set group =>   3
-------------------------------
AUXILIARY BASIS SET INFORMATION
-------------------------------
There are 3 groups of distinct atoms

 Group   1 Type C   : 10s7p5d2f1g contracted to 10s7p5d2f1g pattern {1111111111/1111111/11111/11/1}
 Group   2 Type F   : 10s7p5d2f1g contracted to 10s7p5d2f1g pattern {1111111111/1111111/11111/11/1}
 Group   3 Type H   : 4s3p2d1f contracted to 4s3p2d1f pattern {1111/111/11/1}

Atom   0C    basis set group =>   1
Atom   1C    basis set group =>   1
Atom   2C    basis set group =>   1
Atom   3C    basis set group =>   1
Atom   4C    basis set group =>   1
Atom   5C    basis set group =>   1
Atom   6F    basis set group =>   2
Atom   7H    basis set group =>   3
Atom   8H    basis set group =>   3
Atom   9H    basis set group =>   3
Atom  10H    basis set group =>   3
Atom  11H    basis set group =>   3
Atom  12H    basis set group =>   3
Atom  13H    basis set group =>   3
Atom  14H    basis set group =>   3
Atom  15H    basis set group =>   3
Atom  16H    basis set group =>   3
Atom  17H    basis set group =>   3


           ************************************************************
           *        Program running with 8 parallel MPI-processes     *
           *              working on a common directory               *
           ************************************************************
------------------------------------------------------------------------------
                           ORCA GTO INTEGRAL CALCULATION
                           -- RI-GTO INTEGRALS CHOSEN --
------------------------------------------------------------------------------

                         BASIS SET STATISTICS AND STARTUP INFO

Gaussian basis set:
 # of primitive gaussian shells          ...  270
 # of primitive gaussian functions       ...  526
 # of contracted shells                  ...  136
 # of contracted basis functions         ...  364
 Highest angular momentum                ...    3
 Maximum contraction depth               ...    8
Auxiliary gaussian basis set:
 # of primitive gaussian shells          ...  285
 # of primitive gaussian functions       ...  883
 # of contracted shells                  ...  285
 # of contracted aux-basis functions     ...  883
 Highest angular momentum                ...    4
 Maximum contraction depth               ...    1
Ratio of auxiliary to basis functions    ...  2.43
Integral package used                  ... LIBINT
 One Electron integrals                  ... done
 Ordering auxiliary basis shells         ... done
 Integral threshhold             Thresh  ...  2.500e-11
 Primitive cut-off               TCut    ...  2.500e-12
 Pre-screening matrix                    ... done
 Shell pair data                         ... 
 Ordering of the shell pairs             ... done (   0.002 sec) 8943 of 9316 pairs
 Determination of significant pairs      ... done (   0.000 sec)
 Creation of shell pair data             ... done (   0.002 sec)
 Storage of shell pair data              ... done (   0.003 sec)
 Shell pair data done in (   0.007 sec)
 Computing two index integrals           ... done
 Cholesky decomposition of the V-matrix  ... done


Timings:
 Total evaluation time                   ...   0.534 sec (  0.009 min)
 One electron matrix time                ...   0.111 sec (  0.002 min) = 20.7%
 Schwartz matrix evaluation time         ...   0.251 sec (  0.004 min) = 47.1%
 Two index repulsion integral time       ...   0.064 sec (  0.001 min) = 12.0%
 Cholesky decomposition of V             ...   0.073 sec (  0.001 min) = 13.7%
 Three index repulsion integral time     ...   0.000 sec (  0.000 min) =  0.0%



           ************************************************************
           *        Program running with 8 parallel MPI-processes     *
           *              working on a common directory               *
           ************************************************************
-------------------------------------------------------------------------------
                                 ORCA SCF
-------------------------------------------------------------------------------

------------
SCF SETTINGS
------------
Hamiltonian:
 Ab initio Hamiltonian  Method          .... Hartree-Fock(GTOs)
 RI-approximation to the Coulomb term is turned on
   Number of auxiliary basis functions  .... 883
   RI-JK (J+K treated both via RI)      .... on


General Settings:
 Integral files         IntName         .... fluorocyclohexane_eq
 Hartree-Fock type      HFTyp           .... RHF
 Total Charge           Charge          ....    0
 Multiplicity           Mult            ....    1
 Number of Electrons    NEL             ....   56
 Basis Dimension        Dim             ....  364
 Nuclear Repulsion      ENuc            ....    327.0466910156 Eh

Convergence Acceleration:
 DIIS                   CNVDIIS         .... off
 Newton-Raphson         CNVNR           .... off
 SOSCF                  CNVSOSCF        .... on
   Start iteration      SOSCFMaxIt      ....   150
   Startup grad/error   SOSCFStart      ....  0.003300
 Level Shifting         CNVShift        .... on
   Level shift para.    LevelShift      ....    0.2000
   Turn off err/grad.   ShiftErr        ....    0.1000
 Zerner damping         CNVZerner       .... off
 Static damping         CNVDamp         .... off
 Fernandez-Rico         CNVRico         .... off

SCF Procedure:
 Maximum # iterations   MaxIter         ....   300
 SCF integral mode      SCFMode         .... Direct
   Integral package                     .... LIBINT
 Reset frequency        DirectResetFreq ....    20
 Integral Threshold     Thresh          ....  2.500e-11 Eh
 Primitive CutOff       TCut            ....  2.500e-12 Eh

Convergence Tolerance:
 Convergence Check Mode ConvCheckMode   .... Total+1el-Energy
 Convergence forced     ConvForced      .... 1
 Energy Change          TolE            ....  1.000e-08 Eh
 1-El. energy change                    ....  1.000e-05 Eh
 Orbital Gradient       TolG            ....  1.000e-05
 Orbital Rotation angle TolX            ....  1.000e-05


Diagonalization of the overlap matrix:
Smallest eigenvalue                        ... 3.634e-04
Time for diagonalization                   ...    0.026 sec
Threshold for overlap eigenvalues          ... 1.000e-08
Number of eigenvalues below threshold      ... 0
Time for construction of square roots      ...    0.029 sec
Total time needed                          ...    0.056 sec

-------------------
DFT GRID GENERATION
-------------------

General Integration Accuracy     IntAcc      ...  4.340
Radial Grid Type                 RadialGrid  ... Gauss-Chebyshev
Angular Grid (max. acc.)         AngularGrid ... Lebedev-110
Angular grid pruning method      GridPruning ... 3 (G Style)
Weight generation scheme         WeightScheme... Becke
Basis function cutoff            BFCut       ...    1.0000e-11
Integration weight cutoff        WCut        ...    1.0000e-14
Grids for H and He will be reduced by one unit

# of grid points (after initial pruning)     ...  20410 (   0.0 sec)
# of grid points (after weights+screening)   ...  18605 (   0.0 sec)
nearest neighbour list constructed           ...    0.0 sec
Grid point re-assignment to atoms done       ...    0.0 sec
Grid point division into batches done        ...    0.0 sec
Reduced shell lists constructed in    0.1 sec

Total number of grid points                  ...    18605
Total number of batches                      ...      298
Average number of points per batch           ...       62
Average number of grid points per atom       ...     1034
Average number of shells per batch           ...   119.51 (87.88%)
Average number of basis functions per batch  ...   317.51 (87.23%)
Average number of large shells per batch     ...    98.18 (82.15%)
Average number of large basis fcns per batch ...   256.54 (80.80%)
Average number of aux-shells per batch       ...   119.51 (41.93%)
Average number of aux functions per batch    ...   317.51 (35.96%)
Maximum spatial batch extension              ...   2.38,  2.59,  3.06 au
Average spatial batch extension              ...   0.19,  0.19,  0.19 au

Time for grid setup =    0.170 sec

------------------------------
INITIAL GUESS: MODEL POTENTIAL
------------------------------
Loading Hartree-Fock densities                     ... done
Calculating cut-offs                               ... done
Setting up the integral package                    ... done
Initializing the effective Hamiltonian             ... done
Starting the Coulomb interaction                   ... done (   0.1 sec)
Reading the grid                                   ... done
Mapping shells                                     ... done
Starting the XC term evaluation                    ... done (   0.1 sec)
Transforming the Hamiltonian                       ... done (   0.0 sec)
Diagonalizing the Hamiltonian                      ... done (   0.0 sec)
Back transforming the eigenvectors                 ... done (   0.0 sec)
Now organizing SCF variables                       ... done
                      ------------------
                      INITIAL GUESS DONE (   0.5 sec)
                      ------------------
--------------
SCF ITERATIONS
--------------
ITER       Energy         Delta-E        Max-DP      RMS-DP      [F,P]   Gradient Norm
                             ****Turning on KDIIS(Cayley)****
  0   -332.8437043274   0.000000000000 0.00965822  0.00022494  0.1976767   0.146134534
  1   -332.9345965569  -0.090892229497 0.01796677  0.00027780  0.1798189   0.127939725
  2   -333.0164355187  -0.081838961783 0.02968358  0.00048153  0.1453794   0.103554436
  3   -333.1163835423  -0.099948023677 0.04517315  0.00076452  0.0864713   0.063656679
                      *** Initiating the SOSCF procedure ***
                           *** Shutting down KDIIS ***
                      *** Re-Reading the Fockian *** 
                      *** Removing any level shift *** 
ITER      Energy       Delta-E        Grad      Rot      Max-DP    RMS-DP
  4   -333.18020225  -0.0638187051  0.002789  0.002789  0.001715  0.000051
  5   -333.18046704  -0.0002647886  0.001037  0.001419  0.001207  0.000035
  6   -333.18049918  -0.0000321398  0.000454  0.000373  0.000489  0.000015
  7   -333.18050759  -0.0000084102  0.000053  0.000063  0.000126  0.000004
  8   -333.18050779  -0.0000002056  0.000024  0.000024  0.000064  0.000002
  9   -333.18050781  -0.0000000165  0.000016  0.000005  0.000012  0.000000
                  ***Gradient check signals convergence***
              ***Rediagonalizing the Fockian in SOSCF/NRSCF***

               *****************************************************
               *                     SUCCESS                       *
               *           SCF CONVERGED AFTER  10 CYCLES          *
               *****************************************************


----------------
TOTAL SCF ENERGY
----------------

Total Energy       :         -333.18050781 Eh           -9066.30254 eV

Components:
Nuclear Repulsion  :          327.04669102 Eh            8899.39290 eV
Electronic Energy  :         -660.22719883 Eh          -17965.69544 eV
One Electron Energy:        -1103.22801727 Eh          -30020.36056 eV
Two Electron Energy:          443.00081844 Eh           12054.66512 eV

Virial components:
Potential Energy   :         -665.84514213 Eh          -18118.56745 eV
Kinetic Energy     :          332.66463432 Eh            9052.26491 eV
Virial Ratio       :            2.00155073


---------------
SCF CONVERGENCE
---------------

  Last Energy change         ...   -4.7515e-09  Tolerance :   1.0000e-08
  Last MAX-Density change    ...    5.2617e-06  Tolerance :   1.0000e-07
  Last RMS-Density change    ...    1.4402e-07  Tolerance :   5.0000e-09
  Last Orbital Gradient      ...    1.4266e-06  Tolerance :   1.0000e-05
  Last Orbital Rotation      ...    2.0246e-06  Tolerance :   1.0000e-05

             **** THE GBW FILE WAS UPDATED (fluorocyclohexane_eq.gbw) ****
             **** DENSITY FILE WAS UPDATED (fluorocyclohexane_eq.scfp.tmp) ****
             **** ENERGY FILE WAS UPDATED (fluorocyclohexane_eq.en.tmp) ****
----------------
ORBITAL ENERGIES
----------------

  NO   OCC          E(Eh)            E(eV) 
   0   2.0000     -26.256442      -714.4741 
   1   2.0000     -11.304052      -307.5989 
   2   2.0000     -11.229580      -305.5724 
   3   2.0000     -11.229534      -305.5711 
   4   2.0000     -11.226549      -305.4899 
   5   2.0000     -11.225890      -305.4720 
   6   2.0000     -11.225874      -305.4716 
   7   2.0000      -1.561639       -42.4944 
   8   2.0000      -1.121611       -30.5206 
   9   2.0000      -1.013278       -27.5727 
  10   2.0000      -1.005084       -27.3497 
  11   2.0000      -0.847396       -23.0588 
  12   2.0000      -0.836279       -22.7563 
  13   2.0000      -0.771338       -20.9892 
  14   2.0000      -0.678198       -18.4547 
  15   2.0000      -0.671180       -18.2637 
  16   2.0000      -0.647292       -17.6137 
  17   2.0000      -0.627023       -17.0622 
  18   2.0000      -0.601165       -16.3585 
  19   2.0000      -0.588704       -16.0194 
  20   2.0000      -0.557201       -15.1622 
  21   2.0000      -0.537302       -14.6207 
  22   2.0000      -0.505332       -13.7508 
  23   2.0000      -0.494193       -13.4477 
  24   2.0000      -0.490851       -13.3567 
  25   2.0000      -0.469445       -12.7742 
  26   2.0000      -0.452210       -12.3053 
  27   2.0000      -0.438582       -11.9344 
  28   0.0000       0.134524         3.6606 
  29   0.0000       0.148342         4.0366 
  30   0.0000       0.160806         4.3757 
  31   0.0000       0.173889         4.7318 
  32   0.0000       0.203874         5.5477 
  33   0.0000       0.209312         5.6957 
  34   0.0000       0.212426         5.7804 
  35   0.0000       0.220217         5.9924 
  36   0.0000       0.221996         6.0408 
  37   0.0000       0.243914         6.6372 
  38   0.0000       0.245125         6.6702 
  39   0.0000       0.289618         7.8809 
  40   0.0000       0.312758         8.5106 
  41   0.0000       0.334154         9.0928 
  42   0.0000       0.343132         9.3371 
  43   0.0000       0.369195        10.0463 
  44   0.0000       0.377724        10.2784 
  45   0.0000       0.388811        10.5801 
  46   0.0000       0.400455        10.8969 
  47   0.0000       0.418705        11.3935 
  48   0.0000       0.426109        11.5950 
  49   0.0000       0.448695        12.2096 
  50   0.0000       0.472032        12.8446 
  51   0.0000       0.476937        12.9781 
  52   0.0000       0.506387        13.7795 
  53   0.0000       0.531169        14.4538 
  54   0.0000       0.552567        15.0361 
  55   0.0000       0.556419        15.1409 
  56   0.0000       0.577903        15.7255 
  57   0.0000       0.589013        16.0279 
  58   0.0000       0.592043        16.1103 
  59   0.0000       0.596769        16.2389 
  60   0.0000       0.611556        16.6413 
  61   0.0000       0.622276        16.9330 
  62   0.0000       0.625742        17.0273 
  63   0.0000       0.627932        17.0869 
  64   0.0000       0.634713        17.2714 
  65   0.0000       0.649776        17.6813 
  66   0.0000       0.659649        17.9500 
  67   0.0000       0.664550        18.0833 
  68   0.0000       0.676373        18.4050 
  69   0.0000       0.683151        18.5895 
  70   0.0000       0.694670        18.9029 
  71   0.0000       0.696391        18.9498 
  72   0.0000       0.710081        19.3223 
  73   0.0000       0.734106        19.9761 
  74   0.0000       0.796698        21.6792 
  75   0.0000       0.803473        21.8636 
  76   0.0000       0.839889        22.8546 
  77   0.0000       0.845457        23.0060 
  78   0.0000       0.894988        24.3539 
  79   0.0000       0.914266        24.8784 
  80   0.0000       0.941683        25.6245 
  81   0.0000       0.949843        25.8465 
  82   0.0000       0.969937        26.3933 
  83   0.0000       0.981851        26.7175 
  84   0.0000       0.984045        26.7772 
  85   0.0000       1.023678        27.8557 
  86   0.0000       1.054691        28.6996 
  87   0.0000       1.087834        29.6015 
  88   0.0000       1.091445        29.6997 
  89   0.0000       1.101116        29.9629 
  90   0.0000       1.113792        30.3078 
  91   0.0000       1.128294        30.7024 
  92   0.0000       1.148053        31.2401 
  93   0.0000       1.171094        31.8671 
  94   0.0000       1.186631        32.2899 
  95   0.0000       1.205928        32.8150 
  96   0.0000       1.214806        33.0565 
  97   0.0000       1.228666        33.4337 
  98   0.0000       1.246432        33.9171 
  99   0.0000       1.249874        34.0108 
 100   0.0000       1.284054        34.9409 
 101   0.0000       1.285646        34.9842 
 102   0.0000       1.306334        35.5471 
 103   0.0000       1.308616        35.6092 
 104   0.0000       1.321575        35.9619 
 105   0.0000       1.323651        36.0184 
 106   0.0000       1.338913        36.4337 
 107   0.0000       1.350000        36.7354 
 108   0.0000       1.358123        36.9564 
 109   0.0000       1.371043        37.3080 
 110   0.0000       1.379578        37.5402 
 111   0.0000       1.380750        37.5721 
 112   0.0000       1.418345        38.5951 
 113   0.0000       1.445645        39.3380 
 114   0.0000       1.450216        39.4624 
 115   0.0000       1.471686        40.0466 
 116   0.0000       1.485066        40.4107 
 117   0.0000       1.487257        40.4703 
 118   0.0000       1.489299        40.5259 
 119   0.0000       1.497621        40.7523 
 120   0.0000       1.531869        41.6843 
 121   0.0000       1.540205        41.9111 
 122   0.0000       1.552059        42.2337 
 123   0.0000       1.562021        42.5047 
 124   0.0000       1.580691        43.0128 
 125   0.0000       1.598171        43.4884 
 126   0.0000       1.610483        43.8235 
 127   0.0000       1.633992        44.4632 
 128   0.0000       1.644645        44.7531 
 129   0.0000       1.655808        45.0568 
 130   0.0000       1.672748        45.5178 
 131   0.0000       1.689184        45.9650 
 132   0.0000       1.693271        46.0763 
 133   0.0000       1.698065        46.2067 
 134   0.0000       1.732332        47.1391 
 135   0.0000       1.764626        48.0179 
 136   0.0000       1.808354        49.2078 
 137   0.0000       1.811299        49.2880 
 138   0.0000       1.831098        49.8267 
 139   0.0000       1.863275        50.7023 
 140   0.0000       1.882563        51.2271 
 141   0.0000       1.889842        51.4252 
 142   0.0000       1.967276        53.5323 
 143   0.0000       1.973778        53.7092 
 144   0.0000       2.042456        55.5781 
 145   0.0000       2.052652        55.8555 
 146   0.0000       2.089173        56.8493 
 147   0.0000       2.263559        61.5946 
 148   0.0000       2.411516        65.6207 
 149   0.0000       2.415226        65.7216 
 150   0.0000       2.450314        66.6764 
 151   0.0000       2.522936        68.6526 
 152   0.0000       2.583007        70.2872 
 153   0.0000       2.627887        71.5084 
 154   0.0000       2.643945        71.9454 
 155   0.0000       2.667051        72.5742 
 156   0.0000       2.699682        73.4621 
 157   0.0000       2.736017        74.4508 
 158   0.0000       2.742351        74.6232 
 159   0.0000       2.782970        75.7285 
 160   0.0000       2.797031        76.1111 
 161   0.0000       2.812582        76.5342 
 162   0.0000       2.817971        76.6809 
 163   0.0000       2.841314        77.3161 
 164   0.0000       2.858635        77.7874 
 165   0.0000       2.861208        77.8574 
 166   0.0000       2.867814        78.0372 
 167   0.0000       2.877227        78.2933 
 168   0.0000       2.892860        78.7187 
 169   0.0000       2.900908        78.9377 
 170   0.0000       2.904283        79.0296 
 171   0.0000       2.942181        80.0608 
 172   0.0000       2.953322        80.3640 
 173   0.0000       2.961611        80.5895 
 174   0.0000       2.971580        80.8608 
 175   0.0000       2.982206        81.1499 
 176   0.0000       2.991658        81.4072 
 177   0.0000       3.004491        81.7564 
 178   0.0000       3.041826        82.7723 
 179   0.0000       3.049522        82.9817 
 180   0.0000       3.064792        83.3972 
 181   0.0000       3.093418        84.1762 
 182   0.0000       3.152703        85.7894 
 183   0.0000       3.164267        86.1041 
 184   0.0000       3.169103        86.2357 
 185   0.0000       3.182151        86.5907 
 186   0.0000       3.201610        87.1202 
 187   0.0000       3.220870        87.6443 
 188   0.0000       3.233361        87.9842 
 189   0.0000       3.274984        89.1168 
 190   0.0000       3.283349        89.3445 
 191   0.0000       3.315872        90.2295 
 192   0.0000       3.330413        90.6251 
 193   0.0000       3.332764        90.6891 
 194   0.0000       3.361938        91.4830 
 195   0.0000       3.405413        92.6660 
 196   0.0000       3.409467        92.7763 
 197   0.0000       3.425389        93.2096 
 198   0.0000       3.426533        93.2407 
 199   0.0000       3.436658        93.5162 
 200   0.0000       3.444725        93.7357 
 201   0.0000       3.453235        93.9673 
 202   0.0000       3.461976        94.2052 
 203   0.0000       3.470862        94.4470 
 204   0.0000       3.481365        94.7328 
 205   0.0000       3.481791        94.7443 
 206   0.0000       3.490016        94.9682 
 207   0.0000       3.499542        95.2274 
 208   0.0000       3.504570        95.3642 
 209   0.0000       3.537069        96.2485 
 210   0.0000       3.558695        96.8370 
 211   0.0000       3.565212        97.0143 
 212   0.0000       3.573700        97.2453 
 213   0.0000       3.584037        97.5266 
 214   0.0000       3.595971        97.8514 
 215   0.0000       3.633851        98.8821 
 216   0.0000       3.640931        99.0748 
 217   0.0000       3.656304        99.4931 
 218   0.0000       3.680652       100.1556 
 219   0.0000       3.693365       100.5016 
 220   0.0000       3.693498       100.5052 
 221   0.0000       3.737842       101.7119 
 222   0.0000       3.739102       101.7461 
 223   0.0000       3.767110       102.5083 
 224   0.0000       3.811802       103.7244 
 225   0.0000       3.819668       103.9385 
 226   0.0000       3.825972       104.1100 
 227   0.0000       3.860582       105.0518 
 228   0.0000       3.865725       105.1917 
 229   0.0000       3.880133       105.5838 
 230   0.0000       3.886816       105.7656 
 231   0.0000       3.890060       105.8539 
 232   0.0000       3.939357       107.1953 
 233   0.0000       3.965186       107.8982 
 234   0.0000       3.970430       108.0409 
 235   0.0000       3.994704       108.7014 
 236   0.0000       4.012619       109.1889 
 237   0.0000       4.020230       109.3960 
 238   0.0000       4.031869       109.7127 
 239   0.0000       4.037875       109.8762 
 240   0.0000       4.063868       110.5835 
 241   0.0000       4.066295       110.6495 
 242   0.0000       4.084281       111.1389 
 243   0.0000       4.087416       111.2242 
 244   0.0000       4.093714       111.3956 
 245   0.0000       4.142633       112.7268 
 246   0.0000       4.154553       113.0511 
 247   0.0000       4.160269       113.2067 
 248   0.0000       4.177056       113.6635 
 249   0.0000       4.183989       113.8521 
 250   0.0000       4.195184       114.1567 
 251   0.0000       4.211987       114.6140 
 252   0.0000       4.232986       115.1854 
 253   0.0000       4.250764       115.6692 
 254   0.0000       4.276263       116.3630 
 255   0.0000       4.311582       117.3241 
 256   0.0000       4.314212       117.3957 
 257   0.0000       4.327116       117.7468 
 258   0.0000       4.330982       117.8520 
 259   0.0000       4.344981       118.2330 
 260   0.0000       4.345728       118.2533 
 261   0.0000       4.358915       118.6121 
 262   0.0000       4.377099       119.1069 
 263   0.0000       4.388843       119.4265 
 264   0.0000       4.390203       119.4635 
 265   0.0000       4.421593       120.3176 
 266   0.0000       4.442484       120.8861 
 267   0.0000       4.451289       121.1257 
 268   0.0000       4.471221       121.6681 
 269   0.0000       4.497230       122.3759 
 270   0.0000       4.508625       122.6859 
 271   0.0000       4.518148       122.9451 
 272   0.0000       4.527548       123.2008 
 273   0.0000       4.527787       123.2074 
 274   0.0000       4.554094       123.9232 
 275   0.0000       4.564043       124.1939 
 276   0.0000       4.569807       124.3508 
 277   0.0000       4.586945       124.8171 
 278   0.0000       4.615603       125.5969 
 279   0.0000       4.617855       125.6582 
 280   0.0000       4.641628       126.3051 
 281   0.0000       4.655275       126.6765 
 282   0.0000       4.664277       126.9214 
 283   0.0000       4.702108       127.9509 
 284   0.0000       4.729270       128.6900 
 285   0.0000       4.744119       129.0940 
 286   0.0000       4.773928       129.9052 
 287   0.0000       4.797668       130.5512 
 288   0.0000       4.827032       131.3502 
 289   0.0000       4.856229       132.1447 
 290   0.0000       4.858837       132.2157 
 291   0.0000       4.949530       134.6835 
 292   0.0000       4.969057       135.2149 
 293   0.0000       4.984624       135.6385 
 294   0.0000       4.998515       136.0165 
 295   0.0000       5.018949       136.5726 
 296   0.0000       5.053266       137.5063 
 297   0.0000       5.087184       138.4293 
 298   0.0000       5.126163       139.4900 
 299   0.0000       5.136200       139.7631 
 300   0.0000       5.165210       140.5525 
 301   0.0000       5.167322       140.6100 
 302   0.0000       5.173705       140.7837 
 303   0.0000       5.226091       142.2092 
 304   0.0000       5.284835       143.8077 
 305   0.0000       5.293058       144.0314 
 306   0.0000       5.313199       144.5795 
 307   0.0000       5.313361       144.5839 
 308   0.0000       5.334675       145.1639 
 309   0.0000       5.352821       145.6577 
 310   0.0000       5.368534       146.0852 
 311   0.0000       5.394791       146.7997 
 312   0.0000       5.402896       147.0203 
 313   0.0000       5.412282       147.2757 
 314   0.0000       5.419637       147.4758 
 315   0.0000       5.424092       147.5970 
 316   0.0000       5.496770       149.5747 
 317   0.0000       5.524830       150.3383 
 318   0.0000       5.582743       151.9141 
 319   0.0000       5.586723       152.0225 
 320   0.0000       5.615058       152.7935 
 321   0.0000       5.634525       153.3232 
 322   0.0000       5.649704       153.7363 
 323   0.0000       5.709125       155.3532 
 324   0.0000       5.725189       155.7903 
 325   0.0000       5.766721       156.9205 
 326   0.0000       5.776825       157.1954 
 327   0.0000       5.815093       158.2367 
 328   0.0000       5.817114       158.2917 
 329   0.0000       5.830148       158.6464 
 330   0.0000       5.832845       158.7198 
 331   0.0000       5.876573       159.9097 
 332   0.0000       5.880657       160.0208 
 333   0.0000       5.897570       160.4810 
 334   0.0000       5.964918       162.3137 
 335   0.0000       5.979097       162.6995 
 336   0.0000       6.094986       165.8530 
 337   0.0000       6.114657       166.3883 
 338   0.0000       6.152273       167.4119 
 339   0.0000       6.366299       173.2358 
 340   0.0000       6.369710       173.3286 
 341   0.0000       6.389991       173.8805 
 342   0.0000       6.458670       175.7494 
 343   0.0000       6.477238       176.2546 
 344   0.0000       6.638861       180.6526 
 345   0.0000       7.454417       202.8450 
 346   0.0000       7.458929       202.9678 
 347   0.0000       7.556122       205.6125 
 348   0.0000       7.589937       206.5327 
 349   0.0000       7.791161       212.0083 
 350   0.0000       7.794720       212.1051 
 351   0.0000       7.891944       214.7507 
 352   0.0000       9.059878       246.5318 
 353   0.0000       9.075667       246.9614 
 354   0.0000       9.512660       258.8526 
 355   0.0000       9.531113       259.3548 
 356   0.0000       9.654641       262.7161 
 357   0.0000      11.917827       324.3006 
 358   0.0000      12.485042       339.7353 
 359   0.0000      12.848896       349.6362 
 360   0.0000      13.154338       357.9477 
 361   0.0000      13.513402       367.7184 
 362   0.0000      13.562626       369.0578 
 363   0.0000      13.616399       370.5211 

                    ********************************
                    * MULLIKEN POPULATION ANALYSIS *
                    ********************************

-----------------------
MULLIKEN ATOMIC CHARGES
-----------------------
   0 C :   -0.211259
   1 C :    0.251372
   2 C :   -0.211260
   3 C :   -0.212962
   4 C :   -0.192040
   5 C :   -0.212957
   6 F :   -0.331052
   7 H :    0.116912
   8 H :    0.095095
   9 H :    0.114499
  10 H :    0.091400
  11 H :    0.112054
  12 H :    0.079985
  13 H :    0.114500
  14 H :    0.091849
  15 H :    0.095094
  16 H :    0.116912
  17 H :    0.091857
Sum of atomic charges:    0.0000000

--------------------------------
MULLIKEN REDUCED ORBITAL CHARGES
--------------------------------
  0 C s       :     3.213672  s :     3.213672
      pz      :     1.009869  p :     2.885330
      px      :     0.913970
      py      :     0.961491
      dz2     :     0.031295  d :     0.105648
      dxz     :     0.016001
      dyz     :     0.012972
      dx2y2   :     0.019832
      dxy     :     0.025547
      f0      :     0.001455  f :     0.006609
      f+1     :     0.000672
      f-1     :     0.000521
      f+2     :     0.000644
      f-2     :     0.000599
      f+3     :     0.001637
      f-3     :     0.001081
  1 C s       :     3.108950  s :     3.108950
      pz      :     0.936322  p :     2.428136
      px      :     0.579035
      py      :     0.912779
      dz2     :     0.049084  d :     0.194520
      dxz     :     0.031516
      dyz     :     0.021623
      dx2y2   :     0.045502
      dxy     :     0.046795
      f0      :     0.002152  f :     0.017022
      f+1     :     0.002581
      f-1     :     0.001021
      f+2     :     0.002670
      f-2     :     0.001637
      f+3     :     0.002960
      f-3     :     0.004001
  2 C s       :     3.213671  s :     3.213671
      pz      :     1.009870  p :     2.885331
      px      :     0.913972
      py      :     0.961489
      dz2     :     0.031295  d :     0.105649
      dxz     :     0.016001
      dyz     :     0.012972
      dx2y2   :     0.019832
      dxy     :     0.025548
      f0      :     0.001455  f :     0.006609
      f+1     :     0.000672
      f-1     :     0.000521
      f+2     :     0.000644
      f-2     :     0.000599
      f+3     :     0.001637
      f-3     :     0.001081
  3 C s       :     3.222306  s :     3.222306
      pz      :     0.996800  p :     2.869849
      px      :     0.905594
      py      :     0.967456
      dz2     :     0.033662  d :     0.114184
      dxz     :     0.015245
      dyz     :     0.013329
      dx2y2   :     0.025146
      dxy     :     0.026803
      f0      :     0.001425  f :     0.006623
      f+1     :     0.000688
      f-1     :     0.000479
      f+2     :     0.000744
      f-2     :     0.000524
      f+3     :     0.001527
      f-3     :     0.001236
  4 C s       :     3.213904  s :     3.213904
      pz      :     0.989718  p :     2.856613
      px      :     0.987809
      py      :     0.879086
      dz2     :     0.035811  d :     0.114838
      dxz     :     0.009456
      dyz     :     0.016978
      dx2y2   :     0.030954
      dxy     :     0.021639
      f0      :     0.001450  f :     0.006685
      f+1     :     0.000336
      f-1     :     0.000806
      f+2     :     0.000513
      f-2     :     0.000820
      f+3     :     0.001545
      f-3     :     0.001215
  5 C s       :     3.222304  s :     3.222304
      pz      :     0.996793  p :     2.869845
      px      :     0.905597
      py      :     0.967454
      dz2     :     0.033663  d :     0.114185
      dxz     :     0.015244
      dyz     :     0.013328
      dx2y2   :     0.025146
      dxy     :     0.026804
      f0      :     0.001425  f :     0.006623
      f+1     :     0.000688
      f-1     :     0.000479
      f+2     :     0.000744
      f-2     :     0.000524
      f+3     :     0.001527
      f-3     :     0.001236
  6 F s       :     3.909788  s :     3.909788
      pz      :     1.901351  p :     5.408834
      px      :     1.565923
      py      :     1.941560
      dz2     :     0.001646  d :     0.011897
      dxz     :     0.003130
      dyz     :     0.000214
      dx2y2   :     0.004714
      dxy     :     0.002193
      f0      :     0.000057  f :     0.000532
      f+1     :     0.000089
      f-1     :     0.000003
      f+2     :     0.000119
      f-2     :     0.000019
      f+3     :     0.000161
      f-3     :     0.000084
  7 H s       :     0.851097  s :     0.851097
      pz      :     0.007038  p :     0.029515
      px      :     0.010899
      py      :     0.011578
      dz2     :     0.000412  d :     0.002476
      dxz     :     0.000182
      dyz     :     0.000393
      dx2y2   :     0.000877
      dxy     :     0.000613
  8 H s       :     0.873278  s :     0.873278
      pz      :     0.011798  p :     0.029153
      px      :     0.009646
      py      :     0.007709
      dz2     :     0.000688  d :     0.002474
      dxz     :     0.000918
      dyz     :     0.000780
      dx2y2   :     0.000067
      dxy     :     0.000021
  9 H s       :     0.854805  s :     0.854805
      pz      :     0.006805  p :     0.028264
      px      :     0.009724
      py      :     0.011735
      dz2     :     0.000421  d :     0.002432
      dxz     :     0.000168
      dyz     :     0.000392
      dx2y2   :     0.000834
      dxy     :     0.000618
 10 H s       :     0.878355  s :     0.878355
      pz      :     0.011474  p :     0.027820
      px      :     0.007473
      py      :     0.008873
      dz2     :     0.000680  d :     0.002425
      dxz     :     0.000710
      dyz     :     0.000987
      dx2y2   :     0.000022
      dxy     :     0.000026
 11 H s       :     0.857094  s :     0.857094
      pz      :     0.006877  p :     0.028422
      px      :     0.012497
      py      :     0.009048
      dz2     :     0.000375  d :     0.002430
      dxz     :     0.000513
      dyz     :     0.000045
      dx2y2   :     0.000507
      dxy     :     0.000990
 12 H s       :     0.887462  s :     0.887462
      pz      :     0.014662  p :     0.030154
      px      :     0.004787
      py      :     0.010705
      dz2     :     0.000830  d :     0.002399
      dxz     :     0.000476
      dyz     :     0.001083
      dx2y2   :    -0.000019
      dxy     :     0.000030
 13 H s       :     0.854804  s :     0.854804
      pz      :     0.006805  p :     0.028264
      px      :     0.009724
      py      :     0.011735
      dz2     :     0.000421  d :     0.002432
      dxz     :     0.000168
      dyz     :     0.000392
      dx2y2   :     0.000834
      dxy     :     0.000618
 14 H s       :     0.877780  s :     0.877780
      pz      :     0.011163  p :     0.027951
      px      :     0.008734
      py      :     0.008055
      dz2     :     0.000659  d :     0.002420
      dxz     :     0.000886
      dyz     :     0.000795
      dx2y2   :     0.000057
      dxy     :     0.000022
 15 H s       :     0.873279  s :     0.873279
      pz      :     0.011798  p :     0.029153
      px      :     0.009646
      py      :     0.007708
      dz2     :     0.000688  d :     0.002474
      dxz     :     0.000918
      dyz     :     0.000780
      dx2y2   :     0.000067
      dxy     :     0.000021
 16 H s       :     0.851096  s :     0.851096
      pz      :     0.007038  p :     0.029515
      px      :     0.010899
      py      :     0.011578
      dz2     :     0.000412  d :     0.002476
      dxz     :     0.000182
      dyz     :     0.000393
      dx2y2   :     0.000877
      dxy     :     0.000613
 17 H s       :     0.877772  s :     0.877772
      pz      :     0.011163  p :     0.027952
      px      :     0.008734
      py      :     0.008055
      dz2     :     0.000659  d :     0.002420
      dxz     :     0.000886
      dyz     :     0.000795
      dx2y2   :     0.000057
      dxy     :     0.000022


                     *******************************
                     * LOEWDIN POPULATION ANALYSIS *
                     *******************************

----------------------
LOEWDIN ATOMIC CHARGES
----------------------
   0 C :    0.058694
   1 C :   -0.108809
   2 C :    0.058687
   3 C :    0.062240
   4 C :    0.057682
   5 C :    0.062232
   6 F :    0.075079
   7 H :   -0.021770
   8 H :   -0.020741
   9 H :   -0.024185
  10 H :   -0.025582
  11 H :   -0.025629
  12 H :   -0.029029
  13 H :   -0.024184
  14 H :   -0.026083
  15 H :   -0.020745
  16 H :   -0.021772
  17 H :   -0.026086

-------------------------------
LOEWDIN REDUCED ORBITAL CHARGES
-------------------------------
  0 C s       :     2.662288  s :     2.662288
      pz      :     0.966246  p :     2.828985
      px      :     0.923566
      py      :     0.939172
      dz2     :     0.111106  d :     0.410640
      dxz     :     0.059291
      dyz     :     0.048318
      dx2y2   :     0.088230
      dxy     :     0.103695
      f0      :     0.005872  f :     0.039394
      f+1     :     0.004745
      f-1     :     0.003424
      f+2     :     0.005461
      f-2     :     0.005909
      f+3     :     0.006776
      f-3     :     0.007206
  1 C s       :     2.693848  s :     2.693848
      pz      :     0.961386  p :     2.629266
      px      :     0.694040
      py      :     0.973840
      dz2     :     0.166618  d :     0.684773
      dxz     :     0.107724
      dyz     :     0.074009
      dx2y2   :     0.179425
      dxy     :     0.156997
      f0      :     0.009722  f :     0.100922
      f+1     :     0.014345
      f-1     :     0.006822
      f+2     :     0.018818
      f-2     :     0.010488
      f+3     :     0.017795
      f-3     :     0.022930
  2 C s       :     2.662286  s :     2.662286
      pz      :     0.966246  p :     2.828987
      px      :     0.923568
      py      :     0.939174
      dz2     :     0.111106  d :     0.410645
      dxz     :     0.059291
      dyz     :     0.048319
      dx2y2   :     0.088231
      dxy     :     0.103698
      f0      :     0.005872  f :     0.039394
      f+1     :     0.004745
      f-1     :     0.003425
      f+2     :     0.005461
      f-2     :     0.005909
      f+3     :     0.006776
      f-3     :     0.007206
  3 C s       :     2.659651  s :     2.659651
      pz      :     0.965423  p :     2.819009
      px      :     0.913105
      py      :     0.940481
      dz2     :     0.113417  d :     0.419574
      dxz     :     0.057365
      dyz     :     0.048617
      dx2y2   :     0.096696
      dxy     :     0.103479
      f0      :     0.005843  f :     0.039526
      f+1     :     0.004726
      f-1     :     0.003202
      f+2     :     0.006075
      f-2     :     0.005300
      f+3     :     0.006414
      f-3     :     0.007965
  4 C s       :     2.660170  s :     2.660170
      pz      :     0.962737  p :     2.820517
      px      :     0.947189
      py      :     0.910592
      dz2     :     0.119976  d :     0.421871
      dxz     :     0.034351
      dyz     :     0.065656
      dx2y2   :     0.118008
      dxy     :     0.083880
      f0      :     0.005766  f :     0.039759
      f+1     :     0.002457
      f-1     :     0.005839
      f+2     :     0.005171
      f-2     :     0.006343
      f+3     :     0.006474
      f-3     :     0.007710
  5 C s       :     2.659651  s :     2.659651
      pz      :     0.965419  p :     2.819011
      px      :     0.913107
      py      :     0.940485
      dz2     :     0.113422  d :     0.419580
      dxz     :     0.057363
      dyz     :     0.048616
      dx2y2   :     0.096697
      dxy     :     0.103482
      f0      :     0.005844  f :     0.039526
      f+1     :     0.004726
      f-1     :     0.003202
      f+2     :     0.006075
      f-2     :     0.005300
      f+3     :     0.006415
      f-3     :     0.007965
  6 F s       :     3.620442  s :     3.620442
      pz      :     1.843566  p :     5.280275
      px      :     1.568350
      py      :     1.868359
      dz2     :     0.003402  d :     0.023231
      dxz     :     0.006435
      dyz     :     0.000455
      dx2y2   :     0.007374
      dxy     :     0.005565
      f0      :     0.000077  f :     0.000973
      f+1     :     0.000221
      f-1     :     0.000009
      f+2     :     0.000189
      f-2     :     0.000042
      f+3     :     0.000195
      f-3     :     0.000239
  7 H s       :     0.841409  s :     0.841409
      pz      :     0.043094  p :     0.152185
      px      :     0.047057
      py      :     0.062034
      dz2     :     0.004846  d :     0.028176
      dxz     :     0.002492
      dyz     :     0.006012
      dx2y2   :     0.008041
      dxy     :     0.006786
  8 H s       :     0.841270  s :     0.841270
      pz      :     0.075332  p :     0.151117
      px      :     0.038375
      py      :     0.037410
      dz2     :     0.009497  d :     0.028354
      dxz     :     0.009090
      dyz     :     0.009402
      dx2y2   :     0.000321
      dxy     :     0.000045
  9 H s       :     0.842946  s :     0.842946
      pz      :     0.043795  p :     0.153174
      px      :     0.046323
      py      :     0.063057
      dz2     :     0.004984  d :     0.028064
      dxz     :     0.002339
      dyz     :     0.006160
      dx2y2   :     0.007757
      dxy     :     0.006823
 10 H s       :     0.845619  s :     0.845619
      pz      :     0.074881  p :     0.151907
      px      :     0.038088
      py      :     0.038937
      dz2     :     0.009426  d :     0.028057
      dxz     :     0.009290
      dyz     :     0.009148
      dx2y2   :     0.000088
      dxy     :     0.000105
 11 H s       :     0.844626  s :     0.844626
      pz      :     0.042026  p :     0.153011
      px      :     0.071157
      py      :     0.039828
      dz2     :     0.004340  d :     0.027993
      dxz     :     0.007929
      dyz     :     0.000515
      dx2y2   :     0.006569
      dxy     :     0.008639
 12 H s       :     0.858070  s :     0.858070
      pz      :     0.082389  p :     0.143739
      px      :     0.022111
      py      :     0.039238
      dz2     :     0.010888  d :     0.027220
      dxz     :     0.006164
      dyz     :     0.009903
      dx2y2   :     0.000100
      dxy     :     0.000167
 13 H s       :     0.842947  s :     0.842947
      pz      :     0.043794  p :     0.153173
      px      :     0.046323
      py      :     0.063056
      dz2     :     0.004984  d :     0.028064
      dxz     :     0.002339
      dyz     :     0.006160
      dx2y2   :     0.007757
      dxy     :     0.006823
 14 H s       :     0.845785  s :     0.845785
      pz      :     0.074438  p :     0.152314
      px      :     0.039075
      py      :     0.038801
      dz2     :     0.009323  d :     0.027984
      dxz     :     0.008898
      dyz     :     0.009393
      dx2y2   :     0.000298
      dxy     :     0.000072
 15 H s       :     0.841272  s :     0.841272
      pz      :     0.075332  p :     0.151118
      px      :     0.038375
      py      :     0.037410
      dz2     :     0.009497  d :     0.028355
      dxz     :     0.009090
      dyz     :     0.009402
      dx2y2   :     0.000321
      dxy     :     0.000045
 16 H s       :     0.841410  s :     0.841410
      pz      :     0.043093  p :     0.152186
      px      :     0.047057
      py      :     0.062035
      dz2     :     0.004846  d :     0.028176
      dxz     :     0.002492
      dyz     :     0.006012
      dx2y2   :     0.008041
      dxy     :     0.006786
 17 H s       :     0.845786  s :     0.845786
      pz      :     0.074438  p :     0.152316
      px      :     0.039075
      py      :     0.038802
      dz2     :     0.009323  d :     0.027984
      dxz     :     0.008898
      dyz     :     0.009393
      dx2y2   :     0.000298
      dxy     :     0.000072


                      *****************************
                      * MAYER POPULATION ANALYSIS *
                      *****************************

  NA   - Mulliken gross atomic population
  ZA   - Total nuclear charge
  QA   - Mulliken gross atomic charge
  VA   - Mayer's total valence
  BVA  - Mayer's bonded valence
  FA   - Mayer's free valence

  ATOM       NA         ZA         QA         VA         BVA        FA
  0 C      6.2113     6.0000    -0.2113     3.8635     3.8635     0.0000
  1 C      5.7486     6.0000     0.2514     3.8742     3.8742    -0.0000
  2 C      6.2113     6.0000    -0.2113     3.8635     3.8635     0.0000
  3 C      6.2130     6.0000    -0.2130     3.8568     3.8568     0.0000
  4 C      6.1920     6.0000    -0.1920     3.8513     3.8513    -0.0000
  5 C      6.2130     6.0000    -0.2130     3.8568     3.8568     0.0000
  6 F      9.3311     9.0000    -0.3311     0.9507     0.9507     0.0000
  7 H      0.8831     1.0000     0.1169     0.9845     0.9845     0.0000
  8 H      0.9049     1.0000     0.0951     0.9935     0.9935     0.0000
  9 H      0.8855     1.0000     0.1145     0.9775     0.9775     0.0000
 10 H      0.9086     1.0000     0.0914     0.9843     0.9843    -0.0000
 11 H      0.8879     1.0000     0.1121     0.9786     0.9786    -0.0000
 12 H      0.9200     1.0000     0.0800     0.9888     0.9888    -0.0000
 13 H      0.8855     1.0000     0.1145     0.9775     0.9775     0.0000
 14 H      0.9082     1.0000     0.0918     0.9844     0.9844     0.0000
 15 H      0.9049     1.0000     0.0951     0.9935     0.9935    -0.0000
 16 H      0.8831     1.0000     0.1169     0.9845     0.9845     0.0000
 17 H      0.9081     1.0000     0.0919     0.9844     0.9844     0.0000

  Mayer bond orders larger than 0.1
B(  0-C ,  1-C ) :   0.9680 B(  0-C ,  5-C ) :   0.9323 B(  0-C , 15-H ) :   0.9793 
B(  0-C , 16-H ) :   0.9906 B(  1-C ,  2-C ) :   0.9680 B(  1-C ,  6-F ) :   0.9298 
B(  1-C , 12-H ) :   0.9852 B(  2-C ,  3-C ) :   0.9323 B(  2-C ,  7-H ) :   0.9906 
B(  2-C ,  8-H ) :   0.9793 B(  3-C ,  4-C ) :   0.9444 B(  3-C ,  9-H ) :   0.9903 
B(  3-C , 17-H ) :   0.9833 B(  4-C ,  5-C ) :   0.9444 B(  4-C , 10-H ) :   0.9838 
B(  4-C , 11-H ) :   0.9933 B(  5-C , 13-H ) :   0.9903 B(  5-C , 14-H ) :   0.9833 


-------
TIMINGS
-------

Total SCF time: 0 days 0 hours 0 min 17 sec 

Total time                  ....      17.375 sec
Sum of individual times     ....      17.086 sec  ( 98.3%)

Fock matrix formation       ....      16.334 sec  ( 94.0%)
Diagonalization             ....       0.117 sec  (  0.7%)
Density matrix formation    ....       0.015 sec  (  0.1%)
Population analysis         ....       0.045 sec  (  0.3%)
Initial guess               ....       0.286 sec  (  1.6%)
Orbital Transformation      ....       0.000 sec  (  0.0%)
Orbital Orthonormalization  ....       0.000 sec  (  0.0%)
DIIS solution               ....       0.000 sec  (  0.0%)
SOSCF solution              ....       0.119 sec  (  0.7%)


           ************************************************************
           *        Program running with 8 parallel MPI-processes     *
           *              working on a common directory               *
           ************************************************************


------------------------------------------------------------------------------- 
                              ORCA-MATRIX DRIVEN CI                            
------------------------------------------------------------------------------- 


Wavefunction type
-----------------
Correlation treatment                      ...      CCSD     
Single excitations                         ... ON
Orbital optimization                       ... OFF
Calculation of Z vector                    ... OFF
Calculation of Brueckner orbitals          ... OFF
Perturbative triple excitations            ... ON
Calculation of F12 correction              ... OFF
Frozen core treatment                      ... chemical core (14 el)
Reference Wavefunction                     ... RHF
  Internal Orbitals:     7 ...   27 ( 21 MO's/ 42 electrons)
  Virtual  Orbitals:    28 ...  363 (336 MO's              )
Number of AO's                             ...    364
Number of electrons                        ...     56
Number of correlated electrons             ...     42

Algorithmic settings
--------------------
Integral transformation                    ... All integrals via the RI transformation
K(C) Formation                             ... RI-DLPNO
   PNO-Integral Storage                    ... ON DISK
   PNO occupation number cut-off           ... 1.000e-07
   Singles PNO occupation number cut-off   ... 3.000e-09
   PNO Mulliken prescreening cut-off       ... 1.000e-03
   Domain cut-off (Mulliken population)    ... 1.000e-03
   PNO Normalization                       ...    1
Maximum number of iterations               ...        50
Convergence tolerance (max. residuum)      ... 1.000e-05
Level shift for amplitude update           ... 2.000e-01
Maximum number of DIIS vectors             ...         7
DIIS turned on at iteration                ...         0
Damping before turning on DIIS             ...     0.500
Damping after turning on DIIS              ...     0.000
Pair specific amplitude update             ... OFF
Natural orbital iterations                 ... OFF
Perturbative natural orbital generation    ... OFF
Printlevel                                 ... 2

Singles Fock matrix elements calculated using PNOs.

Memory handling:
----------------
Maximum memory for working arrays          ...   8000 MB
Data storage in matrix containers          ... UNCOMPRESSED
Data type for integral storage             ... DOUBLE
In-Core Storage of quantities:
   Amplitudes+Sigma Vector      ... NO
   J+K operators                ... NO
   DIIS vectors                 ... NO
   3-external integrals         ... NO
   4-external integrals         ... NO

Localization treatment:
-----------------------
Localization option                        ...    6
Localization threshhold                    ... -1.0e+00
Using relative localization threshhold     ... 1.0e-08
Neglect threshold for strong pairs         ... 1.000e-05 Eh
Prescreening threshold for very weak pairs ... 1.000e-07 Eh

Initializing the integral package          ... done
Localizing the valence orbitals
------------------------------------------------------------------------------
                           ORCA ORBITAL LOCALIZATION
------------------------------------------------------------------------------

Input orbitals are from                  ... fluorocyclohexane_eq.proc0.gbw
Output orbitals are to                   ... fluorocyclohexane_eq.proc0.loc
Max. number of iterations                ... 128
Localizations seeded randomly            ... off
Convergence tolerance                    ... 1.000e-06
Using relative localization threshhold   ... 1.000e-08
Treshold for strong local MOs            ... 9.500e-01
Treshold for bond MOs                    ... 8.500e-01
Operator                                 ... 0
Orbital range for localization           ... 7 to 27
Localization criterion                   ... FOSTER-BOYS (AUGMENTED HESSIAN)
Doing the dipole integrals     ... o.k.
Initial value of the localization sum :   212.674340
ITERATION   0 : L=  272.6239721685 DL=  5.99e+01 (AVERGE_DL)=    0.5342980812 
ITERATION   1 : L=  280.5959431139 DL=  7.97e+00 (AVERGE_DL)=    0.1948377951 
ITERATION   2 : L=  280.7994420515 DL=  2.03e-01 (AVERGE_DL)=    0.0311294484 
ITERATION   3 : L=  280.8003011560 DL=  8.59e-04 (AVERGE_DL)=    0.0020226156 
ITERATION   4 : L=  280.8004996282 DL=  1.98e-04 (AVERGE_DL)=    0.0009721654 
ITERATION   5 : L=  280.8006217610 DL=  1.22e-04 (AVERGE_DL)=    0.0007626173 
ITERATION   6 : L=  280.8007232966 DL=  1.02e-04 (AVERGE_DL)=    0.0006953435 
ITERATION   7 : L=  280.8008188189 DL=  9.55e-05 (AVERGE_DL)=    0.0006744391 
ITERATION   8 : L=  280.8009124863 DL=  9.37e-05 (AVERGE_DL)=    0.0006678589 
ITERATION   9 : L=  280.8010053466 DL=  9.29e-05 (AVERGE_DL)=    0.0006649750 
ITERATION  10 : L=  280.8010975425 DL=  9.22e-05 (AVERGE_DL)=    0.0006625921 
ITERATION  11 : L=  280.8011889659 DL=  9.14e-05 (AVERGE_DL)=    0.0006598102 
ITERATION  12 : L=  280.8012794518 DL=  9.05e-05 (AVERGE_DL)=    0.0006564185 
ITERATION  13 : L=  280.8013688244 DL=  8.94e-05 (AVERGE_DL)=    0.0006523679 
ITERATION  14 : L=  280.8014569191 DL=  8.81e-05 (AVERGE_DL)=    0.0006476871 
ITERATION  15 : L=  280.8015435745 DL=  8.67e-05 (AVERGE_DL)=    0.0006423743 
DETECTED SLOW CONVERGENCE - QUITTING

------------------------------------------------------
AUGMENTED HESSIAN OPTIMIZATION OF FOSTER-BOYS ORBITALS
------------------------------------------------------

Spin operator:           0
Orbital window:          7 to 27
Number of iterations:    128
Gradient tolerance:      1.000e-06
Number of pairs:         210
Davidson threshold:      2000
Diagonalization method:  LAPACK
Iter:    0   L: 280.8015435745   Grad. norm: 1.064512e-02
Iter:    1   L: 280.8029420099   Grad. norm: 1.033422e-02
Iter:    2   L: 280.8035763957   Grad. norm: 9.029325e-03
   *** Likely close to a maximum now. ***
       Augmented Hessian eigenvalues:  2.33e-05 -2.56e-02 -1.51e+00 -1.53e+00 ... 
Iter:    3   L: 280.8035880492   Grad. norm: 1.671808e-04
Iter:    4   L: 280.8035880495   Grad. norm: 5.146575e-10
LOCALIZATION HAS CONVERGED.

Eigenvalues of the Hessian:
  0 -2.558e-02
  1 -1.516e+00
  2 -1.526e+00
  3 -3.647e+00
  4 -3.663e+00
  5 -5.782e+00
  6 -1.774e+01
  7 -1.781e+01
  8 -1.784e+01
  9 -1.785e+01
    ...


------------------------------------------------------------------------------- 
                    LOCALIZED MOLECULAR ORBITAL COMPOSITIONS                   
------------------------------------------------------------------------------- 

The Mulliken populations for each LMO on each atom are computed
The LMO`s will be ordered according to atom index and type
  (A) Strongly localized MO`s have populations of >=0.950 on one atom
  (B) Two center bond orbitals have populations of >=0.850 on two atoms
  (C) Other MO`s are considered to be `delocalized`

FOUND  -   3 strongly local MO`s
       -  18 two center bond MO`s
       -   0 significantly delocalized MO`s

Rather strongly localized orbitals:
MO   9:   6F  -   0.983104
MO   8:   6F  -   0.983103
MO   7:   6F  -   0.985471
Bond-like localized orbitals:
MO  27:  17H  -   0.472171  and   3C  -   0.554997
MO  26:  16H  -   0.455469  and   0C  -   0.575645
MO  25:  15H  -   0.466222  and   0C  -   0.556149
MO  24:  14H  -   0.472175  and   5C  -   0.554993
MO  23:  13H  -   0.460395  and   5C  -   0.571040
MO  22:  12H  -   0.476154  and   1C  -   0.557164
MO  21:  11H  -   0.461284  and   4C  -   0.572030
MO  20:  10H  -   0.472340  and   4C  -   0.554849
MO  19:   9H  -   0.460396  and   3C  -   0.571040
MO  18:   8H  -   0.466222  and   2C  -   0.556149
MO  17:   7H  -   0.455470  and   2C  -   0.575644
MO  16:   6F  -   0.740823  and   1C  -   0.262487
MO  15:   5C  -   0.516595  and   4C  -   0.514593
MO  14:   5C  -   0.522499  and   0C  -   0.502209
MO  13:   4C  -   0.514592  and   3C  -   0.516596
MO  12:   3C  -   0.522495  and   2C  -   0.502212
MO  11:   2C  -   0.522613  and   1C  -   0.518086
MO  10:   1C  -   0.518085  and   0C  -   0.522615
Localized MO's were stored in: fluorocyclohexane_eq.proc0.loc

Localizing the core orbitals
------------------------------------------------------------------------------
                           ORCA ORBITAL LOCALIZATION
------------------------------------------------------------------------------

Input orbitals are from                  ... fluorocyclohexane_eq.proc0.loc
Output orbitals are to                   ... fluorocyclohexane_eq.proc0.loc
Max. number of iterations                ... 128
Localizations seeded randomly            ... off
Convergence tolerance                    ... 1.000e-06
Using relative localization threshhold   ... 1.000e-08
Treshold for strong local MOs            ... 9.500e-01
Treshold for bond MOs                    ... 8.500e-01
Operator                                 ... 0
Orbital range for localization           ... 0 to 6
Localization criterion                   ... FOSTER-BOYS (AUGMENTED HESSIAN)
Doing the dipole integrals     ... o.k.
Initial value of the localization sum :    70.725563
ITERATION   0 : L=   70.7255664110 DL=  2.98e-06 (AVERGE_DL)=    0.0003769226 
ITERATION   1 : L=   70.7255664110 DL=  0.00e+00 (AVERGE_DL)=    0.0000000000 
LOCALIZATION SUM CONVERGED

------------------------------------------------------
AUGMENTED HESSIAN OPTIMIZATION OF FOSTER-BOYS ORBITALS
------------------------------------------------------

Spin operator:           0
Orbital window:          0 to 6
Number of iterations:    128
Gradient tolerance:      1.000e-06
Number of pairs:         21
Davidson threshold:      2000
Diagonalization method:  LAPACK
Iter:    0   L: 70.7255664110   Grad. norm: 4.202040e-06
   *** Likely close to a maximum now. ***
       Augmented Hessian eigenvalues:  2.05e-13 -2.87e+01 -3.31e+01 -3.31e+01 ... 
Iter:    1   L: 70.7255664110   Grad. norm: 2.542413e-19
LOCALIZATION HAS CONVERGED.

Eigenvalues of the Hessian:
  0 -2.872e+01
  1 -3.314e+01
  2 -3.314e+01
  3 -3.377e+01
  4 -3.377e+01
  5 -3.389e+01
  6 -3.389e+01
  7 -8.194e+01
  8 -8.194e+01
  9 -9.065e+01
    ...


------------------------------------------------------------------------------- 
                    LOCALIZED MOLECULAR ORBITAL COMPOSITIONS                   
------------------------------------------------------------------------------- 

The Mulliken populations for each LMO on each atom are computed
The LMO`s will be ordered according to atom index and type
  (A) Strongly localized MO`s have populations of >=0.950 on one atom
  (B) Two center bond orbitals have populations of >=0.850 on two atoms
  (C) Other MO`s are considered to be `delocalized`

FOUND  -   7 strongly local MO`s
       -   0 two center bond MO`s
       -   0 significantly delocalized MO`s

Rather strongly localized orbitals:
MO   6:   6F  -   1.000041
MO   5:   5C  -   1.001446
MO   4:   4C  -   1.001476
MO   3:   3C  -   1.001446
MO   2:   2C  -   1.001491
MO   1:   1C  -   1.001252
MO   0:   0C  -   1.001491
Localized MO's were stored in: fluorocyclohexane_eq.proc0.loc

Warning: internal orbitals are localized - no re-canonicalization of internal orbitals

--------------------------
CLOSED-SHELL FOCK OPERATOR
--------------------------

RI-JK section for the Fock operator:
  RHF full Fock operator         ... done
  RHF frozen core Fock operator  ... done
Time needed for Fock operator              ...            3.715 sec
Reference energy                           ...   -333.180507813

--------------
DLPNO SETTINGS (2015 fully linear scaling implementation)
--------------

TCutMKN:           1.000e-03
TCutPAO:           1.000e-03
TCutPNO:           1.000e-07
TCutPNOSingles:    3.000e-09
TCutEN:            9.700e-01
TCutPAOExt:        1.000e-01
TCutPairs:         1.000e-05
TCutPre:           1.000e-07
TCutOSV:           1.000e-06
TCutDOij:          1.000e-05
TCutDO:            5.000e-03
TCutC:             1.000e-04
TCutCPAO:          1.000e-03
TCutCMO:           1.000e-03
TScaleDOMP2PreScr: 2.000e+00
TScaleMKNMP2PreScr:1.000e+01
TScalePNOMP2PreScr:1.000e+00
PAO overlap thresh 1.000e-08
Using PNOs for Singles Fock computation
Use new domains
Use fully linear algorithm
TCutTNO:           1.000e-09
TCutMP2Pairs:      1.000e-06
TCutDOStrong:      2.000e-03
TCutMKNStrong:     1.000e-02
TCutMKNWeak:       1.000e-01
TCutDOWeak:        4.000e-03
NTCutTNO:          1

--------------------------
Calculating differential overlap integrals ... ok
--------------------------
ELECTRON PAIR PRESCREENING
--------------------------

Dipole-based pair screening          .... used

   TCutDOij = 1.000000e-05
   TCutPre  = 1.000000e-07
   .... Finished loop over pairs
Total time spent in the prescreening                  ...     0.000 sec
sum of pair energies estimated for screened out pairs ...       0.000000000000 Eh
Thresholds for map construction and integral transformation for crude MP2:
   TCutMKN                    ...     1.0e-02
   TCutDO                     ...     1.0e-02
   TCutPairs                  ...     1.0e-05
   TCutPNO_CrudeMP2           ...     1.0e-07
   TCutPNOSingles_CrudeMP2    ...     3.0e-09
--------------------------------
LOCAL RI TRANSFORMATION (IAVPAO)
--------------------------------

Orbital window:       7 to 27
Number of PAOs:     364
Basis functions:    364 (136 shells)
Aux. functions:     897 (271 shells)

Processing maps (0.0 sec)
Average map sizes:
   Aux shells -> MOs              21.0
   Aux shells -> PAOs            364.0
   MOs        -> AO shells       133.2
   PAOs       -> AO shells       136.0

Calculating integrals (0.8 sec, 52.322 MB)
Sorting integrals (0.1 sec, 52.312 MB)
Total time for the integral transformation: 0.9 sec
--------------------------------
INITIAL GUESS AND PNO GENERATION
--------------------------------

PNO truncation parameters                   .... 
    PAOOverlapThresh   =        1.000e-08

    TCutPairs          =        1.000e-05
    TCutPNO            =        1.000e-07
    TCutPNOSingles     =        3.000e-09
    TCutMP2Pairs       =        1.000e-06
    TCutMKN            =        1.000e-02
    TCutDO             =        1.000e-02

Pair selection                          .... not used
Type of local MP2 treatment                 .... semi-local MP2
Strategy for PNO selection                  .... occupation number selection
Pair density normalization                  .... MP2 norm
Spin component scaling                      .... not used

   .... Finished loop over pairs
Making pair pair interaction lists          ... done

                       ===========================
                        227 OF  231 PAIRS ARE KEPT CCSD PAIRS
                          4 OF  231 PAIRS ARE KEPT MP2 PAIRS FOR (T)
                          0 OF  231 PAIRS ARE SKIPPED
                       ===========================

Total time spent in the initial guess                 ...     2.688 sec
SL-MP2 correlation energy (all non-screened pairs)    ...      -1.243793403299 Eh

Initial PNO correlation energy                        ...      -1.242399455405 Eh
sum of pair energies prescreened and skipped MP2 pairs...       0.000000000000 Eh
sum of pair energies of crude MP2 skipped pairs only  ...       0.000000000000 Eh
sum of MP2 pair energies for pairs that were not kept ...      -0.000034956000 Eh
[...]
   TCutMKN   ...     1.0e-01
   TCutDO    ...     2.0e-02
   TCutCMO   ...     1.0e-03
   TCutCPAO  ...     1.0e-03

--------------------------------
LOCAL RI TRANSFORMATION (IAVPAO)
--------------------------------

Orbital window:       7 to 27
Number of PAOs:     364
Basis functions:    364 (136 shells)
Aux. functions:     897 (271 shells)

Processing maps (0.0 sec)
Average map sizes:
   Aux shells -> MOs              21.0
   Aux shells -> PAOs            364.0
   MOs        -> AO shells       133.2
   PAOs       -> AO shells       136.0

Calculating integrals (1.1 sec, 52.322 MB)
Sorting integrals (0.1 sec, 52.312 MB)
Total time for the integral transformation: 1.2 sec
--------------------------------
INITIAL GUESS AND PNO GENERATION
--------------------------------

PNO truncation parameters                   .... 
    ScaleTCutPNO       =        1.000e-02
    PAOOverlapThresh   =        1.000e-08

    TCutPairs          =        1.000e-05
    TCutPNO            =        1.000e-07
    TCutPNOSingles     =        3.000e-09
    TCutMP2Pairs       =        1.000e-06
    TCutMKN            =        1.000e-03
    TCutDO             =        5.000e-03

Pair selection                          .... not used
Type of local MP2 treatment                 .... full local PMP2
Strategy for PNO selection                  .... occupation number selection
Pair density normalization                  .... MP2 norm
Spin component scaling                      .... not used

PASS-1: Formation of initial guess LMP2 amplitudes
Initial amplitudes guess done. Entering LMP2 iteration loop:
   Max. no of iterations          ...  50
   Energy convergence tolerance   ...    1.0e-07
   Residual convergence tolerance ...    5.0e-07
   Fock matrix cutoff             ...    1.0e-05 Eh
   DIIS convergence acceleration parameters:
        Max # vectors in DIIS     ... 7
        Start iteration of DIIS   ... 0
        Levelshift                ... 2.000e-01
        Damping factor 1          ... 5.000e-01
        Damping factor 2          ... 1.000e+00
   L-MP2 PNO cut-off              ...   1.0e-09
   L-MP2 PNO cut-off (core)       ...   1.0e-11
                           *** Turning on DIIS ***
LMP2-Iter=   0:  ELMP2= -1.267344905330  DE=   2.3e-02 RMAX=   8.4e-03
LMP2-Iter=   1:  ELMP2= -1.278775123763  DE=   1.1e-02 RMAX=   5.4e-03
LMP2-Iter=   2:  ELMP2= -1.280479161452  DE=   1.7e-03 RMAX=   1.1e-03
LMP2-Iter=   3:  ELMP2= -1.280689054433  DE=   2.1e-04 RMAX=   4.9e-04
LMP2-Iter=   4:  ELMP2= -1.280706252734  DE=   1.7e-05 RMAX=   5.3e-05
LMP2-Iter=   5:  ELMP2= -1.280704920929  DE=   1.3e-06 RMAX=   1.8e-05
LMP2-Iter=   6:  ELMP2= -1.280704567993  DE=   3.5e-07 RMAX=   1.3e-06
LMP2-Iter=   7:  ELMP2= -1.280704522371  DE=   4.6e-08 RMAX=   4.8e-07
LMP2-Iter=   8:  ELMP2= -1.280704527538  DE=   5.2e-09 RMAX=   3.4e-08 => CONVERGED
PASS-2: Formation of Pair natural orbitals
   .... Finished loop over pairs

 PNO Occupation Number Statistics: 
  | Av. % of trace(Dij) retained        ...  99.348518217380
  | sigma^2 in % of trace(Dij) retained ...   8.61e-01
  | Av. % of trace(Di) retained         ...  99.999721681819
  | sigma^2 in % of trace(Di) retained  ...   4.70e-09
 Distributions of % trace(Dij) recovered:
  |       >= 99.9  ...    63 ( 27.3 % of all pairs)
  |   [90.0, 99.0) ...    40 ( 17.3 % of all pairs)
  |   [99.0, 99.9) ...   128 ( 55.4 % of all pairs)
 Distributions of % trace(Di) recovered :
  |       >= 99.9  ...    21 (100.0 % of all I-pairs )

Making pair pair interaction lists          ... done

                       ===========================
                        227 OF  231 PAIRS ARE KEPT
                       ===========================

Total time spent in the initial guess                 ...    16.990 sec
L-MP2 correlation energy (all non-screened pairs)     ...      -1.280704527538 Eh
L-MP2 PNO error correction                            ...      -0.000030411802 Eh
                                                          --------------------
Initial total L-MP2 energy (non-screened pairs)       ...      -1.280734939339 Eh

Initial PNO correlation energy                        ...      -1.279436296807 Eh
sum of pair energies estimated for screened out pairs ...       0.000000000000 Eh
sum of MP2 pair energies for pairs that were not kept ...      -0.000041826457 Eh
sum of PNO error estimates for the kept pairs         ...      -0.001287837352 Eh
                                                          --------------------
sum of all corrections                                         -0.001329663810
Initial total correlation energy                               -1.280765960617
Thresholds for map construction and integral transformation for fine MP2 and CCSD(T) calculation:
   TCutMKN   ...     1.0e-03
   TCutDO    ...     5.0e-03
   TCutPairs ...     1.0e-05
   TCutCMO   ...     1.0e-03
   TCutCPAO  ...     1.0e-03

Time for aux screen maps:            0.005
Time for maps after fine MP2:            0.016
-----------------------------
LOCAL RI TRANSFORMATION (IJV)
-----------------------------

Orbital window:       7 to 27
Basis functions:    364 (136 shells)
Aux. functions:     897 (271 shells)

Processing maps (0.0 sec)
Average map sizes:
   Aux shells -> MOs(i)           21.0
   Aux shells -> MOs(j)           21.0
   MOs        -> AO shells       133.2

Calculating integrals (0.8 sec, 3.028 MB)
Sorting integrals (0.0 sec, 3.018 MB)
Total time for the integral transformation: 0.8 sec
--------------------------------
LOCAL RI TRANSFORMATION (VABPAO)
--------------------------------

Number of PAOs:     364
Basis functions:    364 (136 shells)
Aux. functions:     897 (271 shells)

Processing maps (0.0 sec)
Average map sizes:
   Aux shells -> PAOs            364.0
   PAOs       -> AO shells       136.0

Calculating integrals (2.4 sec, 1694.228 MB)
Finished


-------------------------------------
Pair Pair Term precalculation with     
RI-(ij|mn) and (im|jn) transformation  
ON THE FLY                             
-------------------------------------

   IBatch   1 (of   2)              ... done (   71.789 sec)
   IBatch   2 (of   2)              ... done (   22.370 sec)
Total EXT                           ...          94.168 sec

---------------------
RI-PNO TRANSFORMATION
---------------------

Total Number of PNOs                   ...  9099
Average number of PNOs per pair        ...    40
Maximal number of PNOs per pair        ...    71
   #pairs with  1 -  5 PNOs   :    0
   #pairs with  6 - 10 PNOs   :    9
   #pairs with 11 - 15 PNOs   :   12
   #pairs with 16 - 20 PNOs   :   15
   #pairs with 21 - 25 PNOs   :   18
   #pairs with 26 - 30 PNOs   :   35
   #pairs with 31 - 35 PNOs   :   10
   #pairs with 36 - 40 PNOs   :    9
   #pairs with 41 - 45 PNOs   :   15
   #pairs with 46 - 50 PNOs   :   36
   #pairs with 51 - 55 PNOs   :   26
   #pairs with 56 - 60 PNOs   :    3
   #pairs with 61 - 65 PNOs   :    9
   #pairs with 66 - 70 PNOs   :   27
   #pairs with 71 - 75 PNOs   :    3

Generation of (ij|ab)[P] integrals            ... on
Generation of (ia|bc)[P],(ja|bc)[P] integrals ... on
Storage of 3 and 4 external integrals         ... on
Generation of ALL (ka|bc)[P] integrals        ... on
Keep RI integrals in memory                   ... off

Ibatch:  1 (of  1)
Starting 2-4 index PNO integral generation ... done

Timings:
Total PNO integral transformation time     ...         31.386 sec
Size of the 3-external file                ...       179 MB
Size of the 4-external file                ...      1297 MB
Size of the IKJL file                      ...         0 MB
Size of the all 3-external file            ...      1887 MB
Size of the 1-external file                ...         4 MB

Making pair/pair overlap matrices          ... done (    3.765 sec)
Size of the pair overlap file              ... 455 MB
Redoing the guess amplitudes               ... done (    0.004 sec)

-------------------------
FINAL STARTUP INFORMATION
-------------------------

E(0)                                       ...   -333.180507813
E(L-MP2)                                   ...     -1.280734939
E(L-MP2) including corrections             ...     -1.280765961
Initial E(tot)                             ...   -334.461273774
<T|T>                                      ...      0.334582198
Number of pairs included                   ... 227
Total number of pairs                      ... 231

------------------------------------------------
                  RHF COUPLED CLUSTER ITERATIONS
------------------------------------------------

Number of PNO amplitudes to be optimized   ...       435319
Number of non-PNO amplitudes               ...     25627392
Untruncated number of regular amplitudes   ...     26078976

Iter       E(tot)           E(Corr)          Delta-E          Residual     Time
  0   -334.424364724     -1.242527247      0.038207692      0.020769371   13.11
                           *** Turning on DIIS ***
  1   -334.479327183     -1.297489706     -0.054962459      0.014231405   13.13
  2   -334.510918376     -1.329080899     -0.031591192      0.003796524   13.16
  3   -334.516782173     -1.334944696     -0.005863797      0.002625172   13.12
  4   -334.518114408     -1.336276931     -0.001332235      0.000807404   13.13
  5   -334.518383439     -1.336545962     -0.000269030      0.000293019   13.10
  6   -334.518435700     -1.336598223     -0.000052261      0.000136982   13.25
  7   -334.518443852     -1.336606375     -0.000008153      0.000041182   13.37
  8   -334.518444461     -1.336606984     -0.000000609      0.000021065   13.56
  9   -334.518443449     -1.336605972      0.000001012      0.000006037   13.59
               --- The Coupled-Cluster iterations have converged ---

----------------------
COUPLED CLUSTER ENERGY
----------------------

E(0)                                       ...   -333.180507813
E(CORR)(strong-pairs)                      ...     -1.336605972
E(CORR)(weak-pairs)                        ...     -0.001329664
E(CORR)(corrected)                         ...     -1.337935636
E(TOT)                                     ...   -334.518443449
Singles Norm <S|S>**1/2                    ...      0.059351792  
T1 diagnostic                              ...      0.009158180  

------------------
LARGEST AMPLITUDES
------------------
  16-> 28  16-> 28       0.055116
  22-> 33  22-> 33       0.036033
  13-> 38  13-> 38       0.031474
  15-> 38  15-> 38       0.031474
  27-> 34  27-> 34       0.029017
  24-> 34  24-> 34       0.029010
  22-> 28  22-> 28       0.028463
  24-> 28  24-> 28       0.028450
  27-> 28  27-> 28       0.028449
  20-> 28  20-> 28       0.028307
  18-> 28  18-> 28       0.028021
  25-> 28  25-> 28       0.028019
  21-> 28  21-> 28       0.027112
  23-> 28  23-> 28       0.027038
  19-> 28  19-> 28       0.027038
  17-> 28  17-> 28       0.026872


-------------------------------------------
DLPNO BASED TRIPLES CORRECTION
-------------------------------------------

Singles multiplier          ...  1.000000
TCutTNO                     ... 1.000e-09
TCutMP2Pairs                ... 1.000e-06
TCutDOStrong                ... 1.000e-02
TCutMKNStrong               ... 1.000e-02
TCutDOWeak                  ... 2.000e-02
TCutMKNWeak                 ... 1.000e-01

Fragment selection                          .... not used
Number of Triples that are to be computed   ...      1738

 . . . . . . . . .
10% done  
20% done  
30% done  
40% done  
50% done  
60% done  
70% done  
80% done  
90% done               (    217.792 sec)
Triples timings:
Total time for T0               ...   233.277 sec
Total time for Iterative (T)    ...     0.000 sec
Total time of overall (T)       ...   233.277 sec

Triples List generation         ...     0.000 sec
TNO generation                  ...    15.476 sec
Pair density generation         ...     0.005 sec
Look up tables                  ...     0.000 sec
Generating 3-index integrals    ...   152.238 sec
  Make 4-ind.int. from 3-ind.int...    20.491 sec
  Projecting amplitudes (D + S) ...    18.612 sec
  Downprojecting integrals      ...     0.003 sec
  Energy contr. (sum over a,b,c)...     7.258 sec
Fitting ET(->0)                 ...     0.000 sec

Everything after 3-index        ...    65.554 sec

Timing details:
 TNO integrals                  ...   170.792 sec
   Reading 3-index integrals    ...     0.332 sec
   Sorting integrals            ...    20.497 sec
       Sorting integrals 1      ...     0.002 sec
       Sorting integrals 2      ...    12.503 sec
       Sorting integrals 3      ...     0.580 sec
       Sorting integrals 4      ...     0.037 sec
       Sorting integrals 5      ...     0.214 sec
       Sorting integrals 6      ...     7.162 sec
   Calculating local VM**-1/2   ...     0.678 sec
   Orthogonal. integrals        ...     1.080 sec
   Multipl. 3-index integrals   ...   148.205 sec
   All concerning IRIab (w/TNO) ...    11.001 sec

 Calculate W0/W1                ...    19.181 sec
 W 3-ext contribution           ...    10.469 sec
 W 3-int contribution           ...     2.878 sec
 Sorting W                      ...     5.558 sec

 V exchange contribution        ...     2.471 sec

 Timings for Triples without generation
     of 3-index integrals       ...    65.551 sec
       0 weak pairs             ...    64.550 sec
       1 weak pair              ...     1.002 sec
       2 weak pairs             ...     0.000 sec
       3 weak pairs             ...     0.000 sec
  Extra time for extrapolation  ...     0.000 sec

Number of Triples   (0, 1, 2, 3 weak pairs; overall):   1670      68       0       0  (  1738)
Number of Atoms     (0, 1, 2, 3 weak pairs; overall):   17.4    16.6     0.0     0.0  (    18)
Number of PAOs      (0, 1, 2, 3 weak pairs; overall):  354.8   345.1     0.0     0.0  (   364)
Number of AuxFcns   (0, 1, 2, 3 weak pairs; overall):  432.4   304.1     0.0     0.0  (   897)
Number of TNOs      (0, 1, 2, 3 weak pairs         ):   98.5    70.6     0.0     0.0
Aver. Number of NTNO, Atoms, PAOs, AuxFcns / Triples:   1738    97.4    17.4   354.4   427.4

Triples Correction (T)                     ...     -0.050621624
Final correlation energy                   ...     -1.388557260
E(CCSD)                                    ...   -334.518443449
E(CCSD(T))                                 ...   -334.569065073


Maximum memory used throughout the entire calculation: 7776.1 MB


------------------------------------------------------------------------------- 
                                     TIMINGS                                   
------------------------------------------------------------------------------- 


Total execution time                   ...      525.996 sec

Localization of occupied MO's          ...        0.623 sec (  0.1%)
Fock Matrix Formation                  ...        3.715 sec (  0.7%)
Global overlap, Fock, MKN matrices     ...        0.210 sec (  0.0%)
Differential overlap integrals         ...        0.133 sec (  0.0%)
Organizing maps                        ...        0.047 sec (  0.0%)
RI 3-index integral generations        ...        5.217 sec (  1.0%)
RI-PNO integral transformation         ...      129.682 sec ( 24.7%)
Initial Guess                          ...       19.736 sec (  3.8%)
DIIS Solver                            ...        1.774 sec (  0.3%)
State Vector Update                    ...        0.034 sec (  0.0%)
Sigma-vector construction              ...      132.212 sec ( 25.1%)
  <D|H|D>(0-ext)                       ...        3.264 sec (  2.5% of sigma)
  <D|H|D>(2-ext Fock)                  ...        0.014 sec (  0.0% of sigma)
  <D|H|D>(2-ext)                       ...       18.125 sec ( 13.7% of sigma)
  <D|H|D>(4-ext)                       ...       13.425 sec ( 10.2% of sigma)
  <D|H|D>(4-ext-corr)                  ...       68.966 sec ( 52.2% of sigma)
  CCSD doubles correction              ...        0.227 sec (  0.2% of sigma)
  <S|H|S>                              ...        0.238 sec (  0.2% of sigma)
  <S|H|D>(1-ext)                       ...        0.382 sec (  0.3% of sigma)
  <D|H|S>(1-ext)                       ...        0.012 sec (  0.0% of sigma)
  <S|H|D>(3-ext)                       ...        0.522 sec (  0.4% of sigma)
  Fock-dressing                        ...       16.928 sec ( 12.8% of sigma)
  Singles amplitudes                   ...        0.556 sec (  0.4% of sigma)
  (ik|jl)-dressing                     ...        2.514 sec (  1.9% of sigma)
  (ij|ab),(ia|jb)-dressing             ...        2.725 sec (  2.1% of sigma)
  Pair energies                        ...        0.008 sec (  0.0% of sigma)
Total Time for computing (T)           ...      233.352 sec ( 44.4% of ALL)


-------------------------   --------------------
FINAL SINGLE POINT ENERGY      -334.569065072999
-------------------------   --------------------


                            ***************************************
                            *     ORCA property calculations      *
                            ***************************************

                                    ---------------------
                                    Active property flags
                                    ---------------------
   (+) Dipole Moment


------------------------------------------------------------------------------
                       ORCA ELECTRIC PROPERTIES CALCULATION
------------------------------------------------------------------------------

Dipole Moment Calculation                       ... on
Quadrupole Moment Calculation                   ... off
Polarizability Calculation                      ... off
GBWName                                         ... fluorocyclohexane_eq.gbw
Electron density file                           ... fluorocyclohexane_eq.scfp.tmp
The origin for moment calculation is the CENTER OF MASS  = ( 0.168779, -0.000004 -0.006063)

-------------
DIPOLE MOMENT
-------------
                                X             Y             Z
Electronic contribution:      8.52221      -0.00007      -0.15075
Nuclear contribution   :     -9.45161       0.00008       0.33961
                        -----------------------------------------
Total Dipole Moment    :     -0.92940       0.00002       0.18886
                        -----------------------------------------
Magnitude (a.u.)       :      0.94839
Magnitude (Debye)      :      2.41063



--------------------
Rotational spectrum 
--------------------
 
Rotational constants in cm-1:     0.142757     0.072109     0.052397 
Rotational constants in MHz :  4279.753102  2161.785236  1570.829704 

 Dipole components along the rotational axes: 
x,y,z [a.u.] :     0.930171     0.000015     0.185023 
x,y,z [Debye]:     2.364307     0.000039     0.470292 

 

Timings for individual modules:

Sum of individual times         ...      544.502 sec (=   9.075 min)
GTO integral calculation        ...        0.665 sec (=   0.011 min)   0.1 %
SCF iterations                  ...       17.496 sec (=   0.292 min)   3.2 %
MDCI module                     ...      526.341 sec (=   8.772 min)  96.7 %
                             ****ORCA TERMINATED NORMALLY****
TOTAL RUN TIME: 0 days 0 hours 9 minutes 4 seconds 811 msec
fluorocyclohexane_eq.gbw -> /home1/pantazis/klk/xyz/Cyclohexanes/fluorocyclohexane_eq.gbw
fluorocyclohexane_eq.job -> /home1/pantazis/klk/xyz/Cyclohexanes/fluorocyclohexane_eq.job
fluorocyclohexane_eq.loc -> /home1/pantazis/klk/xyz/Cyclohexanes/fluorocyclohexane_eq.loc
fluorocyclohexane_eq.nodes -> /home1/pantazis/klk/xyz/Cyclohexanes/fluorocyclohexane_eq.nodes
fluorocyclohexane_eq.prop -> /home1/pantazis/klk/xyz/Cyclohexanes/fluorocyclohexane_eq.prop
fluorocyclohexane_eq_property.txt -> /home1/pantazis/klk/xyz/Cyclohexanes/fluorocyclohexane_eq_property.txt
fluorocyclohexane_eq.xyz -> /home1/pantazis/klk/xyz/Cyclohexanes/fluorocyclohexane_eq.xyz
cp: cannot stat fluorocyclohexane_eq.asa.inp: No such file or directory
