! Job execution by suborca V 6.07 on ZEUS !
Job started from zeus1, running /scratch/pantazis/fluorocyclohexane_ax__sXebGO/orca/orca copied from /opt/orca on zeussn127 in /scratch/pantazis/fluorocyclohexane_ax__sXebGO
Job execution start: Fri Jun 28 09:53:54 CEST 2019
Shared library path: /scratch/pantazis/fluorocyclohexane_ax__sXebGO/orca:/opt/openmpi_1.10.2/lib:/opt/intel/mkl/lib/intel64:/opt/intel/lib/intel64:
PBS Job ID is: 158369.icqc
izeussn127
izeussn127
izeussn127
izeussn127
izeussn127
izeussn127
izeussn127
izeussn127

                                 *****************
                                 * O   R   C   A *
                                 *****************

           --- An Ab Initio, DFT and Semiempirical electronic structure package ---

                  #######################################################
                  #                        -***-                        #
                  #          Department of theory and spectroscopy      #
                  #               Directorship: Frank Neese             #
                  #        Max Planck Institute fuer Kohlenforschung    #
                  #                Kaiser Wilhelm Platz 1               #
                  #                 D-45470 Muelheim/Ruhr               #
                  #                      Germany                        #
                  #                                                     #
                  #                  All rights reserved                #
                  #                        -***-                        #
                  #######################################################


                         Program Version 4.1.x  -  STABLE  -
                                (SVN: $Rev: 14094$)
                ($Date: 2019-06-14 15:01:15 +0200 (Fri, 14 Jun 2019) $)

                         (BUILD: $Sun Jun 23 06:18:31 CEST 2019$)


 With contributions from (in alphabetic order):
   Daniel Aravena         : Magnetic Properties
   Michael Atanasov       : Ab Initio Ligand Field Theory
   Alexander A. Auer      : GIAO ZORA
   Ute Becker             : Parallelization
   Giovanni Bistoni       : ED, Open-shell LED
   Martin Brehm           : Molecular dynamics
   Dmytro Bykov           : SCF Hessian
   Vijay G. Chilkuri      : MRCI spin determinant printing
   Dipayan Datta          : RHF DLPNO-CCSD density
   Achintya Kumar Dutta   : EOM-CC, STEOM-CC
   Dmitry Ganyushin       : Spin-Orbit,Spin-Spin,Magnetic field MRCI
   Miquel Garcia          : C-PCM Hessian
   Yang Guo               : DLPNO-NEVPT2, CIM, IAO-localization
   Andreas Hansen         : Spin unrestricted coupled pair/coupled cluster methods
   Benjamin Helmich-Paris : CASSCF linear response (MC-RPA)
   Lee Huntington         : MR-EOM, pCC
   Robert Izsak           : Overlap fitted RIJCOSX, COSX-SCS-MP3, EOM
   Christian Kollmar      : KDIIS, OOCD, Brueckner-CCSD(T), CCSD density
   Simone Kossmann        : Meta GGA functionals, TD-DFT gradient, OOMP2, MP2 Hessian
   Martin Krupicka        : AUTO-CI
   Lucas Lang             : DCDCAS
   Dagmar Lenk            : GEPOL surface, SMD
   Dimitrios Liakos       : Extrapolation schemes; parallel MDCI
   Dimitrios Manganas     : ROCIS; embedding schemes
   Dimitrios Pantazis     : SARC Basis sets
   Taras Petrenko         : DFT Hessian,TD-DFT gradient, ASA, ECA, R-Raman, ABS, FL, XAS/XES, NRVS
   Peter Pinski           : DLPNO-MP2, DLPNO-MP2 Gradient
   Christoph Reimann      : Effective Core Potentials
   Marius Retegan         : Local ZFS, SOC
   Christoph Riplinger    : Optimizer, TS searches, QM/MM, DLPNO-CCSD(T), (RO)-DLPNO pert. Triples
   Tobias Risthaus        : Range-separated hybrids, TD-DFT gradient, RPA, STAB
   Michael Roemelt        : Restricted open shell CIS
   Masaaki Saitow         : Open-shell DLPNO
   Barbara Sandhoefer     : DKH picture change effects
   Avijit Sen             : IP-ROCIS
   Kantharuban Sivalingam : CASSCF convergence, NEVPT2, FIC-MRCI
   Bernardo de Souza      : ESD, SOC TD-DFT
   Georgi Stoychev        : AutoAux, RI-MP2 NMR
   Willem Van den Heuvel  : Paramagnetic NMR
   Boris Wezisla          : Elementary symmetry handling
   Frank Wennmohs         : Technical directorship


 We gratefully acknowledge several colleagues who have allowed us to
 interface, adapt or use parts of their codes:
   Stefan Grimme, W. Hujo, H. Kruse,             : VdW corrections, initial TS optimization,
                  C. Bannwarth                     DFT functionals, gCP, sTDA/sTD-DF
   Ed Valeev                                     : LibInt (2-el integral package), F12 methods
   Garnet Chan, S. Sharma, J. Yang, R. Olivares  : DMRG
   Ulf Ekstrom                                   : XCFun DFT Library
   Mihaly Kallay                                 : mrcc  (arbitrary order and MRCC methods)
   Andreas Klamt, Michael Diedenhofen            : otool_cosmo (COSMO solvation model)
   Jiri Pittner, Ondrej Demel                    : Mk-CCSD
   Frank Weinhold                                : gennbo (NPA and NBO analysis)
   Christopher J. Cramer and Donald G. Truhlar   : smd solvation model
   Lars Goerigk                                  : TD-DFT with DH, B97 family of functionals
   V. Asgeirsson, H. Jonsson                     : NEB implementation
   FAccTs GmbH                                   : IRC, NEB, NEB-TS, Multilevel


 Your calculation uses the libint2 library for the computation of 2-el integrals
 For citations please refer to: http://libint.valeyev.net

 This ORCA versions uses:
   CBLAS   interface :  Fast vector & matrix operations
   LAPACKE interface :  Fast linear algebra routines
   SCALAPACK package :  Parallel linear algebra routines




***************************************
The coordinates will be read from file: fluorocyclohexane_ax.xyz
***************************************


----- Orbital basis set information -----
Your calculation utilizes the basis: cc-pVTZ 
       H, B-Ne : Obtained from the ccRepo (grant-hill.group.shef.ac.uk/ccrepo) Feb. 2017
                 T. H. Dunning, Jr., J. Chem. Phys. 90, 1007 (1989)
            He : Obtained from the ccRepo (grant-hill.group.shef.ac.uk/ccrepo) Feb. 2017
                 D. E. Woon, T. H. Dunning, Jr., J. Chem. Phys. 100, 2975 (1994)
  Li-Be, Na-Mg : Obtained from the ccRepo (grant-hill.group.shef.ac.uk/ccrepo) Feb. 2017
                 B. P. Prascher, D. E. Woon, K. A. Peterson, T. H. Dunning, Jr., A. K. Wilson, Theor. Chem. Acc. 128, 69 (2011)
         Al-Ar : Obtained from the ccRepo (grant-hill.group.shef.ac.uk/ccrepo) Feb. 2017
                 D. E. Woon, T. H. Dunning, Jr., J. Chem. Phys. 98, 1358 (1993)
            Ca : Obtained from the Peterson Research Group Website (tyr0.chem.wsu.edu/~kipeters) Feb. 2017
                 J. Koput, K. A. Peterson, J. Phys. Chem. 106, 9595 (2002)
         Sc-Zn : Obtained from the ccRepo (grant-hill.group.shef.ac.uk/ccrepo) Feb. 2017
                 N. B. Balabanov, K. A. Peterson, J. Chem. Phys. 123, 064107 (2005)
                 N. B. Balabanov, K. A. Peterson, J. Chem. Phys. 125, 074110 (2006)
         Ga-Kr : Obtained from the ccRepo (grant-hill.group.shef.ac.uk/ccrepo) Feb. 2017
                 A. K. Wilson, D. E. Woon, K. A. Peterson, T. H. Dunning, Jr., J. Chem. Phys. 110, 7667 (1999)
             Y : Obtained from the ccRepo (grant-hill.group.shef.ac.uk/ccrepo) Feb. 2017
                 K. A. Peterson, D. Figgen, M. Dolg, H. Stoll, J. Chem. Phys. 126, 124101 (2007)
        Ag, Au : Obtained from the Peterson Research Group Website (tyr0.chem.wsu.edu/~kipeters) Feb. 2017
                 K. A. Peterson, C. Puzzarini, Theor. Chem. Acc. 114, 283 (2005)

----- AuxC basis set information -----
Your calculation utilizes the auxiliary basis: cc-pVTZ/C 
  Obtained from the EMSL Basis Set Exchange (bse.pnl.gov) Feb. 2017
  H-He, B-F, Al-Ar, Ga-Kr : F. Weigend, A. Kohn, C. Hattig, J. Chem. Phys. 116, 3175 (2002)
             Li-Be, Na-Mg : C. Haettig, Phys. Chem. Chem. Phys. 7, 59 (2005)
                       Ne : C. Haettig, Phys. Chem. Chem. Phys. 7, 59 (2005)
                            F. Weigend, A. Kohn, C. Hattig, J. Chem. Phys. 116, 3175 (2002)
                    Sc-Zn : J. G. Hill, J. A. Platts, J. Chem. Phys. 128, 044104 (2008)

----- AuxJK basis set information -----
Your calculation utilizes the auxiliary basis: cc-pVTZ/JK 
  H, B-F, Al-Cl, Ga-Br : Obtained from the TURBOMOLE 7.0 basis set library

================================================================================
                                        WARNINGS
                       Please study these warnings very carefully!
================================================================================


WARNING: MDCI localization with Augmented Hessian Foster-Boys
  ===> : Switching off randomization!

WARNING: Post HF methods need fully converged wavefunctions
  ===> : Setting SCFConvForced true
         You can overwrite this default with %scf ConvForced false 


INFO   : the flag for use of LIBINT has been found!

================================================================================
                                       INPUT FILE
================================================================================
NAME = fluorocyclohexane_ax.inp
|  1> ! RHF DLPNO-CCSD(T) cc-pVTZ RIJK cc-pVTZ/JK cc-pVTZ/C
|  2> ! KDIIS SOSCF TightSCF TightPNO
|  3> 
|  4> %pal nprocs 8 end
|  5> 
|  6> %maxcore 8000
|  7> 
|  8> %scf maxiter 300
|  9>      shift shift 0.2 erroff 0.1 end
| 10> end
| 11> 
| 12> * xyzfile 0 1 fluorocyclohexane_ax.xyz 
| 13> 
| 14> 
| 15>                          ****END OF INPUT****
================================================================================

                       ****************************
                       * Single Point Calculation *
                       ****************************

---------------------------------
CARTESIAN COORDINATES (ANGSTROEM)
---------------------------------
  C      0.343420    1.273500    0.580480
  C      1.167930    0.000010    0.412510
  C      0.343430   -1.273500    0.580500
  C     -0.923840   -1.268440   -0.289540
  C     -1.761220   -0.000010   -0.057500
  C     -0.923860    1.268430   -0.289530
  F      1.722170    0.000000   -0.900630
  H      0.974170   -2.139740    0.351090
  H      0.067140   -1.351440    1.641770
  H     -1.518700   -2.164930   -0.078100
  H     -2.144630    0.000000    0.974060
  H     -2.638180   -0.000020   -0.716000
  H      2.030310    0.000010    1.089100
  H     -1.518730    2.164920   -0.078090
  H     -0.633680    1.324110   -1.346230
  H      0.067100    1.351450    1.641750
  H      0.974160    2.139760    0.351080
  H     -0.633660   -1.324100   -1.346240

----------------------------
CARTESIAN COORDINATES (A.U.)
----------------------------
  NO LB      ZA    FRAG     MASS         X           Y           Z
   0 C     6.0000    0    12.011    0.648970    2.406566    1.096948
   1 C     6.0000    0    12.011    2.207068    0.000019    0.779531
   2 C     6.0000    0    12.011    0.648989   -2.406566    1.096986
   3 C     6.0000    0    12.011   -1.745805   -2.397004   -0.547151
   4 C     6.0000    0    12.011   -3.328223   -0.000019   -0.108659
   5 C     6.0000    0    12.011   -1.745842    2.396985   -0.547132
   6 F     9.0000    0    18.998    3.254430    0.000000   -1.701944
   7 H     1.0000    0     1.008    1.840915   -4.043523    0.663464
   8 H     1.0000    0     1.008    0.126876   -2.553851    3.102496
   9 H     1.0000    0     1.008   -2.869927   -4.091125   -0.147588
  10 H     1.0000    0     1.008   -4.052763    0.000000    1.840707
  11 H     1.0000    0     1.008   -4.985438   -0.000038   -1.353044
  12 H     1.0000    0     1.008    3.836730    0.000019    2.058101
  13 H     1.0000    0     1.008   -2.869984    4.091106   -0.147569
  14 H     1.0000    0     1.008   -1.197482    2.502205   -2.544006
  15 H     1.0000    0     1.008    0.126801    2.553870    3.102458
  16 H     1.0000    0     1.008    1.840896    4.043560    0.663445
  17 H     1.0000    0     1.008   -1.197444   -2.502186   -2.544025

--------------------------------
INTERNAL COORDINATES (ANGSTROEM)
--------------------------------
 C      0   0   0     0.000000000000     0.00000000     0.00000000
 C      1   0   0     1.526370676179     0.00000000     0.00000000
 C      2   1   0     1.526384162064   113.09193842     0.00000000
 C      3   2   1     1.537194996772   112.35081952    51.04099714
 C      4   3   2     1.537518289615   111.48717487   306.90709860
 C      1   2   3     1.537186294305   112.35197225   308.95976624
 F      2   1   3     1.425313522457   108.14608524   119.73710097
 H      3   2   1     1.095825548753   109.00071605   174.52360173
 H      3   2   1     1.099411124466   107.52576630   290.06434546
 H      4   3   2     1.096475997594   109.59812293   184.26677070
 H      5   4   3     1.100508637767   109.34263370   294.53913730
 H      5   4   3     1.096668177572   110.17516692   177.80079267
 H      2   1   3     1.096117371681   110.91988421   234.65337169
 H      6   1   2     1.096481422825   109.59871482   175.73283665
 H      6   1   2     1.097232694008   109.07899059   292.23903827
 H      1   2   3     1.099419373033   107.52641517    69.93429516
 H      1   2   3     1.095839265221   109.00093706   185.47497652
 H      4   3   2     1.097231679273   109.08016416    67.75921377

---------------------------
INTERNAL COORDINATES (A.U.)
---------------------------
 C      0   0   0     0.000000000000     0.00000000     0.00000000
 C      1   0   0     2.884422556827     0.00000000     0.00000000
 C      2   1   0     2.884448041456   113.09193842     0.00000000
 C      3   2   1     2.904877558333   112.35081952    51.04099714
 C      4   3   2     2.905488493267   111.48717487   306.90709860
 C      1   2   3     2.904861113054   112.35197225   308.95976624
 F      2   1   3     2.693452212419   108.14608524   119.73710097
 H      3   2   1     2.070810177697   109.00071605   174.52360173
 H      3   2   1     2.077585933827   107.52576630   290.06434546
 H      4   3   2     2.072039347871   109.59812293   184.26677070
 H      5   4   3     2.079659933395   109.34263370   294.53913730
 H      5   4   3     2.072402515398   110.17516692   177.80079267
 H      2   1   3     2.071361643110   110.91988421   234.65337169
 H      6   1   2     2.072049600071   109.59871482   175.73283665
 H      6   1   2     2.073469296860   109.07899059   292.23903827
 H      1   2   3     2.077601521360   107.52641517    69.93429516
 H      1   2   3     2.070836098065   109.00093706   185.47497652
 H      4   3   2     2.073467379288   109.08016416    67.75921377

---------------------
BASIS SET INFORMATION
---------------------
There are 3 groups of distinct atoms

 Group   1 Type C   : 18s5p2d1f contracted to 4s3p2d1f pattern {8811/311/11/1}
 Group   2 Type F   : 18s5p2d1f contracted to 4s3p2d1f pattern {8811/311/11/1}
 Group   3 Type H   : 5s2p1d contracted to 3s2p1d pattern {311/11/1}

Atom   0C    basis set group =>   1
Atom   1C    basis set group =>   1
Atom   2C    basis set group =>   1
Atom   3C    basis set group =>   1
Atom   4C    basis set group =>   1
Atom   5C    basis set group =>   1
Atom   6F    basis set group =>   2
Atom   7H    basis set group =>   3
Atom   8H    basis set group =>   3
Atom   9H    basis set group =>   3
Atom  10H    basis set group =>   3
Atom  11H    basis set group =>   3
Atom  12H    basis set group =>   3
Atom  13H    basis set group =>   3
Atom  14H    basis set group =>   3
Atom  15H    basis set group =>   3
Atom  16H    basis set group =>   3
Atom  17H    basis set group =>   3
-------------------------------
AUXILIARY BASIS SET INFORMATION
-------------------------------
There are 3 groups of distinct atoms

 Group   1 Type C   : 8s6p5d3f1g contracted to 8s6p5d3f1g pattern {11111111/111111/11111/111/1}
 Group   2 Type F   : 8s6p5d3f1g contracted to 8s6p5d3f1g pattern {11111111/111111/11111/111/1}
 Group   3 Type H   : 4s3p2d1f contracted to 4s3p2d1f pattern {1111/111/11/1}

Atom   0C    basis set group =>   1
Atom   1C    basis set group =>   1
Atom   2C    basis set group =>   1
Atom   3C    basis set group =>   1
Atom   4C    basis set group =>   1
Atom   5C    basis set group =>   1
Atom   6F    basis set group =>   2
Atom   7H    basis set group =>   3
Atom   8H    basis set group =>   3
Atom   9H    basis set group =>   3
Atom  10H    basis set group =>   3
Atom  11H    basis set group =>   3
Atom  12H    basis set group =>   3
Atom  13H    basis set group =>   3
Atom  14H    basis set group =>   3
Atom  15H    basis set group =>   3
Atom  16H    basis set group =>   3
Atom  17H    basis set group =>   3
-------------------------------
AUXILIARY BASIS SET INFORMATION
-------------------------------
There are 3 groups of distinct atoms

 Group   1 Type C   : 10s7p5d2f1g contracted to 10s7p5d2f1g pattern {1111111111/1111111/11111/11/1}
 Group   2 Type F   : 10s7p5d2f1g contracted to 10s7p5d2f1g pattern {1111111111/1111111/11111/11/1}
 Group   3 Type H   : 4s3p2d1f contracted to 4s3p2d1f pattern {1111/111/11/1}

Atom   0C    basis set group =>   1
Atom   1C    basis set group =>   1
Atom   2C    basis set group =>   1
Atom   3C    basis set group =>   1
Atom   4C    basis set group =>   1
Atom   5C    basis set group =>   1
Atom   6F    basis set group =>   2
Atom   7H    basis set group =>   3
Atom   8H    basis set group =>   3
Atom   9H    basis set group =>   3
Atom  10H    basis set group =>   3
Atom  11H    basis set group =>   3
Atom  12H    basis set group =>   3
Atom  13H    basis set group =>   3
Atom  14H    basis set group =>   3
Atom  15H    basis set group =>   3
Atom  16H    basis set group =>   3
Atom  17H    basis set group =>   3


           ************************************************************
           *        Program running with 8 parallel MPI-processes     *
           *              working on a common directory               *
           ************************************************************
------------------------------------------------------------------------------
                           ORCA GTO INTEGRAL CALCULATION
                           -- RI-GTO INTEGRALS CHOSEN --
------------------------------------------------------------------------------

                         BASIS SET STATISTICS AND STARTUP INFO

Gaussian basis set:
 # of primitive gaussian shells          ...  270
 # of primitive gaussian functions       ...  526
 # of contracted shells                  ...  136
 # of contracted basis functions         ...  364
 Highest angular momentum                ...    3
 Maximum contraction depth               ...    8
Auxiliary gaussian basis set:
 # of primitive gaussian shells          ...  285
 # of primitive gaussian functions       ...  883
 # of contracted shells                  ...  285
 # of contracted aux-basis functions     ...  883
 Highest angular momentum                ...    4
 Maximum contraction depth               ...    1
Ratio of auxiliary to basis functions    ...  2.43
Integral package used                  ... LIBINT
 One Electron integrals                  ... done
 Ordering auxiliary basis shells         ... done
 Integral threshhold             Thresh  ...  2.500e-11
 Primitive cut-off               TCut    ...  2.500e-12
 Pre-screening matrix                    ... done
 Shell pair data                         ... 
 Ordering of the shell pairs             ... done (   0.002 sec) 9002 of 9316 pairs
 Determination of significant pairs      ... done (   0.000 sec)
 Creation of shell pair data             ... done (   0.002 sec)
 Storage of shell pair data              ... done (   0.003 sec)
 Shell pair data done in (   0.007 sec)
 Computing two index integrals           ... done
 Cholesky decomposition of the V-matrix  ... done


Timings:
 Total evaluation time                   ...   0.530 sec (  0.009 min)
 One electron matrix time                ...   0.116 sec (  0.002 min) = 21.8%
 Schwartz matrix evaluation time         ...   0.253 sec (  0.004 min) = 47.7%
 Two index repulsion integral time       ...   0.076 sec (  0.001 min) = 14.3%
 Cholesky decomposition of V             ...   0.053 sec (  0.001 min) = 10.0%
 Three index repulsion integral time     ...   0.000 sec (  0.000 min) =  0.0%



           ************************************************************
           *        Program running with 8 parallel MPI-processes     *
           *              working on a common directory               *
           ************************************************************
-------------------------------------------------------------------------------
                                 ORCA SCF
-------------------------------------------------------------------------------

------------
SCF SETTINGS
------------
Hamiltonian:
 Ab initio Hamiltonian  Method          .... Hartree-Fock(GTOs)
 RI-approximation to the Coulomb term is turned on
   Number of auxiliary basis functions  .... 883
   RI-JK (J+K treated both via RI)      .... on


General Settings:
 Integral files         IntName         .... fluorocyclohexane_ax
 Hartree-Fock type      HFTyp           .... RHF
 Total Charge           Charge          ....    0
 Multiplicity           Mult            ....    1
 Number of Electrons    NEL             ....   56
 Basis Dimension        Dim             ....  364
 Nuclear Repulsion      ENuc            ....    332.1102622492 Eh

Convergence Acceleration:
 DIIS                   CNVDIIS         .... off
 Newton-Raphson         CNVNR           .... off
 SOSCF                  CNVSOSCF        .... on
   Start iteration      SOSCFMaxIt      ....   150
   Startup grad/error   SOSCFStart      ....  0.003300
 Level Shifting         CNVShift        .... on
   Level shift para.    LevelShift      ....    0.2000
   Turn off err/grad.   ShiftErr        ....    0.1000
 Zerner damping         CNVZerner       .... off
 Static damping         CNVDamp         .... off
 Fernandez-Rico         CNVRico         .... off

SCF Procedure:
 Maximum # iterations   MaxIter         ....   300
 SCF integral mode      SCFMode         .... Direct
   Integral package                     .... LIBINT
 Reset frequency        DirectResetFreq ....    20
 Integral Threshold     Thresh          ....  2.500e-11 Eh
 Primitive CutOff       TCut            ....  2.500e-12 Eh

Convergence Tolerance:
 Convergence Check Mode ConvCheckMode   .... Total+1el-Energy
 Convergence forced     ConvForced      .... 1
 Energy Change          TolE            ....  1.000e-08 Eh
 1-El. energy change                    ....  1.000e-05 Eh
 Orbital Gradient       TolG            ....  1.000e-05
 Orbital Rotation angle TolX            ....  1.000e-05


Diagonalization of the overlap matrix:
Smallest eigenvalue                        ... 3.668e-04
Time for diagonalization                   ...    0.027 sec
Threshold for overlap eigenvalues          ... 1.000e-08
Number of eigenvalues below threshold      ... 0
Time for construction of square roots      ...    0.029 sec
Total time needed                          ...    0.056 sec

-------------------
DFT GRID GENERATION
-------------------

General Integration Accuracy     IntAcc      ...  4.340
Radial Grid Type                 RadialGrid  ... Gauss-Chebyshev
Angular Grid (max. acc.)         AngularGrid ... Lebedev-110
Angular grid pruning method      GridPruning ... 3 (G Style)
Weight generation scheme         WeightScheme... Becke
Basis function cutoff            BFCut       ...    1.0000e-11
Integration weight cutoff        WCut        ...    1.0000e-14
Grids for H and He will be reduced by one unit

# of grid points (after initial pruning)     ...  20410 (   0.0 sec)
# of grid points (after weights+screening)   ...  18674 (   0.0 sec)
nearest neighbour list constructed           ...    0.0 sec
Grid point re-assignment to atoms done       ...    0.0 sec
Grid point division into batches done        ...    0.0 sec
Reduced shell lists constructed in    0.1 sec

Total number of grid points                  ...    18674
Total number of batches                      ...      300
Average number of points per batch           ...       62
Average number of grid points per atom       ...     1037
Average number of shells per batch           ...   120.03 (88.25%)
Average number of basis functions per batch  ...   319.10 (87.67%)
Average number of large shells per batch     ...    99.51 (82.91%)
Average number of large basis fcns per batch ...   260.49 (81.63%)
Average number of aux-shells per batch       ...   120.03 (42.11%)
Average number of aux functions per batch    ...   319.10 (36.14%)
Maximum spatial batch extension              ...   2.85,  2.83,  2.17 au
Average spatial batch extension              ...   0.20,  0.20,  0.18 au

Time for grid setup =    0.179 sec

------------------------------
INITIAL GUESS: MODEL POTENTIAL
------------------------------
Loading Hartree-Fock densities                     ... done
Calculating cut-offs                               ... done
Setting up the integral package                    ... done
Initializing the effective Hamiltonian             ... done
Starting the Coulomb interaction                   ... done (   0.1 sec)
Reading the grid                                   ... done
Mapping shells                                     ... done
Starting the XC term evaluation                    ... done (   0.1 sec)
Transforming the Hamiltonian                       ... done (   0.0 sec)
Diagonalizing the Hamiltonian                      ... done (   0.0 sec)
Back transforming the eigenvectors                 ... done (   0.0 sec)
Now organizing SCF variables                       ... done
                      ------------------
                      INITIAL GUESS DONE (   0.5 sec)
                      ------------------
--------------
SCF ITERATIONS
--------------
ITER       Energy         Delta-E        Max-DP      RMS-DP      [F,P]   Gradient Norm
                             ****Turning on KDIIS(Cayley)****
  0   -332.8381665330   0.000000000000 0.00972682  0.00022821  0.1693288   0.146738959
  1   -332.9306615449  -0.092495011914 0.01807886  0.00027870  0.1541088   0.128387487
  2   -333.0135401303  -0.082878585398 0.02989937  0.00048248  0.1243772   0.103992970
  3   -333.1154553637  -0.101915233384 0.04530357  0.00076850  0.0741647   0.063766558
                      *** Initiating the SOSCF procedure ***
                           *** Shutting down KDIIS ***
                      *** Re-Reading the Fockian *** 
                      *** Removing any level shift *** 
ITER      Energy       Delta-E        Grad      Rot      Max-DP    RMS-DP
  4   -333.17998240  -0.0645270323  0.002953  0.002953  0.001666  0.000047
  5   -333.18019388  -0.0002114835  0.001303  0.001767  0.001579  0.000044
  6   -333.18023556  -0.0000416854  0.000629  0.000441  0.000574  0.000017
  7   -333.18024752  -0.0000119503  0.000066  0.000079  0.000246  0.000006
  8   -333.18024780  -0.0000002877  0.000028  0.000032  0.000118  0.000002
  9   -333.18024783  -0.0000000320  0.000015  0.000007  0.000016  0.000000
                  ***Gradient check signals convergence***
              ***Rediagonalizing the Fockian in SOSCF/NRSCF***

               *****************************************************
               *                     SUCCESS                       *
               *           SCF CONVERGED AFTER  10 CYCLES          *
               *****************************************************


----------------
TOTAL SCF ENERGY
----------------

Total Energy       :         -333.18024784 Eh           -9066.29547 eV

Components:
Nuclear Repulsion  :          332.11026225 Eh            9037.17968 eV
Electronic Energy  :         -665.29051009 Eh          -18103.47514 eV
One Electron Energy:        -1113.51216037 Eh          -30300.20632 eV
Two Electron Energy:          448.22165028 Eh           12196.73117 eV

Virial components:
Potential Energy   :         -665.84550018 Eh          -18118.57719 eV
Kinetic Energy     :          332.66525234 Eh            9052.28173 eV
Virial Ratio       :            2.00154809


---------------
SCF CONVERGENCE
---------------

  Last Energy change         ...   -7.0735e-09  Tolerance :   1.0000e-08
  Last MAX-Density change    ...    4.2405e-06  Tolerance :   1.0000e-07
  Last RMS-Density change    ...    1.4784e-07  Tolerance :   5.0000e-09
  Last Orbital Gradient      ...    1.8763e-06  Tolerance :   1.0000e-05
  Last Orbital Rotation      ...    2.0339e-06  Tolerance :   1.0000e-05

             **** THE GBW FILE WAS UPDATED (fluorocyclohexane_ax.gbw) ****
             **** DENSITY FILE WAS UPDATED (fluorocyclohexane_ax.scfp.tmp) ****
             **** ENERGY FILE WAS UPDATED (fluorocyclohexane_ax.en.tmp) ****
----------------
ORBITAL ENERGIES
----------------

  NO   OCC          E(Eh)            E(eV) 
   0   2.0000     -26.255491      -714.4482 
   1   2.0000     -11.305175      -307.6295 
   2   2.0000     -11.226628      -305.4921 
   3   2.0000     -11.226613      -305.4917 
   4   2.0000     -11.221627      -305.3560 
   5   2.0000     -11.221075      -305.3410 
   6   2.0000     -11.220754      -305.3322 
   7   2.0000      -1.560270       -42.4571 
   8   2.0000      -1.115100       -30.3434 
   9   2.0000      -1.010709       -27.5028 
  10   2.0000      -1.005329       -27.3564 
  11   2.0000      -0.843736       -22.9592 
  12   2.0000      -0.837889       -22.8001 
  13   2.0000      -0.755611       -20.5612 
  14   2.0000      -0.693872       -18.8812 
  15   2.0000      -0.658727       -17.9249 
  16   2.0000      -0.648326       -17.6418 
  17   2.0000      -0.625739       -17.0272 
  18   2.0000      -0.592641       -16.1266 
  19   2.0000      -0.580781       -15.8039 
  20   2.0000      -0.541721       -14.7410 
  21   2.0000      -0.531762       -14.4700 
  22   2.0000      -0.518010       -14.0958 
  23   2.0000      -0.516561       -14.0564 
  24   2.0000      -0.484629       -13.1874 
  25   2.0000      -0.462258       -12.5787 
  26   2.0000      -0.437047       -11.8927 
  27   2.0000      -0.436366       -11.8741 
  28   0.0000       0.133928         3.6444 
  29   0.0000       0.157885         4.2963 
  30   0.0000       0.167654         4.5621 
  31   0.0000       0.171707         4.6724 
  32   0.0000       0.200893         5.4666 
  33   0.0000       0.205761         5.5990 
  34   0.0000       0.211374         5.7518 
  35   0.0000       0.220453         5.9988 
  36   0.0000       0.231956         6.3118 
  37   0.0000       0.234185         6.3725 
  38   0.0000       0.256074         6.9681 
  39   0.0000       0.290455         7.9037 
  40   0.0000       0.312298         8.4981 
  41   0.0000       0.327002         8.8982 
  42   0.0000       0.331901         9.0315 
  43   0.0000       0.379033        10.3140 
  44   0.0000       0.379084        10.3154 
  45   0.0000       0.393202        10.6996 
  46   0.0000       0.404139        10.9972 
  47   0.0000       0.414251        11.2724 
  48   0.0000       0.425640        11.5823 
  49   0.0000       0.451168        12.2769 
  50   0.0000       0.474940        12.9238 
  51   0.0000       0.477103        12.9826 
  52   0.0000       0.495962        13.4958 
  53   0.0000       0.548608        14.9284 
  54   0.0000       0.562094        15.2954 
  55   0.0000       0.581477        15.8228 
  56   0.0000       0.588452        16.0126 
  57   0.0000       0.590564        16.0701 
  58   0.0000       0.593046        16.1376 
  59   0.0000       0.601903        16.3786 
  60   0.0000       0.604622        16.4526 
  61   0.0000       0.619995        16.8709 
  62   0.0000       0.631000        17.1704 
  63   0.0000       0.632652        17.2153 
  64   0.0000       0.638946        17.3866 
  65   0.0000       0.650770        17.7083 
  66   0.0000       0.666991        18.1497 
  67   0.0000       0.677696        18.4411 
  68   0.0000       0.680010        18.5040 
  69   0.0000       0.681123        18.5343 
  70   0.0000       0.683439        18.5973 
  71   0.0000       0.698203        18.9991 
  72   0.0000       0.701454        19.0875 
  73   0.0000       0.760419        20.6921 
  74   0.0000       0.797869        21.7111 
  75   0.0000       0.819541        22.3008 
  76   0.0000       0.846069        23.0227 
  77   0.0000       0.854330        23.2475 
  78   0.0000       0.858667        23.3655 
  79   0.0000       0.878725        23.9113 
  80   0.0000       0.925141        25.1744 
  81   0.0000       0.956613        26.0308 
  82   0.0000       0.972815        26.4716 
  83   0.0000       0.973031        26.4775 
  84   0.0000       0.995940        27.1009 
  85   0.0000       1.018371        27.7113 
  86   0.0000       1.056785        28.7566 
  87   0.0000       1.073693        29.2167 
  88   0.0000       1.103080        30.0163 
  89   0.0000       1.110401        30.2155 
  90   0.0000       1.127964        30.6935 
  91   0.0000       1.129865        30.7452 
  92   0.0000       1.157779        31.5048 
  93   0.0000       1.163610        31.6634 
  94   0.0000       1.200314        32.6622 
  95   0.0000       1.201302        32.6891 
  96   0.0000       1.216543        33.1038 
  97   0.0000       1.237628        33.6776 
  98   0.0000       1.251010        34.0417 
  99   0.0000       1.269167        34.5358 
 100   0.0000       1.276380        34.7321 
 101   0.0000       1.289000        35.0755 
 102   0.0000       1.303788        35.4779 
 103   0.0000       1.312498        35.7149 
 104   0.0000       1.328344        36.1461 
 105   0.0000       1.333360        36.2826 
 106   0.0000       1.335700        36.3463 
 107   0.0000       1.359640        36.9977 
 108   0.0000       1.366953        37.1967 
 109   0.0000       1.376777        37.4640 
 110   0.0000       1.387352        37.7518 
 111   0.0000       1.406859        38.2826 
 112   0.0000       1.410120        38.3713 
 113   0.0000       1.443041        39.2671 
 114   0.0000       1.452252        39.5178 
 115   0.0000       1.462880        39.8070 
 116   0.0000       1.473743        40.1026 
 117   0.0000       1.493868        40.6502 
 118   0.0000       1.503935        40.9241 
 119   0.0000       1.508696        41.0537 
 120   0.0000       1.558237        42.4018 
 121   0.0000       1.563456        42.5438 
 122   0.0000       1.567767        42.6611 
 123   0.0000       1.571803        42.7709 
 124   0.0000       1.599234        43.5174 
 125   0.0000       1.601207        43.5711 
 126   0.0000       1.612214        43.8706 
 127   0.0000       1.613436        43.9038 
 128   0.0000       1.623532        44.1786 
 129   0.0000       1.678326        45.6696 
 130   0.0000       1.680855        45.7384 
 131   0.0000       1.685627        45.8682 
 132   0.0000       1.695121        46.1266 
 133   0.0000       1.712628        46.6030 
 134   0.0000       1.752566        47.6898 
 135   0.0000       1.755009        47.7562 
 136   0.0000       1.778215        48.3877 
 137   0.0000       1.795476        48.8574 
 138   0.0000       1.848603        50.3031 
 139   0.0000       1.852397        50.4063 
 140   0.0000       1.870296        50.8933 
 141   0.0000       1.883987        51.2659 
 142   0.0000       1.927969        52.4627 
 143   0.0000       1.975790        53.7640 
 144   0.0000       2.043427        55.6045 
 145   0.0000       2.060828        56.0780 
 146   0.0000       2.127798        57.9003 
 147   0.0000       2.322522        63.1990 
 148   0.0000       2.381830        64.8129 
 149   0.0000       2.407568        65.5132 
 150   0.0000       2.481288        67.5193 
 151   0.0000       2.589966        70.4766 
 152   0.0000       2.601871        70.8005 
 153   0.0000       2.623588        71.3915 
 154   0.0000       2.631919        71.6182 
 155   0.0000       2.676368        72.8277 
 156   0.0000       2.687645        73.1345 
 157   0.0000       2.740548        74.5741 
 158   0.0000       2.746318        74.7311 
 159   0.0000       2.761307        75.1390 
 160   0.0000       2.788189        75.8705 
 161   0.0000       2.815797        76.6217 
 162   0.0000       2.817997        76.6816 
 163   0.0000       2.819140        76.7127 
 164   0.0000       2.853440        77.6461 
 165   0.0000       2.855579        77.7042 
 166   0.0000       2.880578        78.3845 
 167   0.0000       2.886779        78.5532 
 168   0.0000       2.903125        78.9981 
 169   0.0000       2.915298        79.3293 
 170   0.0000       2.921895        79.5088 
 171   0.0000       2.938830        79.9696 
 172   0.0000       2.959534        80.5330 
 173   0.0000       2.960805        80.5676 
 174   0.0000       2.982886        81.1685 
 175   0.0000       2.995392        81.5088 
 176   0.0000       3.006933        81.8228 
 177   0.0000       3.018013        82.1243 
 178   0.0000       3.019133        82.1548 
 179   0.0000       3.031826        82.5002 
 180   0.0000       3.049268        82.9748 
 181   0.0000       3.059981        83.2663 
 182   0.0000       3.093000        84.1648 
 183   0.0000       3.151606        85.7596 
 184   0.0000       3.179023        86.5056 
 185   0.0000       3.200694        87.0953 
 186   0.0000       3.209520        87.3355 
 187   0.0000       3.223608        87.7188 
 188   0.0000       3.243076        88.2486 
 189   0.0000       3.256379        88.6106 
 190   0.0000       3.296099        89.6914 
 191   0.0000       3.325341        90.4871 
 192   0.0000       3.349531        91.1454 
 193   0.0000       3.362894        91.5090 
 194   0.0000       3.364824        91.5615 
 195   0.0000       3.384331        92.0923 
 196   0.0000       3.427546        93.2683 
 197   0.0000       3.435315        93.4797 
 198   0.0000       3.438740        93.5729 
 199   0.0000       3.445585        93.7591 
 200   0.0000       3.462004        94.2059 
 201   0.0000       3.465336        94.2966 
 202   0.0000       3.473500        94.5187 
 203   0.0000       3.480988        94.7225 
 204   0.0000       3.482154        94.7542 
 205   0.0000       3.485630        94.8488 
 206   0.0000       3.500846        95.2629 
 207   0.0000       3.508927        95.4828 
 208   0.0000       3.510127        95.5154 
 209   0.0000       3.546940        96.5171 
 210   0.0000       3.552228        96.6610 
 211   0.0000       3.581291        97.4519 
 212   0.0000       3.582830        97.4938 
 213   0.0000       3.591232        97.7224 
 214   0.0000       3.616338        98.4056 
 215   0.0000       3.641866        99.1002 
 216   0.0000       3.672811        99.9423 
 217   0.0000       3.674151        99.9787 
 218   0.0000       3.692036       100.4654 
 219   0.0000       3.712212       101.0144 
 220   0.0000       3.717445       101.1568 
 221   0.0000       3.738101       101.7189 
 222   0.0000       3.755168       102.1833 
 223   0.0000       3.775879       102.7469 
 224   0.0000       3.790841       103.1540 
 225   0.0000       3.809133       103.6518 
 226   0.0000       3.828284       104.1729 
 227   0.0000       3.854116       104.8758 
 228   0.0000       3.866713       105.2186 
 229   0.0000       3.867847       105.2495 
 230   0.0000       3.913165       106.4826 
 231   0.0000       3.930915       106.9656 
 232   0.0000       3.947215       107.4092 
 233   0.0000       3.952078       107.5415 
 234   0.0000       3.965993       107.9201 
 235   0.0000       3.984818       108.4324 
 236   0.0000       3.999951       108.8442 
 237   0.0000       4.010321       109.1264 
 238   0.0000       4.025266       109.5331 
 239   0.0000       4.033670       109.7617 
 240   0.0000       4.051023       110.2339 
 241   0.0000       4.076334       110.9227 
 242   0.0000       4.092123       111.3523 
 243   0.0000       4.096035       111.4588 
 244   0.0000       4.113903       111.9450 
 245   0.0000       4.122135       112.1690 
 246   0.0000       4.137335       112.5826 
 247   0.0000       4.159797       113.1938 
 248   0.0000       4.164194       113.3135 
 249   0.0000       4.201026       114.3157 
 250   0.0000       4.206983       114.4778 
 251   0.0000       4.223798       114.9354 
 252   0.0000       4.231292       115.1393 
 253   0.0000       4.248524       115.6082 
 254   0.0000       4.287779       116.6764 
 255   0.0000       4.305840       117.1679 
 256   0.0000       4.311492       117.3217 
 257   0.0000       4.326782       117.7377 
 258   0.0000       4.333428       117.9186 
 259   0.0000       4.337370       118.0258 
 260   0.0000       4.344982       118.2330 
 261   0.0000       4.359294       118.6224 
 262   0.0000       4.363484       118.7364 
 263   0.0000       4.379417       119.1700 
 264   0.0000       4.402639       119.8019 
 265   0.0000       4.421514       120.3155 
 266   0.0000       4.433742       120.6482 
 267   0.0000       4.454091       121.2020 
 268   0.0000       4.458659       121.3263 
 269   0.0000       4.476078       121.8003 
 270   0.0000       4.500760       122.4719 
 271   0.0000       4.517041       122.9149 
 272   0.0000       4.530429       123.2793 
 273   0.0000       4.545963       123.7019 
 274   0.0000       4.553557       123.9086 
 275   0.0000       4.580716       124.6476 
 276   0.0000       4.593689       125.0006 
 277   0.0000       4.615326       125.5894 
 278   0.0000       4.616065       125.6095 
 279   0.0000       4.630572       126.0043 
 280   0.0000       4.639757       126.2542 
 281   0.0000       4.646279       126.4317 
 282   0.0000       4.650687       126.5516 
 283   0.0000       4.675809       127.2352 
 284   0.0000       4.713855       128.2705 
 285   0.0000       4.718049       128.3846 
 286   0.0000       4.756987       129.4442 
 287   0.0000       4.810043       130.8879 
 288   0.0000       4.821709       131.2054 
 289   0.0000       4.863171       132.3336 
 290   0.0000       4.866345       132.4200 
 291   0.0000       4.890842       133.0866 
 292   0.0000       4.976241       135.4104 
 293   0.0000       4.983825       135.6168 
 294   0.0000       5.042082       137.2020 
 295   0.0000       5.073815       138.0655 
 296   0.0000       5.083156       138.3197 
 297   0.0000       5.092183       138.5653 
 298   0.0000       5.122480       139.3898 
 299   0.0000       5.128081       139.5422 
 300   0.0000       5.154488       140.2607 
 301   0.0000       5.179108       140.9307 
 302   0.0000       5.184997       141.0909 
 303   0.0000       5.256362       143.0329 
 304   0.0000       5.278218       143.6276 
 305   0.0000       5.281060       143.7049 
 306   0.0000       5.304813       144.3513 
 307   0.0000       5.333918       145.1433 
 308   0.0000       5.348236       145.5329 
 309   0.0000       5.362754       145.9279 
 310   0.0000       5.378707       146.3621 
 311   0.0000       5.379637       146.3874 
 312   0.0000       5.400246       146.9482 
 313   0.0000       5.420886       147.5098 
 314   0.0000       5.422078       147.5422 
 315   0.0000       5.450520       148.3162 
 316   0.0000       5.468936       148.8173 
 317   0.0000       5.504765       149.7923 
 318   0.0000       5.586353       152.0124 
 319   0.0000       5.628380       153.1560 
 320   0.0000       5.637027       153.3913 
 321   0.0000       5.649113       153.7202 
 322   0.0000       5.657327       153.9437 
 323   0.0000       5.678592       154.5224 
 324   0.0000       5.716824       155.5627 
 325   0.0000       5.751271       156.5000 
 326   0.0000       5.765985       156.9004 
 327   0.0000       5.806022       157.9899 
 328   0.0000       5.811330       158.1343 
 329   0.0000       5.819742       158.3632 
 330   0.0000       5.843518       159.0102 
 331   0.0000       5.860488       159.4720 
 332   0.0000       5.897657       160.4834 
 333   0.0000       5.912478       160.8867 
 334   0.0000       5.971382       162.4896 
 335   0.0000       5.973216       162.5395 
 336   0.0000       6.098560       165.9502 
 337   0.0000       6.104143       166.1022 
 338   0.0000       6.149578       167.3385 
 339   0.0000       6.372583       173.4068 
 340   0.0000       6.375936       173.4980 
 341   0.0000       6.396332       174.0531 
 342   0.0000       6.463424       175.8787 
 343   0.0000       6.470452       176.0699 
 344   0.0000       6.599849       179.5910 
 345   0.0000       7.461989       203.0510 
 346   0.0000       7.463807       203.1005 
 347   0.0000       7.553926       205.5528 
 348   0.0000       7.591564       206.5770 
 349   0.0000       7.784929       211.8387 
 350   0.0000       7.798624       212.2113 
 351   0.0000       7.899084       214.9450 
 352   0.0000       9.067715       246.7451 
 353   0.0000       9.092860       247.4293 
 354   0.0000       9.510591       258.7963 
 355   0.0000       9.535943       259.4862 
 356   0.0000       9.627398       261.9748 
 357   0.0000      12.048119       327.8460 
 358   0.0000      12.723010       346.2107 
 359   0.0000      12.931154       351.8746 
 360   0.0000      13.187392       358.8472 
 361   0.0000      13.505464       367.5024 
 362   0.0000      13.564387       369.1057 
 363   0.0000      13.591495       369.8434 

                    ********************************
                    * MULLIKEN POPULATION ANALYSIS *
                    ********************************

-----------------------
MULLIKEN ATOMIC CHARGES
-----------------------
   0 C :   -0.207022
   1 C :    0.221121
   2 C :   -0.207032
   3 C :   -0.194250
   4 C :   -0.199435
   5 C :   -0.194247
   6 F :   -0.351251
   7 H :    0.113056
   8 H :    0.090651
   9 H :    0.110047
  10 H :    0.084207
  11 H :    0.110691
  12 H :    0.105514
  13 H :    0.110045
  14 H :    0.102103
  15 H :    0.090644
  16 H :    0.113051
  17 H :    0.102107
Sum of atomic charges:    0.0000000

--------------------------------
MULLIKEN REDUCED ORBITAL CHARGES
--------------------------------
  0 C s       :     3.213054  s :     3.213054
      pz      :     0.984344  p :     2.883399
      px      :     0.937653
      py      :     0.961402
      dz2     :     0.034175  d :     0.104061
      dxz     :     0.013480
      dyz     :     0.005195
      dx2y2   :     0.018343
      dxy     :     0.032868
      f0      :     0.001016  f :     0.006508
      f+1     :     0.001192
      f-1     :     0.000432
      f+2     :     0.000628
      f-2     :     0.000624
      f+3     :     0.001481
      f-3     :     0.001135
  1 C s       :     3.119609  s :     3.119609
      pz      :     0.618503  p :     2.447108
      px      :     0.915308
      py      :     0.913298
      dz2     :     0.041877  d :     0.195371
      dxz     :     0.056078
      dyz     :     0.037225
      dx2y2   :     0.030268
      dxy     :     0.029923
      f0      :     0.003813  f :     0.016791
      f+1     :     0.003195
      f-1     :     0.003177
      f+2     :     0.001584
      f-2     :     0.001907
      f+3     :     0.001592
      f-3     :     0.001523
  2 C s       :     3.213055  s :     3.213055
      pz      :     0.984346  p :     2.883408
      px      :     0.937659
      py      :     0.961404
      dz2     :     0.034175  d :     0.104061
      dxz     :     0.013480
      dyz     :     0.005196
      dx2y2   :     0.018342
      dxy     :     0.032868
      f0      :     0.001016  f :     0.006508
      f+1     :     0.001192
      f-1     :     0.000432
      f+2     :     0.000628
      f-2     :     0.000624
      f+3     :     0.001481
      f-3     :     0.001134
  3 C s       :     3.212762  s :     3.212762
      pz      :     0.987082  p :     2.860712
      px      :     0.914874
      py      :     0.958756
      dz2     :     0.033119  d :     0.114145
      dxz     :     0.020435
      dyz     :     0.009741
      dx2y2   :     0.020566
      dxy     :     0.030283
      f0      :     0.001073  f :     0.006632
      f+1     :     0.001161
      f-1     :     0.000408
      f+2     :     0.000712
      f-2     :     0.000769
      f+3     :     0.001439
      f-3     :     0.001071
  4 C s       :     3.217846  s :     3.217846
      pz      :     1.008748  p :     2.860695
      px      :     0.969757
      py      :     0.882190
      dz2     :     0.023422  d :     0.114223
      dxz     :     0.027687
      dyz     :     0.014371
      dx2y2   :     0.024966
      dxy     :     0.023777
      f0      :     0.000980  f :     0.006671
      f+1     :     0.001014
      f-1     :     0.000697
      f+2     :     0.000308
      f-2     :     0.000810
      f+3     :     0.001541
      f-3     :     0.001321
  5 C s       :     3.212762  s :     3.212762
      pz      :     0.987082  p :     2.860707
      px      :     0.914872
      py      :     0.958753
      dz2     :     0.033120  d :     0.114145
      dxz     :     0.020435
      dyz     :     0.009741
      dx2y2   :     0.020567
      dxy     :     0.030283
      f0      :     0.001073  f :     0.006632
      f+1     :     0.001161
      f-1     :     0.000408
      f+2     :     0.000712
      f-2     :     0.000769
      f+3     :     0.001439
      f-3     :     0.001071
  6 F s       :     3.915182  s :     3.915182
      pz      :     1.595688  p :     5.423777
      px      :     1.883759
      py      :     1.944329
      dz2     :     0.005007  d :     0.011773
      dxz     :     0.003985
      dyz     :     0.001887
      dx2y2   :     0.000439
      dxy     :     0.000455
      f0      :     0.000161  f :     0.000518
      f+1     :     0.000209
      f-1     :     0.000060
      f+2     :     0.000043
      f-2     :     0.000039
      f+3     :     0.000003
      f-3     :     0.000004
  7 H s       :     0.854514  s :     0.854514
      pz      :     0.007520  p :     0.029911
      px      :     0.009826
      py      :     0.012565
      dz2     :     0.000330  d :     0.002518
      dxz     :     0.000259
      dyz     :     0.000388
      dx2y2   :     0.000923
      dxy     :     0.000617
  8 H s       :     0.877964  s :     0.877964
      pz      :     0.012103  p :     0.028940
      px      :     0.008417
      py      :     0.008420
      dz2     :     0.000762  d :     0.002444
      dxz     :     0.000830
      dyz     :     0.000697
      dx2y2   :     0.000028
      dxy     :     0.000126
  9 H s       :     0.858817  s :     0.858817
      pz      :     0.007199  p :     0.028699
      px      :     0.009720
      py      :     0.011781
      dz2     :     0.000297  d :     0.002437
      dxz     :     0.000233
      dyz     :     0.000399
      dx2y2   :     0.000887
      dxy     :     0.000622
 10 H s       :     0.885584  s :     0.885584
      pz      :     0.009660  p :     0.027793
      px      :     0.009314
      py      :     0.008819
      dz2     :     0.000604  d :     0.002416
      dxz     :     0.000729
      dyz     :     0.000788
      dx2y2   :     0.000071
      dxy     :     0.000225
 11 H s       :     0.858271  s :     0.858271
      pz      :     0.007080  p :     0.028600
      px      :     0.012405
      py      :     0.009115
      dz2     :     0.000529  d :     0.002438
      dxz     :     0.000487
      dyz     :     0.000257
      dx2y2   :     0.000387
      dxy     :     0.000779
 12 H s       :     0.859716  s :     0.859716
      pz      :     0.009574  p :     0.032353
      px      :     0.011875
      py      :     0.010904
      dz2     :     0.000294  d :     0.002418
      dxz     :     0.000687
      dyz     :     0.000289
      dx2y2   :     0.000293
      dxy     :     0.000854
 13 H s       :     0.858819  s :     0.858819
      pz      :     0.007198  p :     0.028698
      px      :     0.009719
      py      :     0.011780
      dz2     :     0.000297  d :     0.002437
      dxz     :     0.000233
      dyz     :     0.000399
      dx2y2   :     0.000887
      dxy     :     0.000622
 14 H s       :     0.866832  s :     0.866832
      pz      :     0.012116  p :     0.028612
      px      :     0.008693
      py      :     0.007804
      dz2     :     0.000787  d :     0.002452
      dxz     :     0.000820
      dyz     :     0.000686
      dx2y2   :     0.000031
      dxy     :     0.000128
 15 H s       :     0.877971  s :     0.877971
      pz      :     0.012103  p :     0.028940
      px      :     0.008417
      py      :     0.008420
      dz2     :     0.000762  d :     0.002444
      dxz     :     0.000830
      dyz     :     0.000697
      dx2y2   :     0.000028
      dxy     :     0.000126
 16 H s       :     0.854519  s :     0.854519
      pz      :     0.007520  p :     0.029911
      px      :     0.009826
      py      :     0.012565
      dz2     :     0.000330  d :     0.002518
      dxz     :     0.000259
      dyz     :     0.000388
      dx2y2   :     0.000923
      dxy     :     0.000617
 17 H s       :     0.866828  s :     0.866828
      pz      :     0.012116  p :     0.028613
      px      :     0.008693
      py      :     0.007804
      dz2     :     0.000787  d :     0.002452
      dxz     :     0.000820
      dyz     :     0.000686
      dx2y2   :     0.000031
      dxy     :     0.000128


                     *******************************
                     * LOEWDIN POPULATION ANALYSIS *
                     *******************************

----------------------
LOEWDIN ATOMIC CHARGES
----------------------
   0 C :    0.056416
   1 C :   -0.097811
   2 C :    0.056428
   3 C :    0.061687
   4 C :    0.057339
   5 C :    0.061680
   6 F :    0.064205
   7 H :   -0.020176
   8 H :   -0.019759
   9 H :   -0.026559
  10 H :   -0.028363
  11 H :   -0.025939
  12 H :   -0.027718
  13 H :   -0.026555
  14 H :   -0.022476
  15 H :   -0.019754
  16 H :   -0.020168
  17 H :   -0.022475

-------------------------------
LOEWDIN REDUCED ORBITAL CHARGES
-------------------------------
  0 C s       :     2.662137  s :     2.662137
      pz      :     0.956243  p :     2.830968
      px      :     0.937282
      py      :     0.937443
      dz2     :     0.116392  d :     0.411163
      dxz     :     0.067004
      dyz     :     0.028635
      dx2y2   :     0.074773
      dxy     :     0.124359
      f0      :     0.004926  f :     0.039316
      f+1     :     0.006052
      f-1     :     0.003727
      f+2     :     0.004899
      f-2     :     0.005388
      f+3     :     0.006885
      f-3     :     0.007439
  1 C s       :     2.698022  s :     2.698022
      pz      :     0.706912  p :     2.624218
      px      :     0.943786
      py      :     0.973519
      dz2     :     0.159163  d :     0.676442
      dxz     :     0.178578
      dyz     :     0.109273
      dx2y2   :     0.110717
      dxy     :     0.118711
      f0      :     0.022882  f :     0.099129
      f+1     :     0.019410
      f-1     :     0.017474
      f+2     :     0.011206
      f-2     :     0.011491
      f+3     :     0.006268
      f-3     :     0.010398
  2 C s       :     2.662136  s :     2.662136
      pz      :     0.956245  p :     2.830966
      px      :     0.937280
      py      :     0.937441
      dz2     :     0.116392  d :     0.411155
      dxz     :     0.067003
      dyz     :     0.028635
      dx2y2   :     0.074769
      dxy     :     0.124355
      f0      :     0.004926  f :     0.039315
      f+1     :     0.006052
      f-1     :     0.003727
      f+2     :     0.004899
      f-2     :     0.005389
      f+3     :     0.006885
      f-3     :     0.007438
  3 C s       :     2.658732  s :     2.658732
      pz      :     0.960117  p :     2.821393
      px      :     0.923759
      py      :     0.937517
      dz2     :     0.112490  d :     0.418517
      dxz     :     0.076932
      dyz     :     0.037478
      dx2y2   :     0.077529
      dxy     :     0.114088
      f0      :     0.005291  f :     0.039671
      f+1     :     0.006051
      f-1     :     0.003621
      f+2     :     0.005541
      f-2     :     0.006009
      f+3     :     0.006361
      f-3     :     0.006796
  4 C s       :     2.660421  s :     2.660421
      pz      :     0.969024  p :     2.820468
      px      :     0.939225
      py      :     0.912218
      dz2     :     0.080610  d :     0.422067
      dxz     :     0.093315
      dyz     :     0.052144
      dx2y2   :     0.099564
      dxy     :     0.096434
      f0      :     0.004881  f :     0.039706
      f+1     :     0.003740
      f-1     :     0.004992
      f+2     :     0.004921
      f-2     :     0.005775
      f+3     :     0.006375
      f-3     :     0.009022
  5 C s       :     2.658731  s :     2.658731
      pz      :     0.960117  p :     2.821393
      px      :     0.923760
      py      :     0.937516
      dz2     :     0.112492  d :     0.418523
      dxz     :     0.076932
      dyz     :     0.037479
      dx2y2   :     0.077531
      dxy     :     0.114090
      f0      :     0.005291  f :     0.039672
      f+1     :     0.006051
      f-1     :     0.003621
      f+2     :     0.005542
      f-2     :     0.006009
      f+3     :     0.006361
      f-3     :     0.006797
  6 F s       :     3.624485  s :     3.624485
      pz      :     1.594358  p :     5.287516
      px      :     1.821759
      py      :     1.871399
      dz2     :     0.008705  d :     0.022842
      dxz     :     0.007525
      dyz     :     0.004817
      dx2y2   :     0.000718
      dxy     :     0.001078
      f0      :     0.000294  f :     0.000953
      f+1     :     0.000287
      f-1     :     0.000165
      f+2     :     0.000079
      f-2     :     0.000113
      f+3     :     0.000005
      f-3     :     0.000011
  7 H s       :     0.839734  s :     0.839734
      pz      :     0.040004  p :     0.152190
      px      :     0.050729
      py      :     0.061458
      dz2     :     0.003486  d :     0.028251
      dxz     :     0.003581
      dyz     :     0.005221
      dx2y2   :     0.008662
      dxy     :     0.007302
  8 H s       :     0.840068  s :     0.840068
      pz      :     0.071735  p :     0.151562
      px      :     0.040960
      py      :     0.038868
      dz2     :     0.009460  d :     0.028129
      dxz     :     0.008869
      dyz     :     0.008315
      dx2y2   :     0.000378
      dxy     :     0.001107
  9 H s       :     0.845185  s :     0.845185
      pz      :     0.041010  p :     0.153330
      px      :     0.049430
      py      :     0.062890
      dz2     :     0.003298  d :     0.028044
      dxz     :     0.003265
      dyz     :     0.005622
      dx2y2   :     0.008485
      dxy     :     0.007375
 10 H s       :     0.848657  s :     0.848657
      pz      :     0.070148  p :     0.151766
      px      :     0.042471
      py      :     0.039148
      dz2     :     0.009013  d :     0.027940
      dxz     :     0.008970
      dyz     :     0.007627
      dx2y2   :     0.000719
      dxy     :     0.001611
 11 H s       :     0.845115  s :     0.845115
      pz      :     0.051011  p :     0.152840
      px      :     0.061967
      py      :     0.039862
      dz2     :     0.007129  d :     0.027984
      dxz     :     0.006953
      dyz     :     0.002668
      dx2y2   :     0.004726
      dxy     :     0.006508
 12 H s       :     0.856112  s :     0.856112
      pz      :     0.042593  p :     0.144497
      px      :     0.061932
      py      :     0.039972
      dz2     :     0.004966  d :     0.027108
      dxz     :     0.007993
      dyz     :     0.003099
      dx2y2   :     0.004175
      dxy     :     0.006876
 13 H s       :     0.845185  s :     0.845185
      pz      :     0.041010  p :     0.153327
      px      :     0.049429
      py      :     0.062888
      dz2     :     0.003298  d :     0.028043
      dxz     :     0.003265
      dyz     :     0.005622
      dx2y2   :     0.008484
      dxy     :     0.007374
 14 H s       :     0.841002  s :     0.841002
      pz      :     0.072756  p :     0.153225
      px      :     0.042086
      py      :     0.038384
      dz2     :     0.009587  d :     0.028250
      dxz     :     0.008827
      dyz     :     0.008305
      dx2y2   :     0.000373
      dxy     :     0.001158
 15 H s       :     0.840067  s :     0.840067
      pz      :     0.071734  p :     0.151559
      px      :     0.040959
      py      :     0.038866
      dz2     :     0.009460  d :     0.028128
      dxz     :     0.008868
      dyz     :     0.008314
      dx2y2   :     0.000378
      dxy     :     0.001107
 16 H s       :     0.839734  s :     0.839734
      pz      :     0.040002  p :     0.152184
      px      :     0.050726
      py      :     0.061456
      dz2     :     0.003485  d :     0.028250
      dxz     :     0.003581
      dyz     :     0.005220
      dx2y2   :     0.008661
      dxy     :     0.007302
 17 H s       :     0.841001  s :     0.841001
      pz      :     0.072755  p :     0.153224
      px      :     0.042085
      py      :     0.038384
      dz2     :     0.009587  d :     0.028250
      dxz     :     0.008827
      dyz     :     0.008305
      dx2y2   :     0.000373
      dxy     :     0.001158


                      *****************************
                      * MAYER POPULATION ANALYSIS *
                      *****************************

  NA   - Mulliken gross atomic population
  ZA   - Total nuclear charge
  QA   - Mulliken gross atomic charge
  VA   - Mayer's total valence
  BVA  - Mayer's bonded valence
  FA   - Mayer's free valence

  ATOM       NA         ZA         QA         VA         BVA        FA
  0 C      6.2070     6.0000    -0.2070     3.8608     3.8608    -0.0000
  1 C      5.7789     6.0000     0.2211     3.8481     3.8481     0.0000
  2 C      6.2070     6.0000    -0.2070     3.8608     3.8608     0.0000
  3 C      6.1943     6.0000    -0.1943     3.8615     3.8615    -0.0000
  4 C      6.1994     6.0000    -0.1994     3.8729     3.8729     0.0000
  5 C      6.1942     6.0000    -0.1942     3.8615     3.8615    -0.0000
  6 F      9.3513     9.0000    -0.3513     0.9180     0.9180     0.0000
  7 H      0.8869     1.0000     0.1131     0.9873     0.9873    -0.0000
  8 H      0.9093     1.0000     0.0907     0.9863     0.9863     0.0000
  9 H      0.8900     1.0000     0.1100     0.9785     0.9785    -0.0000
 10 H      0.9158     1.0000     0.0842     0.9838     0.9838    -0.0000
 11 H      0.8893     1.0000     0.1107     0.9788     0.9788     0.0000
 12 H      0.8945     1.0000     0.1055     0.9884     0.9884     0.0000
 13 H      0.8900     1.0000     0.1100     0.9785     0.9785    -0.0000
 14 H      0.8979     1.0000     0.1021     0.9885     0.9885    -0.0000
 15 H      0.9094     1.0000     0.0906     0.9863     0.9863     0.0000
 16 H      0.8869     1.0000     0.1131     0.9873     0.9873    -0.0000
 17 H      0.8979     1.0000     0.1021     0.9885     0.9885    -0.0000

  Mayer bond orders larger than 0.1
B(  0-C ,  1-C ) :   0.9635 B(  0-C ,  5-C ) :   0.9460 B(  0-C , 15-H ) :   0.9771 
B(  0-C , 16-H ) :   0.9896 B(  1-C ,  2-C ) :   0.9635 B(  1-C ,  6-F ) :   0.9000 
B(  1-C , 12-H ) :   1.0066 B(  2-C ,  3-C ) :   0.9460 B(  2-C ,  7-H ) :   0.9896 
B(  2-C ,  8-H ) :   0.9771 B(  3-C ,  4-C ) :   0.9498 B(  3-C ,  9-H ) :   0.9943 
B(  3-C , 17-H ) :   0.9799 B(  4-C ,  5-C ) :   0.9498 B(  4-C , 10-H ) :   0.9852 
B(  4-C , 11-H ) :   0.9938 B(  5-C , 13-H ) :   0.9943 B(  5-C , 14-H ) :   0.9799 


-------
TIMINGS
-------

Total SCF time: 0 days 0 hours 0 min 17 sec 

Total time                  ....      17.014 sec
Sum of individual times     ....      16.706 sec  ( 98.2%)

Fock matrix formation       ....      15.918 sec  ( 93.6%)
Diagonalization             ....       0.119 sec  (  0.7%)
Density matrix formation    ....       0.015 sec  (  0.1%)
Population analysis         ....       0.069 sec  (  0.4%)
Initial guess               ....       0.285 sec  (  1.7%)
Orbital Transformation      ....       0.000 sec  (  0.0%)
Orbital Orthonormalization  ....       0.000 sec  (  0.0%)
DIIS solution               ....       0.000 sec  (  0.0%)
SOSCF solution              ....       0.121 sec  (  0.7%)


           ************************************************************
           *        Program running with 8 parallel MPI-processes     *
           *              working on a common directory               *
           ************************************************************


------------------------------------------------------------------------------- 
                              ORCA-MATRIX DRIVEN CI                            
------------------------------------------------------------------------------- 


Wavefunction type
-----------------
Correlation treatment                      ...      CCSD     
Single excitations                         ... ON
Orbital optimization                       ... OFF
Calculation of Z vector                    ... OFF
Calculation of Brueckner orbitals          ... OFF
Perturbative triple excitations            ... ON
Calculation of F12 correction              ... OFF
Frozen core treatment                      ... chemical core (14 el)
Reference Wavefunction                     ... RHF
  Internal Orbitals:     7 ...   27 ( 21 MO's/ 42 electrons)
  Virtual  Orbitals:    28 ...  363 (336 MO's              )
Number of AO's                             ...    364
Number of electrons                        ...     56
Number of correlated electrons             ...     42

Algorithmic settings
--------------------
Integral transformation                    ... All integrals via the RI transformation
K(C) Formation                             ... RI-DLPNO
   PNO-Integral Storage                    ... ON DISK
   PNO occupation number cut-off           ... 1.000e-07
   Singles PNO occupation number cut-off   ... 3.000e-09
   PNO Mulliken prescreening cut-off       ... 1.000e-03
   Domain cut-off (Mulliken population)    ... 1.000e-03
   PNO Normalization                       ...    1
Maximum number of iterations               ...        50
Convergence tolerance (max. residuum)      ... 1.000e-05
Level shift for amplitude update           ... 2.000e-01
Maximum number of DIIS vectors             ...         7
DIIS turned on at iteration                ...         0
Damping before turning on DIIS             ...     0.500
Damping after turning on DIIS              ...     0.000
Pair specific amplitude update             ... OFF
Natural orbital iterations                 ... OFF
Perturbative natural orbital generation    ... OFF
Printlevel                                 ... 2

Singles Fock matrix elements calculated using PNOs.

Memory handling:
----------------
Maximum memory for working arrays          ...   8000 MB
Data storage in matrix containers          ... UNCOMPRESSED
Data type for integral storage             ... DOUBLE
In-Core Storage of quantities:
   Amplitudes+Sigma Vector      ... NO
   J+K operators                ... NO
   DIIS vectors                 ... NO
   3-external integrals         ... NO
   4-external integrals         ... NO

Localization treatment:
-----------------------
Localization option                        ...    6
Localization threshhold                    ... -1.0e+00
Using relative localization threshhold     ... 1.0e-08
Neglect threshold for strong pairs         ... 1.000e-05 Eh
Prescreening threshold for very weak pairs ... 1.000e-07 Eh

Initializing the integral package          ... done
Localizing the valence orbitals
------------------------------------------------------------------------------
                           ORCA ORBITAL LOCALIZATION
------------------------------------------------------------------------------

Input orbitals are from                  ... fluorocyclohexane_ax.proc0.gbw
Output orbitals are to                   ... fluorocyclohexane_ax.proc0.loc
Max. number of iterations                ... 128
Localizations seeded randomly            ... off
Convergence tolerance                    ... 1.000e-06
Using relative localization threshhold   ... 1.000e-08
Treshold for strong local MOs            ... 9.500e-01
Treshold for bond MOs                    ... 8.500e-01
Operator                                 ... 0
Orbital range for localization           ... 7 to 27
Localization criterion                   ... FOSTER-BOYS (AUGMENTED HESSIAN)
Doing the dipole integrals     ... o.k.
Initial value of the localization sum :   188.160344
ITERATION   0 : L=  249.2479129011 DL=  6.11e+01 (AVERGE_DL)=    0.5393451428 
ITERATION   1 : L=  255.8628735025 DL=  6.61e+00 (AVERGE_DL)=    0.1774818650 
ITERATION   2 : L=  256.0064440407 DL=  1.44e-01 (AVERGE_DL)=    0.0261470692 
ITERATION   3 : L=  256.0066799197 DL=  2.36e-04 (AVERGE_DL)=    0.0010598272 
ITERATION   4 : L=  256.0068268748 DL=  1.47e-04 (AVERGE_DL)=    0.0008365321 
ITERATION   5 : L=  256.0069796847 DL=  1.53e-04 (AVERGE_DL)=    0.0008530335 
ITERATION   6 : L=  256.0071303423 DL=  1.51e-04 (AVERGE_DL)=    0.0008470049 
ITERATION   7 : L=  256.0072762657 DL=  1.46e-04 (AVERGE_DL)=    0.0008335908 
ITERATION   8 : L=  256.0074164893 DL=  1.40e-04 (AVERGE_DL)=    0.0008171482 
ITERATION   9 : L=  256.0075506781 DL=  1.34e-04 (AVERGE_DL)=    0.0007993712 
ITERATION  10 : L=  256.0076786641 DL=  1.28e-04 (AVERGE_DL)=    0.0007806775 
ITERATION  11 : L=  256.0078003747 DL=  1.22e-04 (AVERGE_DL)=    0.0007612976 
ITERATION  12 : L=  256.0079157884 DL=  1.15e-04 (AVERGE_DL)=    0.0007413429 
ITERATION  13 : L=  256.0080249425 DL=  1.09e-04 (AVERGE_DL)=    0.0007209586 
ITERATION  14 : L=  256.0081279133 DL=  1.03e-04 (AVERGE_DL)=    0.0007002410 
ITERATION  15 : L=  256.0082248245 DL=  9.69e-05 (AVERGE_DL)=    0.0006793245 
ITERATION  16 : L=  256.0083158249 DL=  9.10e-05 (AVERGE_DL)=    0.0006582821 
ITERATION  17 : L=  256.0084010992 DL=  8.53e-05 (AVERGE_DL)=    0.0006372347 
ITERATION  18 : L=  256.0084808476 DL=  7.97e-05 (AVERGE_DL)=    0.0006162420 
ITERATION  19 : L=  256.0085552968 DL=  7.44e-05 (AVERGE_DL)=    0.0005954160 
ITERATION  20 : L=  256.0086246766 DL=  6.94e-05 (AVERGE_DL)=    0.0005747867 
ITERATION  21 : L=  256.0086892316 DL=  6.46e-05 (AVERGE_DL)=    0.0005544410 
ITERATION  22 : L=  256.0087492067 DL=  6.00e-05 (AVERGE_DL)=    0.0005344117 
ITERATION  23 : L=  256.0088048521 DL=  5.56e-05 (AVERGE_DL)=    0.0005147600 
ITERATION  24 : L=  256.0088564151 DL=  5.16e-05 (AVERGE_DL)=    0.0004955181 
ITERATION  25 : L=  256.0089041382 DL=  4.77e-05 (AVERGE_DL)=    0.0004767106 
ITERATION  26 : L=  256.0089482598 DL=  4.41e-05 (AVERGE_DL)=    0.0004583698 
ITERATION  27 : L=  256.0089890107 DL=  4.08e-05 (AVERGE_DL)=    0.0004405129 
ITERATION  28 : L=  256.0090266152 DL=  3.76e-05 (AVERGE_DL)=    0.0004231657 
ITERATION  29 : L=  256.0090612844 DL=  3.47e-05 (AVERGE_DL)=    0.0004063147 
ITERATION  30 : L=  256.0090932248 DL=  3.19e-05 (AVERGE_DL)=    0.0003899963 
ITERATION  31 : L=  256.0091226281 DL=  2.94e-05 (AVERGE_DL)=    0.0003741866 
ITERATION  32 : L=  256.0091496789 DL=  2.71e-05 (AVERGE_DL)=    0.0003589055 
ITERATION  33 : L=  256.0091745502 DL=  2.49e-05 (AVERGE_DL)=    0.0003441434 
ITERATION  34 : L=  256.0091974057 DL=  2.29e-05 (AVERGE_DL)=    0.0003299029 
ITERATION  35 : L=  256.0092183961 DL=  2.10e-05 (AVERGE_DL)=    0.0003161554 
ITERATION  36 : L=  256.0092376665 DL=  1.93e-05 (AVERGE_DL)=    0.0003029256 
ITERATION  37 : L=  256.0092553479 DL=  1.77e-05 (AVERGE_DL)=    0.0002901673 
ITERATION  38 : L=  256.0092715673 DL=  1.62e-05 (AVERGE_DL)=    0.0002779119 
ITERATION  39 : L=  256.0092864387 DL=  1.49e-05 (AVERGE_DL)=    0.0002661139 
ITERATION  40 : L=  256.0093000733 DL=  1.36e-05 (AVERGE_DL)=    0.0002548071 
ITERATION  41 : L=  256.0093125635 DL=  1.25e-05 (AVERGE_DL)=    0.0002438787 
ITERATION  42 : L=  256.0093240074 DL=  1.14e-05 (AVERGE_DL)=    0.0002334411 
ITERATION  43 : L=  256.0093344890 DL=  1.05e-05 (AVERGE_DL)=    0.0002234108 
ITERATION  44 : L=  256.0093440878 DL=  9.60e-06 (AVERGE_DL)=    0.0002137962 
ITERATION  45 : L=  256.0093528729 DL=  8.79e-06 (AVERGE_DL)=    0.0002045331 
ITERATION  46 : L=  256.0093609146 DL=  8.04e-06 (AVERGE_DL)=    0.0001956884 
ITERATION  47 : L=  256.0093682754 DL=  7.36e-06 (AVERGE_DL)=    0.0001872201 
ITERATION  48 : L=  256.0093750078 DL=  6.73e-06 (AVERGE_DL)=    0.0001790504 
ITERATION  49 : L=  256.0093811696 DL=  6.16e-06 (AVERGE_DL)=    0.0001712941 
ITERATION  50 : L=  256.0093868042 DL=  5.63e-06 (AVERGE_DL)=    0.0001638039 
ITERATION  51 : L=  256.0093919593 DL=  5.16e-06 (AVERGE_DL)=    0.0001566769 
ITERATION  52 : L=  256.0093966721 DL=  4.71e-06 (AVERGE_DL)=    0.0001498067 
ITERATION  53 : L=  256.0094009831 DL=  4.31e-06 (AVERGE_DL)=    0.0001432788 
ITERATION  54 : L=  256.0094049238 DL=  3.94e-06 (AVERGE_DL)=    0.0001369852 
ITERATION  55 : L=  256.0094085285 DL=  3.60e-06 (AVERGE_DL)=    0.0001310161 
ITERATION  56 : L=  256.0094118221 DL=  3.29e-06 (AVERGE_DL)=    0.0001252359 
ITERATION  57 : L=  256.0094148346 DL=  3.01e-06 (AVERGE_DL)=    0.0001197704 
ITERATION  58 : L=  256.0094175865 DL=  2.75e-06 (AVERGE_DL)=    0.0001144750 
ITERATION  59 : L=  256.0094201031 DL=  2.52e-06 (AVERGE_DL)=    0.0001094694 
ITERATION  60 : L=  256.0094224023 DL=  2.30e-06 (AVERGE_DL)=    0.0001046359 
ITERATION  61 : L=  256.0094245044 DL=  2.10e-06 (AVERGE_DL)=    0.0001000503 
ITERATION  62 : L=  256.0094264251 DL=  1.92e-06 (AVERGE_DL)=    0.0000956349 
ITERATION  63 : L=  256.0094281806 DL=  1.76e-06 (AVERGE_DL)=    0.0000914306 
ITERATION  64 : L=  256.0094297848 DL=  1.60e-06 (AVERGE_DL)=    0.0000874023 
ITERATION  65 : L=  256.0094312513 DL=  1.47e-06 (AVERGE_DL)=    0.0000835674 
ITERATION  66 : L=  256.0094325911 DL=  1.34e-06 (AVERGE_DL)=    0.0000798741 
ITERATION  67 : L=  256.0094338145 DL=  1.22e-06 (AVERGE_DL)=    0.0000763273 
ITERATION  68 : L=  256.0094349335 DL=  1.12e-06 (AVERGE_DL)=    0.0000729972 
ITERATION  69 : L=  256.0094359558 DL=  1.02e-06 (AVERGE_DL)=    0.0000697703 
ITERATION  70 : L=  256.0094368893 DL=  9.33e-07 (AVERGE_DL)=    0.0000666715 
LOCALIZATION SUM CONVERGED

------------------------------------------------------
AUGMENTED HESSIAN OPTIMIZATION OF FOSTER-BOYS ORBITALS
------------------------------------------------------

Spin operator:           0
Orbital window:          7 to 27
Number of iterations:    128
Gradient tolerance:      1.000e-06
Number of pairs:         210
Davidson threshold:      2000
Diagonalization method:  LAPACK
Iter:    0   L: 256.0094368893   Grad. norm: 1.539355e-03
   *** Likely close to a maximum now. ***
       Augmented Hessian eigenvalues:  1.98e-05 -3.51e-02 -1.50e+00 -1.53e+00 ... 
Iter:    1   L: 256.0094467738   Grad. norm: 1.096336e-04
Iter:    2   L: 256.0094467739   Grad. norm: 1.670523e-10
LOCALIZATION HAS CONVERGED.

Eigenvalues of the Hessian:
  0 -3.519e-02
  1 -1.505e+00
  2 -1.530e+00
  3 -3.640e+00
  4 -3.669e+00
  5 -5.763e+00
  6 -1.758e+01
  7 -1.759e+01
  8 -1.776e+01
  9 -1.778e+01
    ...


------------------------------------------------------------------------------- 
                    LOCALIZED MOLECULAR ORBITAL COMPOSITIONS                   
------------------------------------------------------------------------------- 

The Mulliken populations for each LMO on each atom are computed
The LMO`s will be ordered according to atom index and type
  (A) Strongly localized MO`s have populations of >=0.950 on one atom
  (B) Two center bond orbitals have populations of >=0.850 on two atoms
  (C) Other MO`s are considered to be `delocalized`

FOUND  -   3 strongly local MO`s
       -  18 two center bond MO`s
       -   0 significantly delocalized MO`s

Rather strongly localized orbitals:
MO   9:   6F  -   0.988299
MO   8:   6F  -   0.983981
MO   7:   6F  -   0.983981
Bond-like localized orbitals:
MO  27:  17H  -   0.463898  and   3C  -   0.560918
MO  26:  16H  -   0.457219  and   0C  -   0.571376
MO  25:  15H  -   0.472482  and   0C  -   0.550230
MO  24:  14H  -   0.463901  and   5C  -   0.560916
MO  23:  13H  -   0.462864  and   5C  -   0.571640
MO  22:  12H  -   0.458902  and   1C  -   0.584570
MO  21:  11H  -   0.462106  and   4C  -   0.571424
MO  20:  10H  -   0.476837  and   4C  -   0.551646
MO  19:   9H  -   0.462863  and   3C  -   0.571641
MO  18:   8H  -   0.472478  and   2C  -   0.550234
MO  17:   7H  -   0.457216  and   2C  -   0.571379
MO  16:   6F  -   0.747924  and   1C  -   0.251692
MO  15:   5C  -   0.516412  and   4C  -   0.515059
MO  14:   5C  -   0.504064  and   0C  -   0.520898
MO  13:   4C  -   0.515061  and   3C  -   0.516409
MO  12:   3C  -   0.504064  and   2C  -   0.520897
MO  11:   2C  -   0.514813  and   1C  -   0.520091
MO  10:   1C  -   0.520089  and   0C  -   0.514815
Localized MO's were stored in: fluorocyclohexane_ax.proc0.loc

Localizing the core orbitals
------------------------------------------------------------------------------
                           ORCA ORBITAL LOCALIZATION
------------------------------------------------------------------------------

Input orbitals are from                  ... fluorocyclohexane_ax.proc0.loc
Output orbitals are to                   ... fluorocyclohexane_ax.proc0.loc
Max. number of iterations                ... 128
Localizations seeded randomly            ... off
Convergence tolerance                    ... 1.000e-06
Using relative localization threshhold   ... 1.000e-08
Treshold for strong local MOs            ... 9.500e-01
Treshold for bond MOs                    ... 8.500e-01
Operator                                 ... 0
Orbital range for localization           ... 0 to 6
Localization criterion                   ... FOSTER-BOYS (AUGMENTED HESSIAN)
Doing the dipole integrals     ... o.k.
Initial value of the localization sum :    63.072335
ITERATION   0 : L=   63.0723386809 DL=  3.41e-06 (AVERGE_DL)=    0.0004030647 
ITERATION   1 : L=   63.0723386809 DL=  0.00e+00 (AVERGE_DL)=    0.0000000000 
LOCALIZATION SUM CONVERGED

------------------------------------------------------
AUGMENTED HESSIAN OPTIMIZATION OF FOSTER-BOYS ORBITALS
------------------------------------------------------

Spin operator:           0
Orbital window:          0 to 6
Number of iterations:    128
Gradient tolerance:      1.000e-06
Number of pairs:         21
Davidson threshold:      2000
Diagonalization method:  LAPACK
Iter:    0   L: 63.0723386809   Grad. norm: 3.027285e-06
   *** Likely close to a maximum now. ***
       Augmented Hessian eigenvalues:  8.44e-14 -2.90e+01 -3.33e+01 -3.33e+01 ... 
Iter:    1   L: 63.0723386809   Grad. norm: 5.041138e-20
LOCALIZATION HAS CONVERGED.

Eigenvalues of the Hessian:
  0 -2.901e+01
  1 -3.328e+01
  2 -3.328e+01
  3 -3.375e+01
  4 -3.375e+01
  5 -3.377e+01
  6 -3.377e+01
  7 -8.165e+01
  8 -8.165e+01
  9 -9.193e+01
    ...


------------------------------------------------------------------------------- 
                    LOCALIZED MOLECULAR ORBITAL COMPOSITIONS                   
------------------------------------------------------------------------------- 

The Mulliken populations for each LMO on each atom are computed
The LMO`s will be ordered according to atom index and type
  (A) Strongly localized MO`s have populations of >=0.950 on one atom
  (B) Two center bond orbitals have populations of >=0.850 on two atoms
  (C) Other MO`s are considered to be `delocalized`

FOUND  -   7 strongly local MO`s
       -   0 two center bond MO`s
       -   0 significantly delocalized MO`s

Rather strongly localized orbitals:
MO   6:   6F  -   1.000089
MO   5:   5C  -   1.001480
MO   4:   4C  -   1.001477
MO   3:   3C  -   1.001480
MO   2:   2C  -   1.001473
MO   1:   1C  -   1.001355
MO   0:   0C  -   1.001473
Localized MO's were stored in: fluorocyclohexane_ax.proc0.loc

[...]
   TCutMKN   ...     1.0e-01
   TCutDO    ...     2.0e-02
   TCutCMO   ...     1.0e-03
   TCutCPAO  ...     1.0e-03

--------------------------------
LOCAL RI TRANSFORMATION (IAVPAO)
--------------------------------

Orbital window:       7 to 27
Number of PAOs:     364
Basis functions:    364 (136 shells)
Aux. functions:     897 (271 shells)

Processing maps (0.0 sec)
Average map sizes:
   Aux shells -> MOs              21.0
   Aux shells -> PAOs            364.0
   MOs        -> AO shells       134.9
   PAOs       -> AO shells       136.0

Calculating integrals (0.8 sec, 52.322 MB)
Sorting integrals (0.1 sec, 52.312 MB)
Total time for the integral transformation: 0.9 sec
--------------------------------
INITIAL GUESS AND PNO GENERATION
--------------------------------

PNO truncation parameters                   .... 
    ScaleTCutPNO       =        1.000e-02
    PAOOverlapThresh   =        1.000e-08

    TCutPairs          =        1.000e-05
    TCutPNO            =        1.000e-07
    TCutPNOSingles     =        3.000e-09
    TCutMP2Pairs       =        1.000e-06
    TCutMKN            =        1.000e-03
    TCutDO             =        5.000e-03

Pair selection                          .... not used
Type of local MP2 treatment                 .... full local PMP2
Strategy for PNO selection                  .... occupation number selection
Pair density normalization                  .... MP2 norm
Spin component scaling                      .... not used

PASS-1: Formation of initial guess LMP2 amplitudes
Initial amplitudes guess done. Entering LMP2 iteration loop:
   Max. no of iterations          ...  50
   Energy convergence tolerance   ...    1.0e-07
   Residual convergence tolerance ...    5.0e-07
   Fock matrix cutoff             ...    1.0e-05 Eh
   DIIS convergence acceleration parameters:
        Max # vectors in DIIS     ... 7
        Start iteration of DIIS   ... 0
        Levelshift                ... 2.000e-01
        Damping factor 1          ... 5.000e-01
        Damping factor 2          ... 1.000e+00
   L-MP2 PNO cut-off              ...   1.0e-09
   L-MP2 PNO cut-off (core)       ...   1.0e-11
                           *** Turning on DIIS ***
LMP2-Iter=   0:  ELMP2= -1.267482597221  DE=   2.3e-02 RMAX=   8.4e-03
LMP2-Iter=   1:  ELMP2= -1.278907084766  DE=   1.1e-02 RMAX=   5.2e-03
LMP2-Iter=   2:  ELMP2= -1.280610819580  DE=   1.7e-03 RMAX=   1.1e-03
LMP2-Iter=   3:  ELMP2= -1.280820878159  DE=   2.1e-04 RMAX=   4.9e-04
LMP2-Iter=   4:  ELMP2= -1.280837993523  DE=   1.7e-05 RMAX=   5.7e-05
LMP2-Iter=   5:  ELMP2= -1.280836631347  DE=   1.4e-06 RMAX=   1.9e-05
LMP2-Iter=   6:  ELMP2= -1.280836264735  DE=   3.7e-07 RMAX=   1.5e-06
LMP2-Iter=   7:  ELMP2= -1.280836217970  DE=   4.7e-08 RMAX=   5.2e-07
LMP2-Iter=   8:  ELMP2= -1.280836222970  DE=   5.0e-09 RMAX=   4.2e-08 => CONVERGED
PASS-2: Formation of Pair natural orbitals
   .... Finished loop over pairs

 PNO Occupation Number Statistics: 
  | Av. % of trace(Dij) retained        ...  99.432829359877
  | sigma^2 in % of trace(Dij) retained ...   5.02e-01
  | Av. % of trace(Di) retained         ...  99.999721457600
  | sigma^2 in % of trace(Di) retained  ...   3.83e-09
 Distributions of % trace(Dij) recovered:
  |       >= 99.9  ...    63 ( 27.3 % of all pairs)
  |   [90.0, 99.0) ...    40 ( 17.3 % of all pairs)
  |   [99.0, 99.9) ...   128 ( 55.4 % of all pairs)
 Distributions of % trace(Di) recovered :
  |       >= 99.9  ...    21 (100.0 % of all I-pairs )

Making pair pair interaction lists          ... done

                       ===========================
                        231 OF  231 PAIRS ARE KEPT
                       ===========================

Total time spent in the initial guess                 ...    16.856 sec
L-MP2 correlation energy (all non-screened pairs)     ...      -1.280836222970 Eh
L-MP2 PNO error correction                            ...      -0.000030684695 Eh
                                                          --------------------
Initial total L-MP2 energy (non-screened pairs)       ...      -1.280866907665 Eh

Initial PNO correlation energy                        ...      -1.279562405184 Eh
sum of pair energies estimated for screened out pairs ...       0.000000000000 Eh
sum of MP2 pair energies for pairs that were not kept ...       0.000000000000 Eh
sum of PNO error estimates for the kept pairs         ...      -0.001304502481 Eh
                                                          --------------------
sum of all corrections                                         -0.001304502481
Initial total correlation energy                               -1.280866907665
Thresholds for map construction and integral transformation for fine MP2 and CCSD(T) calculation:
   TCutMKN   ...     1.0e-03
   TCutDO    ...     5.0e-03
   TCutPairs ...     1.0e-05
   TCutCMO   ...     1.0e-03
   TCutCPAO  ...     1.0e-03

Time for aux screen maps:            0.005
Time for maps after fine MP2:            0.016
-----------------------------
LOCAL RI TRANSFORMATION (IJV)
-----------------------------

Orbital window:       7 to 27
Basis functions:    364 (136 shells)
Aux. functions:     897 (271 shells)

Processing maps (0.0 sec)
Average map sizes:
   Aux shells -> MOs(i)           21.0
   Aux shells -> MOs(j)           21.0
   MOs        -> AO shells       134.9

Calculating integrals (0.8 sec, 3.028 MB)
Sorting integrals (0.0 sec, 3.018 MB)
Total time for the integral transformation: 0.8 sec
--------------------------------
LOCAL RI TRANSFORMATION (VABPAO)
--------------------------------

Number of PAOs:     364
Basis functions:    364 (136 shells)
Aux. functions:     897 (271 shells)

Processing maps (0.0 sec)
Average map sizes:
   Aux shells -> PAOs            364.0
   PAOs       -> AO shells       136.0

Calculating integrals (2.4 sec, 1694.228 MB)
Finished


-------------------------------------
Pair Pair Term precalculation with     
RI-(ij|mn) and (im|jn) transformation  
ON THE FLY                             
-------------------------------------

   IBatch   1 (of   2)              ... done (   65.648 sec)
   IBatch   2 (of   2)              ... done (    8.843 sec)
Total EXT                           ...          74.506 sec

---------------------
RI-PNO TRANSFORMATION
---------------------

Total Number of PNOs                   ...  9071
Average number of PNOs per pair        ...    39
Maximal number of PNOs per pair        ...    71
   #pairs with  1 -  5 PNOs   :    0
   #pairs with  6 - 10 PNOs   :   14
   #pairs with 11 - 15 PNOs   :   13
   #pairs with 16 - 20 PNOs   :   17
   #pairs with 21 - 25 PNOs   :   20
   #pairs with 26 - 30 PNOs   :   30
   #pairs with 31 - 35 PNOs   :    5
   #pairs with 36 - 40 PNOs   :   13
   #pairs with 41 - 45 PNOs   :   18
   #pairs with 46 - 50 PNOs   :   33
   #pairs with 51 - 55 PNOs   :   26
   #pairs with 56 - 60 PNOs   :    3
   #pairs with 61 - 65 PNOs   :   11
   #pairs with 66 - 70 PNOs   :   23
   #pairs with 71 - 75 PNOs   :    5

Generation of (ij|ab)[P] integrals            ... on
Generation of (ia|bc)[P],(ja|bc)[P] integrals ... on
Storage of 3 and 4 external integrals         ... on
Generation of ALL (ka|bc)[P] integrals        ... on
Keep RI integrals in memory                   ... off

Ibatch:  1 (of  1)
Starting 2-4 index PNO integral generation ... done

Timings:
Total PNO integral transformation time     ...         31.705 sec
Size of the 3-external file                ...       177 MB
Size of the 4-external file                ...      1278 MB
Size of the IKJL file                      ...         0 MB
Size of the all 3-external file            ...      1864 MB
Size of the 1-external file                ...         4 MB

Making pair/pair overlap matrices          ... done (    3.824 sec)
Size of the pair overlap file              ... 453 MB
Redoing the guess amplitudes               ... done (    0.023 sec)

-------------------------
FINAL STARTUP INFORMATION
-------------------------

E(0)                                       ...   -333.180247842
E(L-MP2)                                   ...     -1.280866908
E(L-MP2) including corrections             ...     -1.280866908
Initial E(tot)                             ...   -334.461114750
<T|T>                                      ...      0.334542962
Number of pairs included                   ... 231
Total number of pairs                      ... 231

------------------------------------------------
                  RHF COUPLED CLUSTER ITERATIONS
------------------------------------------------

Number of PNO amplitudes to be optimized   ...       431151
Number of non-PNO amplitudes               ...     26078976
Untruncated number of regular amplitudes   ...     26078976

Iter       E(tot)           E(Corr)          Delta-E          Residual     Time
  0   -334.424168176     -1.242615831      0.038251076      0.021123176   12.59
                           *** Turning on DIIS ***
  1   -334.479180890     -1.297628546     -0.055012714      0.014313630   12.53
  2   -334.510785003     -1.329232658     -0.031604113      0.003990433   13.97
  3   -334.516657955     -1.335105610     -0.005872952      0.002697740   12.60
  4   -334.517995440     -1.336443095     -0.001337485      0.000859766   12.66
  5   -334.518268471     -1.336716126     -0.000273031      0.000317600   12.64
  6   -334.518321235     -1.336768890     -0.000052764      0.000150576   12.60
  7   -334.518329643     -1.336777299     -0.000008408      0.000046047   12.65
  8   -334.518330173     -1.336777829     -0.000000530      0.000022789   12.60
  9   -334.518329041     -1.336776696      0.000001133      0.000004153   12.62
               --- The Coupled-Cluster iterations have converged ---

----------------------
COUPLED CLUSTER ENERGY
----------------------

E(0)                                       ...   -333.180247842
E(CORR)(strong-pairs)                      ...     -1.336776696
E(CORR)(weak-pairs)                        ...     -0.001304502
E(CORR)(corrected)                         ...     -1.338081198
E(TOT)                                     ...   -334.518329041
Singles Norm <S|S>**1/2                    ...      0.059552486  
T1 diagnostic                              ...      0.009189148  

------------------
LARGEST AMPLITUDES
------------------
  16-> 28  16-> 28       0.055743
  18-> 34  18-> 34       0.032618
  25-> 34  25-> 34       0.032615
  15-> 38  15-> 38       0.031311
  13-> 38  13-> 38       0.031311
  17-> 34  17-> 34       0.030186
  26-> 34  26-> 34       0.030186
  25-> 28  25-> 28       0.028531
  18-> 28  18-> 28       0.028531
  20-> 28  20-> 28       0.028501
  27-> 34  27-> 34       0.028051
  24-> 34  24-> 34       0.028048
  24-> 28  24-> 28       0.027895
  27-> 28  27-> 28       0.027895
  22-> 28  22-> 28       0.027360
  23-> 28  23-> 28       0.027213


-------------------------------------------
DLPNO BASED TRIPLES CORRECTION
-------------------------------------------

Singles multiplier          ...  1.000000
TCutTNO                     ... 1.000e-09
TCutMP2Pairs                ... 1.000e-06
TCutDOStrong                ... 1.000e-02
TCutMKNStrong               ... 1.000e-02
TCutDOWeak                  ... 2.000e-02
TCutMKNWeak                 ... 1.000e-01

Fragment selection                          .... not used
Number of Triples that are to be computed   ...      1750

 . . . . . . . . .
10% done  
20% done  
30% done  
40% done  
50% done  
60% done  
70% done  
80% done  
90% done               (    209.938 sec)
Triples timings:
Total time for T0               ...   225.544 sec
Total time for Iterative (T)    ...     0.000 sec
Total time of overall (T)       ...   230.377 sec

Triples List generation         ...     0.000 sec
TNO generation                  ...    15.597 sec
Pair density generation         ...     0.005 sec
Look up tables                  ...     0.000 sec
Generating 3-index integrals    ...   147.561 sec
  Make 4-ind.int. from 3-ind.int...    19.739 sec
  Projecting amplitudes (D + S) ...    17.582 sec
  Downprojecting integrals      ...     0.003 sec
  Energy contr. (sum over a,b,c)...     6.595 sec
Fitting ET(->0)                 ...     0.000 sec

Everything after 3-index        ...    62.377 sec

Timing details:
 TNO integrals                  ...   165.478 sec
   Reading 3-index integrals    ...     0.360 sec
   Sorting integrals            ...    21.417 sec
       Sorting integrals 1      ...     0.002 sec
       Sorting integrals 2      ...    12.888 sec
       Sorting integrals 3      ...     0.573 sec
       Sorting integrals 4      ...     0.036 sec
       Sorting integrals 5      ...     0.223 sec
       Sorting integrals 6      ...     7.696 sec
   Calculating local VM**-1/2   ...     0.565 sec
   Orthogonal. integrals        ...     0.946 sec
   Multipl. 3-index integrals   ...   142.189 sec
   All concerning IRIab (w/TNO) ...     9.994 sec

 Calculate W0/W1                ...    18.449 sec
 W 3-ext contribution           ...    10.243 sec
 W 3-int contribution           ...     2.736 sec
 Sorting W                      ...     5.205 sec

 V exchange contribution        ...     2.342 sec

 Timings for Triples without generation
     of 3-index integrals       ...    62.374 sec
       0 weak pairs             ...    62.374 sec
       1 weak pair              ...     0.000 sec
       2 weak pairs             ...     0.000 sec
       3 weak pairs             ...     0.000 sec
  Extra time for extrapolation  ...     0.000 sec

Number of Triples   (0, 1, 2, 3 weak pairs; overall):   1750       0       0       0  (  1750)
Number of Atoms     (0, 1, 2, 3 weak pairs; overall):   17.5     0.0     0.0     0.0  (    18)
Number of PAOs      (0, 1, 2, 3 weak pairs; overall):  356.1     0.0     0.0     0.0  (   364)
Number of AuxFcns   (0, 1, 2, 3 weak pairs; overall):  407.8     0.0     0.0     0.0  (   897)
Number of TNOs      (0, 1, 2, 3 weak pairs         ):   96.8     0.0     0.0     0.0
Aver. Number of NTNO, Atoms, PAOs, AuxFcns / Triples:   1750    96.8    17.5   356.1   407.8

Triples Correction (T)                     ...     -0.050620223
Final correlation energy                   ...     -1.388701421
E(CCSD)                                    ...   -334.518329041
E(CCSD(T))                                 ...   -334.568949263


Maximum memory used throughout the entire calculation: 7950.0 MB


------------------------------------------------------------------------------- 
                                     TIMINGS                                   
------------------------------------------------------------------------------- 


Total execution time                   ...      505.911 sec

Localization of occupied MO's          ...        0.612 sec (  0.1%)
Fock Matrix Formation                  ...        2.729 sec (  0.5%)
Global overlap, Fock, MKN matrices     ...        0.198 sec (  0.0%)
Differential overlap integrals         ...        0.136 sec (  0.0%)
Organizing maps                        ...        0.048 sec (  0.0%)
RI 3-index integral generations        ...        6.809 sec (  1.3%)
RI-PNO integral transformation         ...      117.048 sec ( 23.1%)
Initial Guess                          ...       19.581 sec (  3.9%)
DIIS Solver                            ...        1.784 sec (  0.4%)
State Vector Update                    ...        0.033 sec (  0.0%)
Sigma-vector construction              ...      127.147 sec ( 25.1%)
  <D|H|D>(0-ext)                       ...        3.191 sec (  2.5% of sigma)
  <D|H|D>(2-ext Fock)                  ...        0.014 sec (  0.0% of sigma)
  <D|H|D>(2-ext)                       ...       17.505 sec ( 13.8% of sigma)
  <D|H|D>(4-ext)                       ...       14.635 sec ( 11.5% of sigma)
  <D|H|D>(4-ext-corr)                  ...       65.714 sec ( 51.7% of sigma)
  CCSD doubles correction              ...        0.210 sec (  0.2% of sigma)
  <S|H|S>                              ...        0.245 sec (  0.2% of sigma)
  <S|H|D>(1-ext)                       ...        0.398 sec (  0.3% of sigma)
  <D|H|S>(1-ext)                       ...        0.012 sec (  0.0% of sigma)
  <S|H|D>(3-ext)                       ...        0.510 sec (  0.4% of sigma)
  Fock-dressing                        ...       17.855 sec ( 14.0% of sigma)
  Singles amplitudes                   ...        0.564 sec (  0.4% of sigma)
  (ik|jl)-dressing                     ...        2.325 sec (  1.8% of sigma)
  (ij|ab),(ia|jb)-dressing             ...        2.712 sec (  2.1% of sigma)
  Pair energies                        ...        0.008 sec (  0.0% of sigma)
Total Time for computing (T)           ...      230.456 sec ( 45.6% of ALL)


-------------------------   --------------------
FINAL SINGLE POINT ENERGY      -334.568949263460
-------------------------   --------------------


                            ***************************************
                            *     ORCA property calculations      *
                            ***************************************

                                    ---------------------
                                    Active property flags
                                    ---------------------
   (+) Dipole Moment


------------------------------------------------------------------------------
                       ORCA ELECTRIC PROPERTIES CALCULATION
------------------------------------------------------------------------------

Dipole Moment Calculation                       ... on
Quadrupole Moment Calculation                   ... off
Polarizability Calculation                      ... off
GBWName                                         ... fluorocyclohexane_ax.gbw
Electron density file                           ... fluorocyclohexane_ax.scfp.tmp
The origin for moment calculation is the CENTER OF MASS  = ( 0.122729, -0.000002 -0.062023)

-------------
DIPOLE MOMENT
-------------
                                X             Y             Z
Electronic contribution:      6.43708      -0.00003      -2.78827
Nuclear contribution   :     -6.87285       0.00003       3.47338
                        -----------------------------------------
Total Dipole Moment    :     -0.43578      -0.00000       0.68511
                        -----------------------------------------
Magnitude (a.u.)       :      0.81196
Magnitude (Debye)      :      2.06383



--------------------
Rotational spectrum 
--------------------
 
Rotational constants in cm-1:     0.118141     0.086189     0.064861 
Rotational constants in MHz :  3541.764059  2583.885570  1944.469749 

 Dipole components along the rotational axes: 
x,y,z [a.u.] :    -0.471079     0.000004     0.661331 
x,y,z [Debye]:    -1.197387     0.000009     1.680969 

 

Timings for individual modules:

Sum of individual times         ...      525.613 sec (=   8.760 min)
GTO integral calculation        ...        2.192 sec (=   0.037 min)   0.4 %
SCF iterations                  ...       17.138 sec (=   0.286 min)   3.3 %
MDCI module                     ...      506.283 sec (=   8.438 min)  96.3 %
                             ****ORCA TERMINATED NORMALLY****
TOTAL RUN TIME: 0 days 0 hours 8 minutes 46 seconds 99 msec
fluorocyclohexane_ax.gbw -> /home1/pantazis/klk/xyz/Cyclohexanes/fluorocyclohexane_ax.gbw
fluorocyclohexane_ax.job -> /home1/pantazis/klk/xyz/Cyclohexanes/fluorocyclohexane_ax.job
fluorocyclohexane_ax.loc -> /home1/pantazis/klk/xyz/Cyclohexanes/fluorocyclohexane_ax.loc
fluorocyclohexane_ax.nodes -> /home1/pantazis/klk/xyz/Cyclohexanes/fluorocyclohexane_ax.nodes
fluorocyclohexane_ax.prop -> /home1/pantazis/klk/xyz/Cyclohexanes/fluorocyclohexane_ax.prop
fluorocyclohexane_ax_property.txt -> /home1/pantazis/klk/xyz/Cyclohexanes/fluorocyclohexane_ax_property.txt
fluorocyclohexane_ax.xyz -> /home1/pantazis/klk/xyz/Cyclohexanes/fluorocyclohexane_ax.xyz
cp: cannot stat fluorocyclohexane_ax.asa.inp: No such file or directory
