! Job execution by suborca V 6.07 on ZEUS !
Job started from zeus1, running /scratch/pantazis/Formaldehyde_dimethylacetal_ag_dimethoxymethane__Efi2un/orca/orca copied from /opt/orca on zeussn129 in /scratch/pantazis/Formaldehyde_dimethylacetal_ag_dimethoxymethane__Efi2un
Job execution start: Thu Jun 27 13:59:45 CEST 2019
Shared library path: /scratch/pantazis/Formaldehyde_dimethylacetal_ag_dimethoxymethane__Efi2un/orca:/opt/openmpi_1.10.2/lib:/opt/intel/mkl/lib/intel64:/opt/intel/lib/intel64:
PBS Job ID is: 158135.icqc
izeussn129
izeussn129
izeussn129
izeussn129
izeussn129
izeussn129
izeussn129
izeussn129

                                 *****************
                                 * O   R   C   A *
                                 *****************

           --- An Ab Initio, DFT and Semiempirical electronic structure package ---

                  #######################################################
                  #                        -***-                        #
                  #          Department of theory and spectroscopy      #
                  #               Directorship: Frank Neese             #
                  #        Max Planck Institute fuer Kohlenforschung    #
                  #                Kaiser Wilhelm Platz 1               #
                  #                 D-45470 Muelheim/Ruhr               #
                  #                      Germany                        #
                  #                                                     #
                  #                  All rights reserved                #
                  #                        -***-                        #
                  #######################################################


                         Program Version 4.1.x  -  STABLE  -
                                (SVN: $Rev: 14094$)
                ($Date: 2019-06-14 15:01:15 +0200 (Fri, 14 Jun 2019) $)

                         (BUILD: $Sun Jun 23 06:18:31 CEST 2019$)


 With contributions from (in alphabetic order):
   Daniel Aravena         : Magnetic Properties
   Michael Atanasov       : Ab Initio Ligand Field Theory
   Alexander A. Auer      : GIAO ZORA
   Ute Becker             : Parallelization
   Giovanni Bistoni       : ED, Open-shell LED
   Martin Brehm           : Molecular dynamics
   Dmytro Bykov           : SCF Hessian
   Vijay G. Chilkuri      : MRCI spin determinant printing
   Dipayan Datta          : RHF DLPNO-CCSD density
   Achintya Kumar Dutta   : EOM-CC, STEOM-CC
   Dmitry Ganyushin       : Spin-Orbit,Spin-Spin,Magnetic field MRCI
   Miquel Garcia          : C-PCM Hessian
   Yang Guo               : DLPNO-NEVPT2, CIM, IAO-localization
   Andreas Hansen         : Spin unrestricted coupled pair/coupled cluster methods
   Benjamin Helmich-Paris : CASSCF linear response (MC-RPA)
   Lee Huntington         : MR-EOM, pCC
   Robert Izsak           : Overlap fitted RIJCOSX, COSX-SCS-MP3, EOM
   Christian Kollmar      : KDIIS, OOCD, Brueckner-CCSD(T), CCSD density
   Simone Kossmann        : Meta GGA functionals, TD-DFT gradient, OOMP2, MP2 Hessian
   Martin Krupicka        : AUTO-CI
   Lucas Lang             : DCDCAS
   Dagmar Lenk            : GEPOL surface, SMD
   Dimitrios Liakos       : Extrapolation schemes; parallel MDCI
   Dimitrios Manganas     : ROCIS; embedding schemes
   Dimitrios Pantazis     : SARC Basis sets
   Taras Petrenko         : DFT Hessian,TD-DFT gradient, ASA, ECA, R-Raman, ABS, FL, XAS/XES, NRVS
   Peter Pinski           : DLPNO-MP2, DLPNO-MP2 Gradient
   Christoph Reimann      : Effective Core Potentials
   Marius Retegan         : Local ZFS, SOC
   Christoph Riplinger    : Optimizer, TS searches, QM/MM, DLPNO-CCSD(T), (RO)-DLPNO pert. Triples
   Tobias Risthaus        : Range-separated hybrids, TD-DFT gradient, RPA, STAB
   Michael Roemelt        : Restricted open shell CIS
   Masaaki Saitow         : Open-shell DLPNO
   Barbara Sandhoefer     : DKH picture change effects
   Avijit Sen             : IP-ROCIS
   Kantharuban Sivalingam : CASSCF convergence, NEVPT2, FIC-MRCI
   Bernardo de Souza      : ESD, SOC TD-DFT
   Georgi Stoychev        : AutoAux, RI-MP2 NMR
   Willem Van den Heuvel  : Paramagnetic NMR
   Boris Wezisla          : Elementary symmetry handling
   Frank Wennmohs         : Technical directorship


 We gratefully acknowledge several colleagues who have allowed us to
 interface, adapt or use parts of their codes:
   Stefan Grimme, W. Hujo, H. Kruse,             : VdW corrections, initial TS optimization,
                  C. Bannwarth                     DFT functionals, gCP, sTDA/sTD-DF
   Ed Valeev                                     : LibInt (2-el integral package), F12 methods
   Garnet Chan, S. Sharma, J. Yang, R. Olivares  : DMRG
   Ulf Ekstrom                                   : XCFun DFT Library
   Mihaly Kallay                                 : mrcc  (arbitrary order and MRCC methods)
   Andreas Klamt, Michael Diedenhofen            : otool_cosmo (COSMO solvation model)
   Jiri Pittner, Ondrej Demel                    : Mk-CCSD
   Frank Weinhold                                : gennbo (NPA and NBO analysis)
   Christopher J. Cramer and Donald G. Truhlar   : smd solvation model
   Lars Goerigk                                  : TD-DFT with DH, B97 family of functionals
   V. Asgeirsson, H. Jonsson                     : NEB implementation
   FAccTs GmbH                                   : IRC, NEB, NEB-TS, Multilevel


 Your calculation uses the libint2 library for the computation of 2-el integrals
 For citations please refer to: http://libint.valeyev.net

 This ORCA versions uses:
   CBLAS   interface :  Fast vector & matrix operations
   LAPACKE interface :  Fast linear algebra routines
   SCALAPACK package :  Parallel linear algebra routines




***************************************
The coordinates will be read from file: Formaldehyde_dimethylacetal_ag_dimethoxymethane.xyz
***************************************


----- Orbital basis set information -----
Your calculation utilizes the basis: cc-pVTZ 
       H, B-Ne : Obtained from the ccRepo (grant-hill.group.shef.ac.uk/ccrepo) Feb. 2017
                 T. H. Dunning, Jr., J. Chem. Phys. 90, 1007 (1989)
            He : Obtained from the ccRepo (grant-hill.group.shef.ac.uk/ccrepo) Feb. 2017
                 D. E. Woon, T. H. Dunning, Jr., J. Chem. Phys. 100, 2975 (1994)
  Li-Be, Na-Mg : Obtained from the ccRepo (grant-hill.group.shef.ac.uk/ccrepo) Feb. 2017
                 B. P. Prascher, D. E. Woon, K. A. Peterson, T. H. Dunning, Jr., A. K. Wilson, Theor. Chem. Acc. 128, 69 (2011)
         Al-Ar : Obtained from the ccRepo (grant-hill.group.shef.ac.uk/ccrepo) Feb. 2017
                 D. E. Woon, T. H. Dunning, Jr., J. Chem. Phys. 98, 1358 (1993)
            Ca : Obtained from the Peterson Research Group Website (tyr0.chem.wsu.edu/~kipeters) Feb. 2017
                 J. Koput, K. A. Peterson, J. Phys. Chem. 106, 9595 (2002)
         Sc-Zn : Obtained from the ccRepo (grant-hill.group.shef.ac.uk/ccrepo) Feb. 2017
                 N. B. Balabanov, K. A. Peterson, J. Chem. Phys. 123, 064107 (2005)
                 N. B. Balabanov, K. A. Peterson, J. Chem. Phys. 125, 074110 (2006)
         Ga-Kr : Obtained from the ccRepo (grant-hill.group.shef.ac.uk/ccrepo) Feb. 2017
                 A. K. Wilson, D. E. Woon, K. A. Peterson, T. H. Dunning, Jr., J. Chem. Phys. 110, 7667 (1999)
             Y : Obtained from the ccRepo (grant-hill.group.shef.ac.uk/ccrepo) Feb. 2017
                 K. A. Peterson, D. Figgen, M. Dolg, H. Stoll, J. Chem. Phys. 126, 124101 (2007)
        Ag, Au : Obtained from the Peterson Research Group Website (tyr0.chem.wsu.edu/~kipeters) Feb. 2017
                 K. A. Peterson, C. Puzzarini, Theor. Chem. Acc. 114, 283 (2005)

----- AuxC basis set information -----
Your calculation utilizes the auxiliary basis: cc-pVTZ/C 
  Obtained from the EMSL Basis Set Exchange (bse.pnl.gov) Feb. 2017
  H-He, B-F, Al-Ar, Ga-Kr : F. Weigend, A. Kohn, C. Hattig, J. Chem. Phys. 116, 3175 (2002)
             Li-Be, Na-Mg : C. Haettig, Phys. Chem. Chem. Phys. 7, 59 (2005)
                       Ne : C. Haettig, Phys. Chem. Chem. Phys. 7, 59 (2005)
                            F. Weigend, A. Kohn, C. Hattig, J. Chem. Phys. 116, 3175 (2002)
                    Sc-Zn : J. G. Hill, J. A. Platts, J. Chem. Phys. 128, 044104 (2008)

----- AuxJK basis set information -----
Your calculation utilizes the auxiliary basis: cc-pVTZ/JK 
  H, B-F, Al-Cl, Ga-Br : Obtained from the TURBOMOLE 7.0 basis set library

================================================================================
                                        WARNINGS
                       Please study these warnings very carefully!
================================================================================


WARNING: MDCI localization with Augmented Hessian Foster-Boys
  ===> : Switching off randomization!

WARNING: Post HF methods need fully converged wavefunctions
  ===> : Setting SCFConvForced true
         You can overwrite this default with %scf ConvForced false 


INFO   : the flag for use of LIBINT has been found!

================================================================================
                                       INPUT FILE
================================================================================
NAME = Formaldehyde_dimethylacetal_ag_dimethoxymethane.inp
|  1> ! RHF DLPNO-CCSD(T) cc-pVTZ RIJK cc-pVTZ/JK cc-pVTZ/C
|  2> ! KDIIS SOSCF TightSCF TightPNO
|  3> 
|  4> %pal nprocs 8 end
|  5> 
|  6> %maxcore 8000
|  7> 
|  8> %scf maxiter 300
|  9>      shift shift 0.2 erroff 0.1 end
| 10> end
| 11> 
| 12> * xyzfile 0 1 Formaldehyde_dimethylacetal_ag_dimethoxymethane.xyz 
| 13> 
| 14> 
| 15>                          ****END OF INPUT****
================================================================================

                       ****************************
                       * Single Point Calculation *
                       ****************************

---------------------------------
CARTESIAN COORDINATES (ANGSTROEM)
---------------------------------
  C     -1.938130   -0.616170    0.133910
  O     -1.269390    0.575770   -0.275100
  C      0.025950    0.696450    0.203880
  O      0.854390   -0.294560   -0.380670
  C      2.185500   -0.252840    0.103070
  H     -2.966560   -0.530270   -0.221190
  H     -1.469470   -1.504100   -0.302200
  H     -1.939160   -0.705900    1.230390
  H      0.370980    1.701210   -0.078000
  H      0.055300    0.585820    1.306550
  H      2.732980   -1.051710   -0.400450
  H      2.668730    0.709670   -0.124900
  H      2.227200   -0.418990    1.190800

----------------------------
CARTESIAN COORDINATES (A.U.)
----------------------------
  NO LB      ZA    FRAG     MASS         X           Y           Z
   0 C     6.0000    0    12.011   -3.662535   -1.164393    0.253053
   1 O     8.0000    0    15.999   -2.398799    1.088048   -0.519864
   2 C     6.0000    0    12.011    0.049038    1.316100    0.385277
   3 O     8.0000    0    15.999    1.614563   -0.556638   -0.719362
   4 C     6.0000    0    12.011    4.129996   -0.477798    0.194774
   5 H     1.0000    0     1.008   -5.605986   -1.002065   -0.417989
   6 H     1.0000    0     1.008   -2.776896   -2.842337   -0.571075
   7 H     1.0000    0     1.008   -3.664481   -1.333958    2.325100
   8 H     1.0000    0     1.008    0.701051    3.214821   -0.147399
   9 H     1.0000    0     1.008    0.104502    1.107039    2.469022
  10 H     1.0000    0     1.008    5.164584   -1.987444   -0.756741
  11 H     1.0000    0     1.008    5.043169    1.341082   -0.236027
  12 H     1.0000    0     1.008    4.208798   -0.791776    2.250286

--------------------------------
INTERNAL COORDINATES (ANGSTROEM)
--------------------------------
 C      0   0   0     0.000000000000     0.00000000     0.00000000
 O      1   0   0     1.426612537201     0.00000000     0.00000000
 C      2   1   0     1.386322912744   114.30987481     0.00000000
 O      3   2   1     1.417784312299   110.03988872    67.11373271
 C      4   3   2     1.416897589136   112.80516455   181.97813184
 H      1   2   3     1.091395017810   106.41995375   174.18022721
 H      1   2   3     1.094647802994   111.27272113   293.68429051
 H      1   2   3     1.100145864965   110.75232270    55.53668378
 H      3   2   1     1.099110864699   106.51608463   186.88525107
 H      3   2   1     1.108594402070   111.08226071   306.36763172
 H      5   4   3     1.091540204344   106.98730191   179.67324936
 H      5   4   3     1.100866501398   111.55669770   298.69693021
 H      5   4   3     1.101136351866   111.61607752    60.46465787

---------------------------
INTERNAL COORDINATES (A.U.)
---------------------------
 C      0   0   0     0.000000000000     0.00000000     0.00000000
 O      1   0   0     2.695906994529     0.00000000     0.00000000
 C      2   1   0     2.619770638267   114.30987481     0.00000000
 O      3   2   1     2.679224067214   110.03988872    67.11373271
 C      4   3   2     2.677548403281   112.80516455   181.97813184
 H      1   2   3     2.062437687587   106.41995375   174.18022721
 H      1   2   3     2.068584560758   111.27272113   293.68429051
 H      1   2   3     2.078974392150   110.75232270    55.53668378
 H      3   2   1     2.077018525099   106.51608463   186.88525107
 H      3   2   1     2.094939813510   111.08226071   306.36763172
 H      5   4   3     2.062712050375   106.98730191   179.67324936
 H      5   4   3     2.080336197650   111.55669770   298.69693021
 H      5   4   3     2.080846141131   111.61607752    60.46465787

---------------------
BASIS SET INFORMATION
---------------------
There are 3 groups of distinct atoms

 Group   1 Type C   : 18s5p2d1f contracted to 4s3p2d1f pattern {8811/311/11/1}
 Group   2 Type O   : 18s5p2d1f contracted to 4s3p2d1f pattern {8811/311/11/1}
 Group   3 Type H   : 5s2p1d contracted to 3s2p1d pattern {311/11/1}

Atom   0C    basis set group =>   1
Atom   1O    basis set group =>   2
Atom   2C    basis set group =>   1
Atom   3O    basis set group =>   2
Atom   4C    basis set group =>   1
Atom   5H    basis set group =>   3
Atom   6H    basis set group =>   3
Atom   7H    basis set group =>   3
Atom   8H    basis set group =>   3
Atom   9H    basis set group =>   3
Atom  10H    basis set group =>   3
Atom  11H    basis set group =>   3
Atom  12H    basis set group =>   3
-------------------------------
AUXILIARY BASIS SET INFORMATION
-------------------------------
There are 3 groups of distinct atoms

 Group   1 Type C   : 8s6p5d3f1g contracted to 8s6p5d3f1g pattern {11111111/111111/11111/111/1}
 Group   2 Type O   : 8s6p5d3f1g contracted to 8s6p5d3f1g pattern {11111111/111111/11111/111/1}
 Group   3 Type H   : 4s3p2d1f contracted to 4s3p2d1f pattern {1111/111/11/1}

Atom   0C    basis set group =>   1
Atom   1O    basis set group =>   2
Atom   2C    basis set group =>   1
Atom   3O    basis set group =>   2
Atom   4C    basis set group =>   1
Atom   5H    basis set group =>   3
Atom   6H    basis set group =>   3
Atom   7H    basis set group =>   3
Atom   8H    basis set group =>   3
Atom   9H    basis set group =>   3
Atom  10H    basis set group =>   3
Atom  11H    basis set group =>   3
Atom  12H    basis set group =>   3
-------------------------------
AUXILIARY BASIS SET INFORMATION
-------------------------------
There are 3 groups of distinct atoms

 Group   1 Type C   : 10s7p5d2f1g contracted to 10s7p5d2f1g pattern {1111111111/1111111/11111/11/1}
 Group   2 Type O   : 10s7p5d2f1g contracted to 10s7p5d2f1g pattern {1111111111/1111111/11111/11/1}
 Group   3 Type H   : 4s3p2d1f contracted to 4s3p2d1f pattern {1111/111/11/1}

Atom   0C    basis set group =>   1
Atom   1O    basis set group =>   2
Atom   2C    basis set group =>   1
Atom   3O    basis set group =>   2
Atom   4C    basis set group =>   1
Atom   5H    basis set group =>   3
Atom   6H    basis set group =>   3
Atom   7H    basis set group =>   3
Atom   8H    basis set group =>   3
Atom   9H    basis set group =>   3
Atom  10H    basis set group =>   3
Atom  11H    basis set group =>   3
Atom  12H    basis set group =>   3


           ************************************************************
           *        Program running with 8 parallel MPI-processes     *
           *              working on a common directory               *
           ************************************************************
------------------------------------------------------------------------------
                           ORCA GTO INTEGRAL CALCULATION
                           -- RI-GTO INTEGRALS CHOSEN --
------------------------------------------------------------------------------

                         BASIS SET STATISTICS AND STARTUP INFO

Gaussian basis set:
 # of primitive gaussian shells          ...  194
 # of primitive gaussian functions       ...  378
 # of contracted shells                  ...   98
 # of contracted basis functions         ...  262
 Highest angular momentum                ...    3
 Maximum contraction depth               ...    8
Auxiliary gaussian basis set:
 # of primitive gaussian shells          ...  205
 # of primitive gaussian functions       ...  635
 # of contracted shells                  ...  205
 # of contracted aux-basis functions     ...  635
 Highest angular momentum                ...    4
 Maximum contraction depth               ...    1
Ratio of auxiliary to basis functions    ...  2.42
Integral package used                  ... LIBINT
 One Electron integrals                  ... done
 Ordering auxiliary basis shells         ... done
 Integral threshhold             Thresh  ...  2.500e-11
 Primitive cut-off               TCut    ...  2.500e-12
 Pre-screening matrix                    ... done
 Shell pair data                         ... 
 Ordering of the shell pairs             ... done (   0.001 sec) 4601 of 4851 pairs
 Determination of significant pairs      ... done (   0.000 sec)
 Creation of shell pair data             ... done (   0.001 sec)
 Storage of shell pair data              ... done (   0.001 sec)
 Shell pair data done in (   0.003 sec)
 Computing two index integrals           ... done
 Cholesky decomposition of the V-matrix  ... done


Timings:
 Total evaluation time                   ...   0.368 sec (  0.006 min)
 One electron matrix time                ...   0.069 sec (  0.001 min) = 18.8%
 Schwartz matrix evaluation time         ...   0.184 sec (  0.003 min) = 50.1%
 Two index repulsion integral time       ...   0.046 sec (  0.001 min) = 12.5%
 Cholesky decomposition of V             ...   0.039 sec (  0.001 min) = 10.7%
 Three index repulsion integral time     ...   0.000 sec (  0.000 min) =  0.0%



           ************************************************************
           *        Program running with 8 parallel MPI-processes     *
           *              working on a common directory               *
           ************************************************************
-------------------------------------------------------------------------------
                                 ORCA SCF
-------------------------------------------------------------------------------

------------
SCF SETTINGS
------------
Hamiltonian:
 Ab initio Hamiltonian  Method          .... Hartree-Fock(GTOs)
 RI-approximation to the Coulomb term is turned on
   Number of auxiliary basis functions  .... 635
   RI-JK (J+K treated both via RI)      .... on


General Settings:
 Integral files         IntName         .... Formaldehyde_dimethylacetal_ag_dimethoxymethane
 Hartree-Fock type      HFTyp           .... RHF
 Total Charge           Charge          ....    0
 Multiplicity           Mult            ....    1
 Number of Electrons    NEL             ....   42
 Basis Dimension        Dim             ....  262
 Nuclear Repulsion      ENuc            ....    194.9164126420 Eh

Convergence Acceleration:
 DIIS                   CNVDIIS         .... off
 Newton-Raphson         CNVNR           .... off
 SOSCF                  CNVSOSCF        .... on
   Start iteration      SOSCFMaxIt      ....   150
   Startup grad/error   SOSCFStart      ....  0.003300
 Level Shifting         CNVShift        .... on
   Level shift para.    LevelShift      ....    0.2000
   Turn off err/grad.   ShiftErr        ....    0.1000
 Zerner damping         CNVZerner       .... off
 Static damping         CNVDamp         .... off
 Fernandez-Rico         CNVRico         .... off

SCF Procedure:
 Maximum # iterations   MaxIter         ....   300
 SCF integral mode      SCFMode         .... Direct
   Integral package                     .... LIBINT
 Reset frequency        DirectResetFreq ....    20
 Integral Threshold     Thresh          ....  2.500e-11 Eh
 Primitive CutOff       TCut            ....  2.500e-12 Eh

Convergence Tolerance:
 Convergence Check Mode ConvCheckMode   .... Total+1el-Energy
 Convergence forced     ConvForced      .... 1
 Energy Change          TolE            ....  1.000e-08 Eh
 1-El. energy change                    ....  1.000e-05 Eh
 Orbital Gradient       TolG            ....  1.000e-05
 Orbital Rotation angle TolX            ....  1.000e-05


Diagonalization of the overlap matrix:
Smallest eigenvalue                        ... 1.053e-03
Time for diagonalization                   ...    0.015 sec
Threshold for overlap eigenvalues          ... 1.000e-08
Number of eigenvalues below threshold      ... 0
Time for construction of square roots      ...    0.010 sec
Total time needed                          ...    0.025 sec

-------------------
DFT GRID GENERATION
-------------------

General Integration Accuracy     IntAcc      ...  4.340
Radial Grid Type                 RadialGrid  ... Gauss-Chebyshev
Angular Grid (max. acc.)         AngularGrid ... Lebedev-110
Angular grid pruning method      GridPruning ... 3 (G Style)
Weight generation scheme         WeightScheme... Becke
Basis function cutoff            BFCut       ...    1.0000e-11
Integration weight cutoff        WCut        ...    1.0000e-14
Grids for H and He will be reduced by one unit

# of grid points (after initial pruning)     ...  14752 (   0.0 sec)
# of grid points (after weights+screening)   ...  13904 (   0.0 sec)
nearest neighbour list constructed           ...    0.0 sec
Grid point re-assignment to atoms done       ...    0.0 sec
Grid point division into batches done        ...    0.0 sec
Reduced shell lists constructed in    0.1 sec

Total number of grid points                  ...    13904
Total number of batches                      ...      222
Average number of points per batch           ...       62
Average number of grid points per atom       ...     1070
Average number of shells per batch           ...    76.38 (77.94%)
Average number of basis functions per batch  ...   196.03 (74.82%)
Average number of large shells per batch     ...    60.07 (78.65%)
Average number of large basis fcns per batch ...   154.97 (79.05%)
Average number of aux-shells per batch       ...    76.38 (37.26%)
Average number of aux functions per batch    ...   196.03 (30.87%)
Maximum spatial batch extension              ...   9.09,  9.92, 16.74 au
Average spatial batch extension              ...   0.28,  0.29,  0.33 au

Time for grid setup =    0.081 sec

------------------------------
INITIAL GUESS: MODEL POTENTIAL
------------------------------
Loading Hartree-Fock densities                     ... done
Calculating cut-offs                               ... done
Setting up the integral package                    ... done
Initializing the effective Hamiltonian             ... done
Starting the Coulomb interaction                   ... done (   0.0 sec)
Reading the grid                                   ... done
Mapping shells                                     ... done
Starting the XC term evaluation                    ... done (   0.0 sec)
Transforming the Hamiltonian                       ... done (   0.0 sec)
Diagonalizing the Hamiltonian                      ... done (   0.0 sec)
Back transforming the eigenvectors                 ... done (   0.0 sec)
Now organizing SCF variables                       ... done
                      ------------------
                      INITIAL GUESS DONE (   0.3 sec)
                      ------------------
--------------
SCF ITERATIONS
--------------
ITER       Energy         Delta-E        Max-DP      RMS-DP      [F,P]   Gradient Norm
                             ****Turning on KDIIS(Cayley)****
  0   -267.8456721442   0.000000000000 0.00950477  0.00024202  0.1671893   0.146831382
  1   -267.9000282279  -0.054356083786 0.01781106  0.00029545  0.1535556   0.128815817
  2   -267.9514229286  -0.051394700702 0.02936109  0.00050063  0.1231551   0.104470234
  3   -268.0139833535  -0.062560424843 0.04456957  0.00080269  0.0747037   0.063636789
                      *** Initiating the SOSCF procedure ***
                           *** Shutting down KDIIS ***
                      *** Re-Reading the Fockian *** 
                      *** Removing any level shift *** 
ITER      Energy       Delta-E        Grad      Rot      Max-DP    RMS-DP
  4   -268.05333188  -0.0393485283  0.001357  0.001357  0.002194  0.000054
  5   -268.05345447  -0.0001225922  0.000367  0.000501  0.000789  0.000019
  6   -268.05345982  -0.0000053455  0.000152  0.000110  0.000258  0.000008
  7   -268.05346155  -0.0000017307  0.000031  0.000041  0.000109  0.000003
  8   -268.05346161  -0.0000000620  0.000018  0.000016  0.000032  0.000001
  9   -268.05346163  -0.0000000225  0.000003  0.000004  0.000009  0.000000
                  ***Gradient check signals convergence***
              ***Rediagonalizing the Fockian in SOSCF/NRSCF***

               *****************************************************
               *                     SUCCESS                       *
               *           SCF CONVERGED AFTER  10 CYCLES          *
               *****************************************************


----------------
TOTAL SCF ENERGY
----------------

Total Energy       :         -268.05346164 Eh           -7294.10552 eV

Components:
Nuclear Repulsion  :          194.91641264 Eh            5303.94524 eV
Electronic Energy  :         -462.96987428 Eh          -12598.05075 eV
One Electron Energy:         -752.51440199 Eh          -20476.95791 eV
Two Electron Energy:          289.54452771 Eh            7878.90715 eV

Virial components:
Potential Energy   :         -535.61554358 Eh          -14574.83991 eV
Kinetic Energy     :          267.56208194 Eh            7280.73440 eV
Virial Ratio       :            2.00183651


---------------
SCF CONVERGENCE
---------------

  Last Energy change         ...   -5.7628e-10  Tolerance :   1.0000e-08
  Last MAX-Density change    ...    3.3859e-06  Tolerance :   1.0000e-07
  Last RMS-Density change    ...    1.0743e-07  Tolerance :   5.0000e-09
  Last Orbital Gradient      ...    1.3175e-06  Tolerance :   1.0000e-05
  Last Orbital Rotation      ...    2.4098e-06  Tolerance :   1.0000e-05

             **** THE GBW FILE WAS UPDATED (Formaldehyde_dimethylacetal_ag_dimethoxymethane.gbw) ****
             **** DENSITY FILE WAS UPDATED (Formaldehyde_dimethylacetal_ag_dimethoxymethane.scfp.tmp) ****
             **** ENERGY FILE WAS UPDATED (Formaldehyde_dimethylacetal_ag_dimethoxymethane.en.tmp) ****
----------------
ORBITAL ENERGIES
----------------

  NO   OCC          E(Eh)            E(eV) 
   0   2.0000     -20.559425      -559.4504 
   1   2.0000     -20.557857      -559.4077 
   2   2.0000     -11.327786      -308.2447 
   3   2.0000     -11.277095      -306.8653 
   4   2.0000     -11.268850      -306.6410 
   5   2.0000      -1.410655       -38.3859 
   6   2.0000      -1.343257       -36.5519 
   7   2.0000      -0.977471       -26.5983 
   8   2.0000      -0.923043       -25.1173 
   9   2.0000      -0.847154       -23.0522 
  10   2.0000      -0.692250       -18.8371 
  11   2.0000      -0.681414       -18.5422 
  12   2.0000      -0.673503       -18.3270 
  13   2.0000      -0.614701       -16.7269 
  14   2.0000      -0.587937       -15.9986 
  15   2.0000      -0.582473       -15.8499 
  16   2.0000      -0.535659       -14.5760 
  17   2.0000      -0.498375       -13.5615 
  18   2.0000      -0.488509       -13.2930 
  19   2.0000      -0.439631       -11.9630 
  20   2.0000      -0.425660       -11.5828 
  21   0.0000       0.139121         3.7857 
  22   0.0000       0.162732         4.4282 
  23   0.0000       0.184686         5.0256 
  24   0.0000       0.198524         5.4021 
  25   0.0000       0.218597         5.9483 
  26   0.0000       0.225407         6.1336 
  27   0.0000       0.233800         6.3620 
  28   0.0000       0.255602         6.9553 
  29   0.0000       0.268073         7.2946 
  30   0.0000       0.273304         7.4370 
  31   0.0000       0.347478         9.4554 
  32   0.0000       0.354977         9.6594 
  33   0.0000       0.381399        10.3784 
  34   0.0000       0.393774        10.7151 
  35   0.0000       0.432379        11.7656 
  36   0.0000       0.465510        12.6672 
  37   0.0000       0.507141        13.8000 
  38   0.0000       0.542116        14.7517 
  39   0.0000       0.543890        14.8000 
  40   0.0000       0.574497        15.6329 
  41   0.0000       0.575290        15.6544 
  42   0.0000       0.604363        16.4456 
  43   0.0000       0.614630        16.7249 
  44   0.0000       0.625249        17.0139 
  45   0.0000       0.631579        17.1861 
  46   0.0000       0.635557        17.2944 
  47   0.0000       0.641463        17.4551 
  48   0.0000       0.651059        17.7162 
  49   0.0000       0.662472        18.0268 
  50   0.0000       0.665234        18.1019 
  51   0.0000       0.683740        18.6055 
  52   0.0000       0.701926        19.1004 
  53   0.0000       0.760887        20.7048 
  54   0.0000       0.789791        21.4913 
  55   0.0000       0.823576        22.4106 
  56   0.0000       0.881730        23.9931 
  57   0.0000       0.886225        24.1154 
  58   0.0000       0.907344        24.6901 
  59   0.0000       0.949011        25.8239 
  60   0.0000       0.965506        26.2727 
  61   0.0000       0.996938        27.1281 
  62   0.0000       1.028063        27.9750 
  63   0.0000       1.055314        28.7166 
  64   0.0000       1.092892        29.7391 
  65   0.0000       1.099433        29.9171 
  66   0.0000       1.118427        30.4339 
  67   0.0000       1.136623        30.9291 
  68   0.0000       1.168201        31.7884 
  69   0.0000       1.183979        32.2177 
  70   0.0000       1.196151        32.5489 
  71   0.0000       1.215695        33.0808 
  72   0.0000       1.229028        33.4436 
  73   0.0000       1.238042        33.6888 
  74   0.0000       1.247827        33.9551 
  75   0.0000       1.283392        34.9229 
  76   0.0000       1.304533        35.4981 
  77   0.0000       1.313180        35.7334 
  78   0.0000       1.341537        36.5051 
  79   0.0000       1.369811        37.2744 
  80   0.0000       1.379449        37.5367 
  81   0.0000       1.402745        38.1706 
  82   0.0000       1.413755        38.4702 
  83   0.0000       1.441827        39.2341 
  84   0.0000       1.456314        39.6283 
  85   0.0000       1.485918        40.4339 
  86   0.0000       1.496544        40.7230 
  87   0.0000       1.519863        41.3576 
  88   0.0000       1.526797        41.5462 
  89   0.0000       1.545901        42.0661 
  90   0.0000       1.549058        42.1520 
  91   0.0000       1.578835        42.9623 
  92   0.0000       1.624960        44.2174 
  93   0.0000       1.629651        44.3451 
  94   0.0000       1.687789        45.9271 
  95   0.0000       1.716132        46.6983 
  96   0.0000       1.754323        47.7375 
  97   0.0000       1.802604        49.0514 
  98   0.0000       1.818064        49.4720 
  99   0.0000       1.906381        51.8753 
 100   0.0000       2.111811        57.4653 
 101   0.0000       2.130452        57.9725 
 102   0.0000       2.180571        59.3363 
 103   0.0000       2.207362        60.0654 
 104   0.0000       2.302967        62.6669 
 105   0.0000       2.320561        63.1457 
 106   0.0000       2.350868        63.9704 
 107   0.0000       2.367021        64.4099 
 108   0.0000       2.455834        66.8266 
 109   0.0000       2.472749        67.2869 
 110   0.0000       2.497213        67.9526 
 111   0.0000       2.540076        69.1190 
 112   0.0000       2.589761        70.4710 
 113   0.0000       2.619472        71.2795 
 114   0.0000       2.645820        71.9964 
 115   0.0000       2.678900        72.8966 
 116   0.0000       2.706351        73.6436 
 117   0.0000       2.779097        75.6231 
 118   0.0000       2.896872        78.8279 
 119   0.0000       2.913115        79.2699 
 120   0.0000       2.967541        80.7509 
 121   0.0000       3.022887        82.2569 
 122   0.0000       3.042841        82.7999 
 123   0.0000       3.048710        82.9596 
 124   0.0000       3.067330        83.4663 
 125   0.0000       3.080835        83.8338 
 126   0.0000       3.085162        83.9515 
 127   0.0000       3.108807        84.5949 
 128   0.0000       3.127902        85.1145 
 129   0.0000       3.153634        85.8147 
 130   0.0000       3.180352        86.5418 
 131   0.0000       3.187119        86.7259 
 132   0.0000       3.237480        88.0963 
 133   0.0000       3.250070        88.4389 
 134   0.0000       3.259278        88.6895 
 135   0.0000       3.279809        89.2481 
 136   0.0000       3.292431        89.5916 
 137   0.0000       3.311518        90.1110 
 138   0.0000       3.342361        90.9503 
 139   0.0000       3.352877        91.2364 
 140   0.0000       3.361013        91.4578 
 141   0.0000       3.394672        92.3737 
 142   0.0000       3.412802        92.8671 
 143   0.0000       3.434217        93.4498 
 144   0.0000       3.444857        93.7393 
 145   0.0000       3.470561        94.4388 
 146   0.0000       3.499279        95.2202 
 147   0.0000       3.561893        96.9240 
 148   0.0000       3.587350        97.6168 
 149   0.0000       3.596584        97.8680 
 150   0.0000       3.613898        98.3392 
 151   0.0000       3.618490        98.4641 
 152   0.0000       3.632325        98.8406 
 153   0.0000       3.667178        99.7890 
 154   0.0000       3.698452       100.6400 
 155   0.0000       3.710324       100.9631 
 156   0.0000       3.726234       101.3960 
 157   0.0000       3.730360       101.5082 
 158   0.0000       3.755359       102.1885 
 159   0.0000       3.777890       102.8016 
 160   0.0000       3.796197       103.2998 
 161   0.0000       3.802276       103.4652 
 162   0.0000       3.811717       103.7221 
 163   0.0000       3.825504       104.0973 
 164   0.0000       3.854706       104.8919 
 165   0.0000       3.871282       105.3429 
 166   0.0000       3.895085       105.9907 
 167   0.0000       3.927107       106.8620 
 168   0.0000       3.998297       108.7992 
 169   0.0000       4.013658       109.2172 
 170   0.0000       4.021869       109.4406 
 171   0.0000       4.067220       110.6747 
 172   0.0000       4.085671       111.1768 
 173   0.0000       4.097969       111.5114 
 174   0.0000       4.127762       112.3221 
 175   0.0000       4.144089       112.7664 
 176   0.0000       4.151771       112.9754 
 177   0.0000       4.184681       113.8710 
 178   0.0000       4.226273       115.0027 
 179   0.0000       4.271860       116.2432 
 180   0.0000       4.292629       116.8084 
 181   0.0000       4.323632       117.6520 
 182   0.0000       4.341894       118.1490 
 183   0.0000       4.351955       118.4227 
 184   0.0000       4.373936       119.0209 
 185   0.0000       4.384681       119.3132 
 186   0.0000       4.392318       119.5211 
 187   0.0000       4.403880       119.8357 
 188   0.0000       4.420756       120.2949 
 189   0.0000       4.467991       121.5802 
 190   0.0000       4.492579       122.2493 
 191   0.0000       4.496015       122.3428 
 192   0.0000       4.528957       123.2392 
 193   0.0000       4.546218       123.7089 
 194   0.0000       4.577965       124.5728 
 195   0.0000       4.681915       127.4014 
 196   0.0000       4.747611       129.1891 
 197   0.0000       4.796001       130.5058 
 198   0.0000       4.808778       130.8535 
 199   0.0000       4.860831       132.2699 
 200   0.0000       4.964781       135.0986 
 201   0.0000       4.976643       135.4214 
 202   0.0000       4.987364       135.7131 
 203   0.0000       5.024393       136.7207 
 204   0.0000       5.096584       138.6851 
 205   0.0000       5.109925       139.0481 
 206   0.0000       5.154220       140.2535 
 207   0.0000       5.178673       140.9188 
 208   0.0000       5.203784       141.6021 
 209   0.0000       5.243267       142.6765 
 210   0.0000       5.255681       143.0143 
 211   0.0000       5.316703       144.6748 
 212   0.0000       5.327894       144.9794 
 213   0.0000       5.356020       145.7447 
 214   0.0000       5.379718       146.3896 
 215   0.0000       5.389229       146.6484 
 216   0.0000       5.438598       147.9918 
 217   0.0000       5.456909       148.4900 
 218   0.0000       5.490340       149.3997 
 219   0.0000       5.513253       150.0232 
 220   0.0000       5.549862       151.0194 
 221   0.0000       5.569050       151.5415 
 222   0.0000       5.577174       151.7626 
 223   0.0000       5.608482       152.6145 
 224   0.0000       5.631391       153.2379 
 225   0.0000       5.688597       154.7946 
 226   0.0000       5.814992       158.2340 
 227   0.0000       5.839096       158.8899 
 228   0.0000       5.876190       159.8993 
 229   0.0000       5.919456       161.0766 
 230   0.0000       5.996760       163.1801 
 231   0.0000       6.100631       166.0066 
 232   0.0000       6.183353       168.2576 
 233   0.0000       6.197192       168.6342 
 234   0.0000       6.205395       168.8574 
 235   0.0000       6.218819       169.2227 
 236   0.0000       6.235037       169.6640 
 237   0.0000       6.331058       172.2769 
 238   0.0000       6.408868       174.3942 
 239   0.0000       6.476277       176.2284 
 240   0.0000       6.541581       178.0055 
 241   0.0000       6.690013       182.0445 
 242   0.0000       6.701284       182.3512 
 243   0.0000       6.732199       183.1924 
 244   0.0000       6.827780       185.7933 
 245   0.0000       6.883778       187.3171 
 246   0.0000       6.948621       189.0816 
 247   0.0000       7.286999       198.2893 
 248   0.0000       7.298930       198.6140 
 249   0.0000       7.315658       199.0692 
 250   0.0000       7.329656       199.4501 
 251   0.0000       7.481246       203.5751 
 252   0.0000       7.534697       205.0295 
 253   0.0000       7.787387       211.9056 
 254   0.0000       7.832982       213.1463 
 255   0.0000       7.881620       214.4698 
 256   0.0000       7.977172       217.0699 
 257   0.0000      10.924204       297.2627 
 258   0.0000      11.054849       300.8177 
 259   0.0000      13.209468       359.4479 
 260   0.0000      13.797091       375.4379 
 261   0.0000      13.898073       378.1858 

                    ********************************
                    * MULLIKEN POPULATION ANALYSIS *
                    ********************************

-----------------------
MULLIKEN ATOMIC CHARGES
-----------------------
   0 C :   -0.056626
   1 O :   -0.339758
   2 C :    0.220749
   3 O :   -0.356702
   4 C :   -0.055289
   5 H :    0.104395
   6 H :    0.089659
   7 H :    0.053018
   8 H :    0.085296
   9 H :    0.023883
  10 H :    0.110416
  11 H :    0.061695
  12 H :    0.059263
Sum of atomic charges:   -0.0000000

--------------------------------
MULLIKEN REDUCED ORBITAL CHARGES
--------------------------------
  0 C s       :     3.212663  s :     3.212663
      pz      :     0.959788  p :     2.721372
      px      :     0.969947
      py      :     0.791637
      dz2     :     0.022779  d :     0.112741
      dxz     :     0.012976
      dyz     :     0.020141
      dx2y2   :     0.032063
      dxy     :     0.024782
      f0      :     0.001860  f :     0.009849
      f+1     :     0.000450
      f-1     :     0.001419
      f+2     :     0.000675
      f-2     :     0.001433
      f+3     :     0.002083
      f-3     :     0.001929
  1 O s       :     3.715798  s :     3.715798
      pz      :     1.756022  p :     4.586305
      px      :     1.324017
      py      :     1.506266
      dz2     :     0.004137  d :     0.035509
      dxz     :     0.007913
      dyz     :     0.005199
      dx2y2   :     0.012586
      dxy     :     0.005674
      f0      :     0.000298  f :     0.002147
      f+1     :     0.000279
      f-1     :     0.000160
      f+2     :     0.000394
      f-2     :     0.000202
      f+3     :     0.000526
      f-3     :     0.000288
  2 C s       :     3.127972  s :     3.127972
      pz      :     0.879518  p :     2.432500
      px      :     0.682822
      py      :     0.870159
      dz2     :     0.038044  d :     0.199861
      dxz     :     0.040741
      dyz     :     0.017725
      dx2y2   :     0.055228
      dxy     :     0.048123
      f0      :     0.002068  f :     0.018918
      f+1     :     0.003340
      f-1     :     0.001627
      f+2     :     0.002610
      f-2     :     0.002432
      f+3     :     0.003414
      f-3     :     0.003427
  3 O s       :     3.732131  s :     3.732131
      pz      :     1.721579  p :     4.588117
      px      :     1.252317
      py      :     1.614222
      dz2     :     0.003334  d :     0.034420
      dxz     :     0.009679
      dyz     :     0.005544
      dx2y2   :     0.008010
      dxy     :     0.007852
      f0      :     0.000286  f :     0.002033
      f+1     :     0.000243
      f-1     :     0.000114
      f+2     :     0.000300
      f-2     :     0.000339
      f+3     :     0.000446
      f-3     :     0.000306
  4 C s       :     3.215008  s :     3.215008
      pz      :     0.962510  p :     2.715717
      px      :     0.732188
      py      :     1.021019
      dz2     :     0.024206  d :     0.114436
      dxz     :     0.025415
      dyz     :     0.008418
      dx2y2   :     0.023489
      dxy     :     0.032908
      f0      :     0.001640  f :     0.010128
      f+1     :     0.001994
      f-1     :     0.000266
      f+2     :     0.001544
      f-2     :     0.000705
      f+3     :     0.001958
      f-3     :     0.002020
  5 H s       :     0.869367  s :     0.869367
      pz      :     0.009327  p :     0.024253
      px      :     0.011043
      py      :     0.003882
      dz2     :     0.000341  d :     0.001986
      dxz     :     0.000570
      dyz     :     0.000032
      dx2y2   :     0.000627
      dxy     :     0.000415
  6 H s       :     0.884120  s :     0.884120
      pz      :     0.007718  p :     0.024181
      px      :     0.007881
      py      :     0.008582
      dz2     :     0.000392  d :     0.002039
      dxz     :     0.000137
      dyz     :     0.000459
      dx2y2   :     0.000514
      dxy     :     0.000537
  7 H s       :     0.921462  s :     0.921462
      pz      :     0.010980  p :     0.023515
      px      :     0.006783
      py      :     0.005752
      dz2     :     0.000877  d :     0.002005
      dxz     :     0.000548
      dyz     :     0.000568
      dx2y2   :     0.000011
      dxy     :     0.000001
  8 H s       :     0.892321  s :     0.892321
      pz      :     0.006575  p :     0.020320
      px      :     0.001889
      py      :     0.011856
      dz2     :     0.000383  d :     0.002063
      dxz     :     0.000051
      dyz     :     0.000424
      dx2y2   :     0.000649
      dxy     :     0.000555
  9 H s       :     0.954046  s :     0.954046
      pz      :     0.011498  p :     0.019937
      px      :     0.003314
      py      :     0.005125
      dz2     :     0.001079  d :     0.002134
      dxz     :     0.000554
      dyz     :     0.000480
      dx2y2   :     0.000009
      dxy     :     0.000013
 10 H s       :     0.863374  s :     0.863374
      pz      :     0.008790  p :     0.024224
      px      :     0.004745
      py      :     0.010689
      dz2     :     0.000404  d :     0.001985
      dxz     :     0.000285
      dyz     :     0.000361
      dx2y2   :     0.000395
      dxy     :     0.000540
 11 H s       :     0.913060  s :     0.913060
      pz      :     0.007642  p :     0.023251
      px      :     0.005505
      py      :     0.010103
      dz2     :     0.000337  d :     0.001994
      dxz     :     0.000111
      dyz     :     0.000416
      dx2y2   :     0.000486
      dxy     :     0.000645
 12 H s       :     0.915644  s :     0.915644
      pz      :     0.010941  p :     0.023093
      px      :     0.004058
      py      :     0.008094
      dz2     :     0.000909  d :     0.002000
      dxz     :     0.000479
      dyz     :     0.000574
      dx2y2   :     0.000008
      dxy     :     0.000031


                     *******************************
                     * LOEWDIN POPULATION ANALYSIS *
                     *******************************

----------------------
LOEWDIN ATOMIC CHARGES
----------------------
   0 C :    0.022344
   1 O :    0.263627
   2 C :   -0.208530
   3 O :    0.237901
   4 C :    0.003692
   5 H :   -0.031900
   6 H :   -0.039710
   7 H :   -0.043163
   8 H :   -0.038558
   9 H :   -0.052300
  10 H :   -0.029696
  11 H :   -0.040782
  12 H :   -0.042927

-------------------------------
LOEWDIN REDUCED ORBITAL CHARGES
-------------------------------
  0 C s       :     2.688017  s :     2.688017
      pz      :     0.985993  p :     2.772370
      px      :     0.947654
      py      :     0.838722
      dz2     :     0.108905  d :     0.453069
      dxz     :     0.039848
      dyz     :     0.086616
      dx2y2   :     0.131458
      dxy     :     0.086240
      f0      :     0.008450  f :     0.064200
      f+1     :     0.003203
      f-1     :     0.007735
      f+2     :     0.008210
      f-2     :     0.012308
      f+3     :     0.012502
      f-3     :     0.011792
  1 O s       :     3.240692  s :     3.240692
      pz      :     1.630575  p :     4.390921
      px      :     1.312176
      py      :     1.448171
      dz2     :     0.013195  d :     0.098958
      dxz     :     0.019370
      dyz     :     0.010879
      dx2y2   :     0.030243
      dxy     :     0.025271
      f0      :     0.000376  f :     0.005802
      f+1     :     0.000868
      f-1     :     0.000468
      f+2     :     0.001120
      f-2     :     0.000618
      f+3     :     0.000911
      f-3     :     0.001441
  2 C s       :     2.704419  s :     2.704419
      pz      :     0.946232  p :     2.628550
      px      :     0.774004
      py      :     0.908314
      dz2     :     0.186222  d :     0.753608
      dxz     :     0.145185
      dyz     :     0.068856
      dx2y2   :     0.188299
      dxy     :     0.165046
      f0      :     0.010146  f :     0.121953
      f+1     :     0.019019
      f-1     :     0.008762
      f+2     :     0.020683
      f-2     :     0.020017
      f+3     :     0.022433
      f-3     :     0.020893
  3 O s       :     3.256097  s :     3.256097
      pz      :     1.616513  p :     4.404839
      px      :     1.249409
      py      :     1.538918
      dz2     :     0.013298  d :     0.095586
      dxz     :     0.023117
      dyz     :     0.009379
      dx2y2   :     0.023497
      dxy     :     0.026295
      f0      :     0.000353  f :     0.005577
      f+1     :     0.000937
      f-1     :     0.000443
      f+2     :     0.000876
      f-2     :     0.000915
      f+3     :     0.000870
      f-3     :     0.001182
  4 C s       :     2.686560  s :     2.686560
      pz      :     0.982585  p :     2.776262
      px      :     0.782475
      py      :     1.011201
      dz2     :     0.115950  d :     0.467229
      dxz     :     0.102737
      dyz     :     0.028706
      dx2y2   :     0.086893
      dxy     :     0.132943
      f0      :     0.007600  f :     0.066257
      f+1     :     0.011437
      f-1     :     0.001600
      f+2     :     0.013624
      f-2     :     0.008052
      f+3     :     0.011770
      f-3     :     0.012175
  5 H s       :     0.861895  s :     0.861895
      pz      :     0.042200  p :     0.143039
      px      :     0.071307
      py      :     0.029532
      dz2     :     0.004395  d :     0.026966
      dxz     :     0.008062
      dyz     :     0.000533
      dx2y2   :     0.006689
      dxy     :     0.007287
  6 H s       :     0.866741  s :     0.866741
      pz      :     0.043832  p :     0.146223
      px      :     0.043442
      py      :     0.058949
      dz2     :     0.004951  d :     0.026746
      dxz     :     0.001973
      dyz     :     0.006554
      dx2y2   :     0.006621
      dxy     :     0.006646
  7 H s       :     0.873922  s :     0.873922
      pz      :     0.077674  p :     0.142833
      px      :     0.035403
      py      :     0.029756
      dz2     :     0.009487  d :     0.026407
      dxz     :     0.008846
      dyz     :     0.007795
      dx2y2   :     0.000139
      dxy     :     0.000140
  8 H s       :     0.877223  s :     0.877223
      pz      :     0.034979  p :     0.135171
      px      :     0.027557
      py      :     0.072634
      dz2     :     0.003904  d :     0.026165
      dxz     :     0.000925
      dyz     :     0.006955
      dx2y2   :     0.007479
      dxy     :     0.006901
  9 H s       :     0.891301  s :     0.891301
      pz      :     0.082518  p :     0.135278
      px      :     0.022421
      py      :     0.030339
      dz2     :     0.010669  d :     0.025720
      dxz     :     0.006848
      dyz     :     0.007749
      dx2y2   :     0.000308
      dxy     :     0.000146
 10 H s       :     0.859586  s :     0.859586
      pz      :     0.045507  p :     0.143088
      px      :     0.037767
      py      :     0.059813
      dz2     :     0.005513  d :     0.027021
      dxz     :     0.003652
      dyz     :     0.005092
      dx2y2   :     0.006808
      dxy     :     0.005956
 11 H s       :     0.871892  s :     0.871892
      pz      :     0.038903  p :     0.142669
      px      :     0.035415
      py      :     0.068351
      dz2     :     0.003387  d :     0.026221
      dxz     :     0.001871
      dyz     :     0.006632
      dx2y2   :     0.007193
      dxy     :     0.007138
 12 H s       :     0.873718  s :     0.873718
      pz      :     0.076922  p :     0.142981
      px      :     0.025591
      py      :     0.040468
      dz2     :     0.009508  d :     0.026228
      dxz     :     0.006885
      dyz     :     0.009285
      dx2y2   :     0.000370
      dxy     :     0.000180


                      *****************************
                      * MAYER POPULATION ANALYSIS *
                      *****************************

  NA   - Mulliken gross atomic population
  ZA   - Total nuclear charge
  QA   - Mulliken gross atomic charge
  VA   - Mayer's total valence
  BVA  - Mayer's bonded valence
  FA   - Mayer's free valence

  ATOM       NA         ZA         QA         VA         BVA        FA
  0 C      6.0566     6.0000    -0.0566     3.8964     3.8964     0.0000
  1 O      8.3398     8.0000    -0.3398     2.0300     2.0300    -0.0000
  2 C      5.7793     6.0000     0.2207     4.0373     4.0373    -0.0000
  3 O      8.3567     8.0000    -0.3567     1.9571     1.9571     0.0000
  4 C      6.0553     6.0000    -0.0553     3.9171     3.9171     0.0000
  5 H      0.8956     1.0000     0.1044     0.9778     0.9778    -0.0000
  6 H      0.9103     1.0000     0.0897     0.9743     0.9743    -0.0000
  7 H      0.9470     1.0000     0.0530     0.9731     0.9731    -0.0000
  8 H      0.9147     1.0000     0.0853     0.9705     0.9705     0.0000
  9 H      0.9761     1.0000     0.0239     0.9664     0.9664    -0.0000
 10 H      0.8896     1.0000     0.1104     0.9773     0.9773    -0.0000
 11 H      0.9383     1.0000     0.0617     0.9687     0.9687     0.0000
 12 H      0.9407     1.0000     0.0593     0.9689     0.9689    -0.0000

  Mayer bond orders larger than 0.1
B(  0-C ,  1-O ) :   0.9597 B(  0-C ,  5-H ) :   0.9833 B(  0-C ,  6-H ) :   0.9702 
B(  0-C ,  7-H ) :   0.9709 B(  1-O ,  2-C ) :   1.0924 B(  2-C ,  3-O ) :   0.9831 
B(  2-C ,  8-H ) :   0.9737 B(  2-C ,  9-H ) :   0.9685 B(  3-O ,  4-C ) :   0.9859 
B(  4-C , 10-H ) :   0.9821 B(  4-C , 11-H ) :   0.9689 B(  4-C , 12-H ) :   0.9691 


-------
TIMINGS
-------

Total SCF time: 0 days 0 hours 0 min 6 sec 

Total time                  ....       6.319 sec
Sum of individual times     ....       6.111 sec  ( 96.7%)

Fock matrix formation       ....       5.717 sec  ( 90.5%)
Diagonalization             ....       0.048 sec  (  0.8%)
Density matrix formation    ....       0.008 sec  (  0.1%)
Population analysis         ....       0.031 sec  (  0.5%)
Initial guess               ....       0.180 sec  (  2.9%)
Orbital Transformation      ....       0.000 sec  (  0.0%)
Orbital Orthonormalization  ....       0.000 sec  (  0.0%)
DIIS solution               ....       0.000 sec  (  0.0%)
SOSCF solution              ....       0.046 sec  (  0.7%)


           ************************************************************
           *        Program running with 8 parallel MPI-processes     *
           *              working on a common directory               *
           ************************************************************


------------------------------------------------------------------------------- 
                              ORCA-MATRIX DRIVEN CI                            
------------------------------------------------------------------------------- 


Wavefunction type
-----------------
Correlation treatment                      ...      CCSD     
Single excitations                         ... ON
Orbital optimization                       ... OFF
Calculation of Z vector                    ... OFF
Calculation of Brueckner orbitals          ... OFF
Perturbative triple excitations            ... ON
Calculation of F12 correction              ... OFF
Frozen core treatment                      ... chemical core (10 el)
Reference Wavefunction                     ... RHF
  Internal Orbitals:     5 ...   20 ( 16 MO's/ 32 electrons)
  Virtual  Orbitals:    21 ...  261 (241 MO's              )
Number of AO's                             ...    262
Number of electrons                        ...     42
Number of correlated electrons             ...     32

Algorithmic settings
--------------------
Integral transformation                    ... All integrals via the RI transformation
K(C) Formation                             ... RI-DLPNO
   PNO-Integral Storage                    ... ON DISK
   PNO occupation number cut-off           ... 1.000e-07
   Singles PNO occupation number cut-off   ... 3.000e-09
   PNO Mulliken prescreening cut-off       ... 1.000e-03
   Domain cut-off (Mulliken population)    ... 1.000e-03
   PNO Normalization                       ...    1
Maximum number of iterations               ...        50
Convergence tolerance (max. residuum)      ... 1.000e-05
Level shift for amplitude update           ... 2.000e-01
Maximum number of DIIS vectors             ...         7
DIIS turned on at iteration                ...         0
Damping before turning on DIIS             ...     0.500
Damping after turning on DIIS              ...     0.000
Pair specific amplitude update             ... OFF
Natural orbital iterations                 ... OFF
Perturbative natural orbital generation    ... OFF
Printlevel                                 ... 2

Singles Fock matrix elements calculated using PNOs.

Memory handling:
----------------
Maximum memory for working arrays          ...   8000 MB
Data storage in matrix containers          ... UNCOMPRESSED
Data type for integral storage             ... DOUBLE
In-Core Storage of quantities:
   Amplitudes+Sigma Vector      ... NO
   J+K operators                ... NO
   DIIS vectors                 ... NO
   3-external integrals         ... NO
   4-external integrals         ... NO

Localization treatment:
-----------------------
Localization option                        ...    6
Localization threshhold                    ... -1.0e+00
Using relative localization threshhold     ... 1.0e-08
Neglect threshold for strong pairs         ... 1.000e-05 Eh
Prescreening threshold for very weak pairs ... 1.000e-07 Eh

Initializing the integral package          ... done
Localizing the valence orbitals
------------------------------------------------------------------------------
                           ORCA ORBITAL LOCALIZATION
------------------------------------------------------------------------------

Input orbitals are from                  ... Formaldehyde_dimethylacetal_ag_dimethoxymethane.proc0.gbw
Output orbitals are to                   ... Formaldehyde_dimethylacetal_ag_dimethoxymethane.proc0.loc
Max. number of iterations                ... 128
Localizations seeded randomly            ... off
Convergence tolerance                    ... 1.000e-06
Using relative localization threshhold   ... 1.000e-08
Treshold for strong local MOs            ... 9.500e-01
Treshold for bond MOs                    ... 8.500e-01
Operator                                 ... 0
Orbital range for localization           ... 5 to 20
Localization criterion                   ... FOSTER-BOYS (AUGMENTED HESSIAN)
Doing the dipole integrals     ... o.k.
Initial value of the localization sum :   153.310373
ITERATION   0 : L=  182.2338249388 DL=  2.89e+01 (AVERGE_DL)=    0.4909468076 
ITERATION   1 : L=  184.5768104160 DL=  2.34e+00 (AVERGE_DL)=    0.1397314531 
ITERATION   2 : L=  184.6304176663 DL=  5.36e-02 (AVERGE_DL)=    0.0211359193 
ITERATION   3 : L=  184.6346414610 DL=  4.22e-03 (AVERGE_DL)=    0.0059328146 
ITERATION   4 : L=  184.6351205703 DL=  4.79e-04 (AVERGE_DL)=    0.0019981436 
ITERATION   5 : L=  184.6351746000 DL=  5.40e-05 (AVERGE_DL)=    0.0006710050 
ITERATION   6 : L=  184.6351803193 DL=  5.72e-06 (AVERGE_DL)=    0.0002183137 
ITERATION   7 : L=  184.6351809046 DL=  5.85e-07 (AVERGE_DL)=    0.0000698394 
LOCALIZATION SUM CONVERGED

------------------------------------------------------
AUGMENTED HESSIAN OPTIMIZATION OF FOSTER-BOYS ORBITALS
------------------------------------------------------

Spin operator:           0
Orbital window:          5 to 20
Number of iterations:    128
Gradient tolerance:      1.000e-06
Number of pairs:         120
Davidson threshold:      2000
Diagonalization method:  LAPACK
Iter:    0   L: 184.6351809046   Grad. norm: 9.570418e-04
   *** Likely close to a maximum now. ***
       Augmented Hessian eigenvalues:  1.37e-07 -1.20e+00 -1.33e+00 -3.54e+00 ... 
Iter:    1   L: 184.6351809729   Grad. norm: 5.420215e-08
LOCALIZATION HAS CONVERGED.

Eigenvalues of the Hessian:
  0 -1.197e+00
  1 -1.330e+00
  2 -3.541e+00
  3 -3.579e+00
  4 -5.249e+00
  5 -5.274e+00
  6 -5.428e+00
  7 -5.531e+00
  8 -7.487e+00
  9 -7.544e+00
    ...


------------------------------------------------------------------------------- 
                    LOCALIZED MOLECULAR ORBITAL COMPOSITIONS                   
------------------------------------------------------------------------------- 

The Mulliken populations for each LMO on each atom are computed
The LMO`s will be ordered according to atom index and type
  (A) Strongly localized MO`s have populations of >=0.950 on one atom
  (B) Two center bond orbitals have populations of >=0.850 on two atoms
  (C) Other MO`s are considered to be `delocalized`

FOUND  -   4 strongly local MO`s
       -  12 two center bond MO`s
       -   0 significantly delocalized MO`s

Rather strongly localized orbitals:
MO   8:   3O  -   0.971933
MO   7:   3O  -   0.972669
MO   6:   1O  -   0.961928
MO   5:   1O  -   0.970526
Bond-like localized orbitals:
MO  20:  12H  -   0.495980  and   4C  -   0.538428
MO  19:  11H  -   0.494396  and   4C  -   0.539374
MO  18:  10H  -   0.462210  and   4C  -   0.564068
MO  17:   9H  -   0.514236  and   2C  -   0.532949
MO  16:   8H  -   0.478097  and   2C  -   0.556294
MO  15:   7H  -   0.497793  and   0C  -   0.534770
MO  14:   6H  -   0.476564  and   0C  -   0.556792
MO  13:   5H  -   0.465567  and   0C  -   0.560484
MO  12:   4C  -   0.357916  and   3O  -   0.646863
MO  11:   3O  -   0.663288  and   2C  -   0.348247
MO  10:   2C  -   0.368681  and   1O  -   0.645946
MO   9:   1O  -   0.657104  and   0C  -   0.354547
Localized MO's were stored in: Formaldehyde_dimethylacetal_ag_dimethoxymethane.proc0.loc

Localizing the core orbitals
------------------------------------------------------------------------------
                           ORCA ORBITAL LOCALIZATION
------------------------------------------------------------------------------

Input orbitals are from                  ... Formaldehyde_dimethylacetal_ag_dimethoxymethane.proc0.loc
Output orbitals are to                   ... Formaldehyde_dimethylacetal_ag_dimethoxymethane.proc0.loc
Max. number of iterations                ... 128
Localizations seeded randomly            ... off
Convergence tolerance                    ... 1.000e-06
Using relative localization threshhold   ... 1.000e-08
Treshold for strong local MOs            ... 9.500e-01
Treshold for bond MOs                    ... 8.500e-01
Operator                                 ... 0
Orbital range for localization           ... 0 to 4
Localization criterion                   ... FOSTER-BOYS (AUGMENTED HESSIAN)
Doing the dipole integrals     ... o.k.
Initial value of the localization sum :    44.677682
ITERATION   0 : L=   44.6776884043 DL=  6.17e-06 (AVERGE_DL)=    0.0007853511 
ITERATION   1 : L=   44.6776884043 DL=  0.00e+00 (AVERGE_DL)=    0.0000000000 
LOCALIZATION SUM CONVERGED

------------------------------------------------------
AUGMENTED HESSIAN OPTIMIZATION OF FOSTER-BOYS ORBITALS
------------------------------------------------------

Spin operator:           0
Orbital window:          0 to 4
Number of iterations:    128
Gradient tolerance:      1.000e-06
Number of pairs:         10
Davidson threshold:      2000
Diagonalization method:  LAPACK
Iter:    0   L: 44.6776884043   Grad. norm: 2.272441e-05
   *** Likely close to a maximum now. ***
       Augmented Hessian eigenvalues:  4.57e-12 -2.74e+01 -2.87e+01 -2.87e+01 ... 
Iter:    1   L: 44.6776884043   Grad. norm: 4.158203e-18
LOCALIZATION HAS CONVERGED.

Eigenvalues of the Hessian:
  0 -2.745e+01
  1 -2.867e+01
  2 -2.871e+01
  3 -2.906e+01
  4 -7.540e+01
  5 -7.963e+01
  6 -7.977e+01
  7 -1.166e+02
  8 -1.823e+02
  9 -2.448e+02


------------------------------------------------------------------------------- 
                    LOCALIZED MOLECULAR ORBITAL COMPOSITIONS                   
------------------------------------------------------------------------------- 

The Mulliken populations for each LMO on each atom are computed
The LMO`s will be ordered according to atom index and type
  (A) Strongly localized MO`s have populations of >=0.950 on one atom
  (B) Two center bond orbitals have populations of >=0.850 on two atoms
  (C) Other MO`s are considered to be `delocalized`

FOUND  -   5 strongly local MO`s
       -   0 two center bond MO`s
       -   0 significantly delocalized MO`s

Rather strongly localized orbitals:
MO   4:   4C  -   1.000721
MO   3:   3O  -   0.999662
MO   2:   2C  -   1.000636
MO   1:   1O  -   0.999584
MO   0:   0C  -   1.000729
Localized MO's were stored in: Formaldehyde_dimethylacetal_ag_dimethoxymethane.proc0.loc

Warning: internal orbitals are localized - no re-canonicalization of internal orbitals

--------------------------
CLOSED-SHELL FOCK OPERATOR
--------------------------

RI-JK section for the Fock operator:
  RHF full Fock operator         ... done
  RHF frozen core Fock operator  ... done
Time needed for Fock operator              ...            1.036 sec
Reference energy                           ...   -268.053461635

--------------
DLPNO SETTINGS (2015 fully linear scaling implementation)
--------------

TCutMKN:           1.000e-03
TCutPAO:           1.000e-03
TCutPNO:           1.000e-07
TCutPNOSingles:    3.000e-09
TCutEN:            9.700e-01
TCutPAOExt:        1.000e-01
TCutPairs:         1.000e-05
TCutPre:           1.000e-07
TCutOSV:           1.000e-06
TCutDOij:          1.000e-05
TCutDO:            5.000e-03
TCutC:             1.000e-04
TCutCPAO:          1.000e-03
TCutCMO:           1.000e-03
TScaleDOMP2PreScr: 2.000e+00
TScaleMKNMP2PreScr:1.000e+01
TScalePNOMP2PreScr:1.000e+00
PAO overlap thresh 1.000e-08
Using PNOs for Singles Fock computation
Use new domains
Use fully linear algorithm
TCutTNO:           1.000e-09
TCutMP2Pairs:      1.000e-06
TCutDOStrong:      2.000e-03
TCutMKNStrong:     1.000e-02
TCutMKNWeak:       1.000e-01
TCutDOWeak:        4.000e-03
NTCutTNO:          1

--------------------------
Calculating differential overlap integrals ... ok
--------------------------
ELECTRON PAIR PRESCREENING
--------------------------

Dipole-based pair screening          .... used

   TCutDOij = 1.000000e-05
   TCutPre  = 1.000000e-07
   .... Finished loop over pairs
Total time spent in the prescreening                  ...     0.000 sec
sum of pair energies estimated for screened out pairs ...       0.000000000000 Eh
Thresholds for map construction and integral transformation for crude MP2:
   TCutMKN                    ...     1.0e-02
   TCutDO                     ...     1.0e-02
   TCutPairs                  ...     1.0e-05
   TCutPNO_CrudeMP2           ...     1.0e-07
   TCutPNOSingles_CrudeMP2    ...     3.0e-09
--------------------------------
LOCAL RI TRANSFORMATION (IAVPAO)
--------------------------------

Orbital window:       5 to 20
Number of PAOs:     262
Basis functions:    262 (98 shells)
Aux. functions:     645 (195 shells)

Processing maps (0.0 sec)
Average map sizes:
   Aux shells -> MOs              16.0
   Aux shells -> PAOs            262.0
   MOs        -> AO shells        98.0
   PAOs       -> AO shells        98.0

Calculating integrals (0.4 sec, 20.636 MB)
Sorting integrals (0.0 sec, 20.629 MB)
Total time for the integral transformation: 0.5 sec
--------------------------------
INITIAL GUESS AND PNO GENERATION
--------------------------------

PNO truncation parameters                   .... 
    PAOOverlapThresh   =        1.000e-08

    TCutPairs          =        1.000e-05
    TCutPNO            =        1.000e-07
    TCutPNOSingles     =        3.000e-09
    TCutMP2Pairs       =        1.000e-06
    TCutMKN            =        1.000e-02
    TCutDO             =        1.000e-02

Pair selection                          .... not used
Type of local MP2 treatment                 .... semi-local MP2
Strategy for PNO selection                  .... occupation number selection
Pair density normalization                  .... MP2 norm
Spin component scaling                      .... not used

   .... Finished loop over pairs
Making pair pair interaction lists          ... done

                       ===========================
                        136 OF  136 PAIRS ARE KEPT CCSD PAIRS
                          0 OF  136 PAIRS ARE KEPT MP2 PAIRS FOR (T)
                          0 OF  136 PAIRS ARE SKIPPED
                       ===========================

Total time spent in the initial guess                 ...     0.783 sec
SL-MP2 correlation energy (all non-screened pairs)    ...      -0.969725055501 Eh

Initial PNO correlation energy                        ...      -0.968918706723 Eh
sum of pair energies prescreened and skipped MP2 pairs...       0.000000000000 Eh
sum of pair energies of crude MP2 skipped pairs only  ...       0.000000000000 Eh
sum of MP2 pair energies for pairs that were not kept ...       0.000000000000 Eh
sum of PNO error estimates for the kept pairs         ...      -0.000806348778 Eh
                                                          --------------------
sum of all corrections                                         -0.000806348778
Initial total correlation energy                               -0.969725055501
Thresholds for map construction and integral transformation for fine MP2 and CCSD(T) calculation:
   TCutMKN   ...     1.0e-03
   TCutDO    ...     5.0e-03
   TCutPairs ...     1.0e-05
   TCutCMO   ...     1.0e-03
   TCutCPAO  ...     1.0e-03

Thresholds for map construction and integral transformation for strong Triples:
   TCutMKN   ...     1.0e-02
   TCutDO    ...     1.0e-02
   TCutCMO   ...     1.0e-03
   TCutCPAO  ...     1.0e-03

Thresholds for map construction and integral transformation for weak Triples:
   TCutMKN   ...     1.0e-01
   TCutDO    ...     2.0e-02
   TCutCMO   ...     1.0e-03
   TCutCPAO  ...     1.0e-03

--------------------------------
LOCAL RI TRANSFORMATION (IAVPAO)
--------------------------------

Orbital window:       5 to 20
Number of PAOs:     262
Basis functions:    262 (98 shells)
Aux. functions:     645 (195 shells)

Processing maps (0.0 sec)
Average map sizes:
   Aux shells -> MOs              16.0
   Aux shells -> PAOs            262.0
   MOs        -> AO shells        98.0
   PAOs       -> AO shells        98.0

Calculating integrals (0.4 sec, 20.636 MB)
Sorting integrals (0.0 sec, 20.629 MB)
Total time for the integral transformation: 0.4 sec
--------------------------------
INITIAL GUESS AND PNO GENERATION
--------------------------------

PNO truncation parameters                   .... 
    ScaleTCutPNO       =        1.000e-02
    PAOOverlapThresh   =        1.000e-08

    TCutPairs          =        1.000e-05
    TCutPNO            =        1.000e-07
    TCutPNOSingles     =        3.000e-09
    TCutMP2Pairs       =        1.000e-06
    TCutMKN            =        1.000e-03
    TCutDO             =        5.000e-03

Pair selection                          .... not used
Type of local MP2 treatment                 .... full local PMP2
Strategy for PNO selection                  .... occupation number selection
Pair density normalization                  .... MP2 norm
Spin component scaling                      .... not used

PASS-1: Formation of initial guess LMP2 amplitudes
Initial amplitudes guess done. Entering LMP2 iteration loop:
   Max. no of iterations          ...  50
   Energy convergence tolerance   ...    1.0e-07
   Residual convergence tolerance ...    5.0e-07
   Fock matrix cutoff             ...    1.0e-05 Eh
   DIIS convergence acceleration parameters:
        Max # vectors in DIIS     ... 7
        Start iteration of DIIS   ... 0
        Levelshift                ... 2.000e-01
        Damping factor 1          ... 5.000e-01
        Damping factor 2          ... 1.000e+00
   L-MP2 PNO cut-off              ...   1.0e-09
   L-MP2 PNO cut-off (core)       ...   1.0e-11
                           *** Turning on DIIS ***
LMP2-Iter=   0:  ELMP2= -0.989571596221  DE=   2.0e-02 RMAX=   5.9e-03
LMP2-Iter=   1:  ELMP2= -0.999392885317  DE=   9.8e-03 RMAX=   2.4e-03
LMP2-Iter=   2:  ELMP2= -1.000915633380  DE=   1.5e-03 RMAX=   5.2e-04
LMP2-Iter=   3:  ELMP2= -1.001095963753  DE=   1.8e-04 RMAX=   1.6e-04
LMP2-Iter=   4:  ELMP2= -1.001105465950  DE=   9.5e-06 RMAX=   2.1e-05
LMP2-Iter=   5:  ELMP2= -1.001104417264  DE=   1.0e-06 RMAX=   6.2e-06
LMP2-Iter=   6:  ELMP2= -1.001104253075  DE=   1.6e-07 RMAX=   1.2e-06
LMP2-Iter=   7:  ELMP2= -1.001104239245  DE=   1.4e-08 RMAX=   2.8e-07
LMP2-Iter=   8:  ELMP2= -1.001104249280  DE=   1.0e-08 RMAX=   5.4e-08 => CONVERGED
PASS-2: Formation of Pair natural orbitals
   .... Finished loop over pairs

 PNO Occupation Number Statistics: 
  | Av. % of trace(Dij) retained        ...  99.540271305904
  | sigma^2 in % of trace(Dij) retained ...   4.42e-01
  | Av. % of trace(Di) retained         ...  99.999721862660
  | sigma^2 in % of trace(Di) retained  ...   1.05e-08
 Distributions of % trace(Dij) recovered:
  |       >= 99.9  ...    47 ( 34.6 % of all pairs)
  |   [90.0, 99.0) ...    23 ( 16.9 % of all pairs)
  |   [99.0, 99.9) ...    66 ( 48.5 % of all pairs)
 Distributions of % trace(Di) recovered :
  |       >= 99.9  ...    16 (100.0 % of all I-pairs )

Making pair pair interaction lists          ... done

                       ===========================
                        136 OF  136 PAIRS ARE KEPT
                       ===========================

Total time spent in the initial guess                 ...     5.532 sec
L-MP2 correlation energy (all non-screened pairs)     ...      -1.001104249280 Eh
L-MP2 PNO error correction                            ...      -0.000014430920 Eh
                                                          --------------------
Initial total L-MP2 energy (non-screened pairs)       ...      -1.001118680201 Eh

Initial PNO correlation energy                        ...      -1.000353357820 Eh
sum of pair energies estimated for screened out pairs ...       0.000000000000 Eh
sum of MP2 pair energies for pairs that were not kept ...       0.000000000000 Eh
sum of PNO error estimates for the kept pairs         ...      -0.000765322381 Eh
                                                          --------------------
sum of all corrections                                         -0.000765322381
Initial total correlation energy                               -1.001118680201
Thresholds for map construction and integral transformation for fine MP2 and CCSD(T) calculation:
   TCutMKN   ...     1.0e-03
   TCutDO    ...     5.0e-03
   TCutPairs ...     1.0e-05
   TCutCMO   ...     1.0e-03
   TCutCPAO  ...     1.0e-03

Time for aux screen maps:            0.002
Time for maps after fine MP2:            0.007
-----------------------------
LOCAL RI TRANSFORMATION (IJV)
-----------------------------

Orbital window:       5 to 20
Basis functions:    262 (98 shells)
Aux. functions:     645 (195 shells)

Processing maps (0.0 sec)
Average map sizes:
   Aux shells -> MOs(i)           16.0
   Aux shells -> MOs(j)           16.0
   MOs        -> AO shells        98.0

Calculating integrals (0.4 sec, 1.267 MB)
Sorting integrals (0.0 sec, 1.260 MB)
Total time for the integral transformation: 0.4 sec
--------------------------------
LOCAL RI TRANSFORMATION (VABPAO)
--------------------------------

Number of PAOs:     262
Basis functions:    262 (98 shells)
Aux. functions:     645 (195 shells)

Processing maps (0.0 sec)
Average map sizes:
   Aux shells -> PAOs            262.0
   PAOs       -> AO shells        98.0

Calculating integrals (0.9 sec, 632.134 MB)
Finished


-------------------------------------
Pair Pair Term precalculation with     
RI-(ij|mn) and (im|jn) transformation  
ON THE FLY                             
-------------------------------------

   IBatch   1 (of   1)              ... done (   21.960 sec)
Total EXT                           ...          21.960 sec

---------------------
RI-PNO TRANSFORMATION
---------------------

Total Number of PNOs                   ...  5522
Average number of PNOs per pair        ...    40
Maximal number of PNOs per pair        ...    63
   #pairs with  1 -  5 PNOs   :    0
   #pairs with  6 - 10 PNOs   :   10
   #pairs with 11 - 15 PNOs   :    6
   #pairs with 16 - 20 PNOs   :    8
   #pairs with 21 - 25 PNOs   :    8
   #pairs with 26 - 30 PNOs   :   12
   #pairs with 31 - 35 PNOs   :    8
   #pairs with 36 - 40 PNOs   :    3
   #pairs with 41 - 45 PNOs   :    7
   #pairs with 46 - 50 PNOs   :   26
   #pairs with 51 - 55 PNOs   :   16
   #pairs with 56 - 60 PNOs   :   20
   #pairs with 61 - 65 PNOs   :   12

Generation of (ij|ab)[P] integrals            ... on
Generation of (ia|bc)[P],(ja|bc)[P] integrals ... on
Storage of 3 and 4 external integrals         ... on
Generation of ALL (ka|bc)[P] integrals        ... on
Keep RI integrals in memory                   ... off

Ibatch:  1 (of  1)
Starting 2-4 index PNO integral generation ... done

Timings:
Total PNO integral transformation time     ...          9.583 sec
Size of the 3-external file                ...       105 MB
Size of the 4-external file                ...       722 MB
Size of the IKJL file                      ...         0 MB
Size of the all 3-external file            ...       847 MB
Size of the 1-external file                ...         2 MB

Making pair/pair overlap matrices          ... done (    0.820 sec)
Size of the pair overlap file              ... 176 MB
Redoing the guess amplitudes               ... done (    0.002 sec)

-------------------------
FINAL STARTUP INFORMATION
-------------------------

E(0)                                       ...   -268.053461635
E(L-MP2)                                   ...     -1.001118680
E(L-MP2) including corrections             ...     -1.001118680
Initial E(tot)                             ...   -269.054580316
<T|T>                                      ...      0.244879425
Number of pairs included                   ... 136
Total number of pairs                      ... 136

------------------------------------------------
                  RHF COUPLED CLUSTER ITERATIONS
------------------------------------------------

Number of PNO amplitudes to be optimized   ...       264286
Number of non-PNO amplitudes               ...      7899016
Untruncated number of regular amplitudes   ...      7899016

Iter       E(tot)           E(Corr)          Delta-E          Residual     Time
  0   -269.023106586     -0.968879628      0.032239052      0.014834788    5.29
                           *** Turning on DIIS ***
  1   -269.061746307     -1.007519349     -0.038639721      0.007081911    5.29
  2   -269.087428600     -1.033201642     -0.025682293      0.002765987    5.34
  3   -269.092302526     -1.038075568     -0.004873926      0.001041162    5.37
  4   -269.093492314     -1.039265357     -0.001189788      0.000502910    9.45
  5   -269.093726358     -1.039499400     -0.000234043      0.000208763    5.35
  6   -269.093779125     -1.039552167     -0.000052767      0.000080527    5.29
  7   -269.093788031     -1.039561073     -0.000008906      0.000031313    5.41
  8   -269.093789337     -1.039562380     -0.000001307      0.000009664    5.36
               --- The Coupled-Cluster iterations have converged ---

----------------------
COUPLED CLUSTER ENERGY
----------------------

E(0)                                       ...   -268.053461635
E(CORR)(strong-pairs)                      ...     -1.039562380
E(CORR)(weak-pairs)                        ...     -0.000765322
E(CORR)(corrected)                         ...     -1.040327702
E(TOT)                                     ...   -269.093789337
Singles Norm <S|S>**1/2                    ...      0.056817428  
T1 diagnostic                              ...      0.010043997  

------------------
LARGEST AMPLITUDES
------------------
  17-> 25  17-> 25       0.039896
  14-> 27  14-> 27       0.037202
  11-> 21  11-> 21       0.033403
  16-> 25  16-> 25       0.029993
   9-> 21   9-> 21       0.029975
  17-> 21  17-> 21       0.029358
  19-> 27  19-> 27       0.029215
  12-> 21  12-> 21       0.028119
  16-> 21  16-> 21       0.028061
  20-> 21  20-> 21       0.027989
  19-> 21  19-> 21       0.027969
  15-> 21  15-> 21       0.027830
  14-> 21  14-> 21       0.026891
  14-> 21  14-> 27       0.026876
  14-> 27  14-> 21       0.026876
  10-> 21  10-> 21       0.026639


-------------------------------------------
DLPNO BASED TRIPLES CORRECTION
-------------------------------------------

Singles multiplier          ...  1.000000
TCutTNO                     ... 1.000e-09
TCutMP2Pairs                ... 1.000e-06
TCutDOStrong                ... 1.000e-02
TCutMKNStrong               ... 1.000e-02
TCutDOWeak                  ... 2.000e-02
TCutMKNWeak                 ... 1.000e-01

Fragment selection                          .... not used
Number of Triples that are to be computed   ...       800

 . . . . . . . . .
10% done  
20% done  
30% done  
40% done  
50% done  
60% done  
70% done  
80% done  
90% done               (     51.967 sec)
Triples timings:
Total time for T0               ...    55.229 sec
Total time for Iterative (T)    ...     0.000 sec
Total time of overall (T)       ...    57.248 sec

Triples List generation         ...     0.000 sec
TNO generation                  ...     3.258 sec
Pair density generation         ...     0.003 sec
Look up tables                  ...     0.000 sec
Generating 3-index integrals    ...    32.263 sec
  Make 4-ind.int. from 3-ind.int...     7.418 sec
  Projecting amplitudes (D + S) ...     3.344 sec
  Downprojecting integrals      ...     0.001 sec
  Energy contr. (sum over a,b,c)...     2.391 sec
Fitting ET(->0)                 ...     0.000 sec

Everything after 3-index        ...    19.703 sec

Timing details:
 TNO integrals                  ...    38.438 sec
   Reading 3-index integrals    ...     0.108 sec
   Sorting integrals            ...     5.024 sec
       Sorting integrals 1      ...     0.001 sec
       Sorting integrals 2      ...     2.220 sec
       Sorting integrals 3      ...     0.230 sec
       Sorting integrals 4      ...     0.011 sec
       Sorting integrals 5      ...     0.058 sec
       Sorting integrals 6      ...     2.505 sec
   Calculating local VM**-1/2   ...     0.234 sec
   Orthogonal. integrals        ...     0.381 sec
   Multipl. 3-index integrals   ...    32.690 sec
   All concerning IRIab (w/TNO) ...     4.097 sec

 Calculate W0/W1                ...     6.547 sec
 W 3-ext contribution           ...     3.690 sec
 W 3-int contribution           ...     0.923 sec
 Sorting W                      ...     1.833 sec

 V exchange contribution        ...     0.871 sec

 Timings for Triples without generation
     of 3-index integrals       ...    19.702 sec
       0 weak pairs             ...    19.702 sec
       1 weak pair              ...     0.000 sec
       2 weak pairs             ...     0.000 sec
       3 weak pairs             ...     0.000 sec
  Extra time for extrapolation  ...     0.000 sec

Number of Triples   (0, 1, 2, 3 weak pairs; overall):    800       0       0       0  (   800)
Number of Atoms     (0, 1, 2, 3 weak pairs; overall):   12.5     0.0     0.0     0.0  (    13)
Number of PAOs      (0, 1, 2, 3 weak pairs; overall):  255.0     0.0     0.0     0.0  (   262)
Number of AuxFcns   (0, 1, 2, 3 weak pairs; overall):  394.8     0.0     0.0     0.0  (   645)
Number of TNOs      (0, 1, 2, 3 weak pairs         ):   93.1     0.0     0.0     0.0
Aver. Number of NTNO, Atoms, PAOs, AuxFcns / Triples:    800    93.1    12.5   255.0   394.8

Triples Correction (T)                     ...     -0.037554088
Final correlation energy                   ...     -1.077881789
E(CCSD)                                    ...   -269.093789337
E(CCSD(T))                                 ...   -269.131343425


Maximum memory used throughout the entire calculation: 3823.5 MB


------------------------------------------------------------------------------- 
                                     TIMINGS                                   
------------------------------------------------------------------------------- 


Total execution time                   ...      156.309 sec

Localization of occupied MO's          ...        0.468 sec (  0.3%)
Fock Matrix Formation                  ...        1.036 sec (  0.7%)
Global overlap, Fock, MKN matrices     ...        0.149 sec (  0.1%)
Differential overlap integrals         ...        0.068 sec (  0.0%)
Organizing maps                        ...        0.022 sec (  0.0%)
RI 3-index integral generations        ...        2.277 sec (  1.5%)
RI-PNO integral transformation         ...       36.078 sec ( 23.1%)
Initial Guess                          ...        6.363 sec (  4.1%)
DIIS Solver                            ...        0.817 sec (  0.5%)
State Vector Update                    ...        0.018 sec (  0.0%)
Sigma-vector construction              ...       51.994 sec ( 33.3%)
  <D|H|D>(0-ext)                       ...        1.053 sec (  2.0% of sigma)
  <D|H|D>(2-ext Fock)                  ...        0.007 sec (  0.0% of sigma)
  <D|H|D>(2-ext)                       ...        4.285 sec (  8.2% of sigma)
  <D|H|D>(4-ext)                       ...        6.628 sec ( 12.7% of sigma)
  <D|H|D>(4-ext-corr)                  ...       27.984 sec ( 53.8% of sigma)
  CCSD doubles correction              ...        0.085 sec (  0.2% of sigma)
  <S|H|S>                              ...        0.213 sec (  0.4% of sigma)
  <S|H|D>(1-ext)                       ...        0.141 sec (  0.3% of sigma)
  <D|H|S>(1-ext)                       ...        0.005 sec (  0.0% of sigma)
  <S|H|D>(3-ext)                       ...        0.240 sec (  0.5% of sigma)
  Fock-dressing                        ...        5.043 sec (  9.7% of sigma)
  Singles amplitudes                   ...        0.212 sec (  0.4% of sigma)
  (ik|jl)-dressing                     ...        0.798 sec (  1.5% of sigma)
  (ij|ab),(ia|jb)-dressing             ...        5.023 sec (  9.7% of sigma)
  Pair energies                        ...        0.004 sec (  0.0% of sigma)
Total Time for computing (T)           ...       57.284 sec ( 36.6% of ALL)


-------------------------   --------------------
FINAL SINGLE POINT ENERGY      -269.131343424802
-------------------------   --------------------


                            ***************************************
                            *     ORCA property calculations      *
                            ***************************************

                                    ---------------------
                                    Active property flags
                                    ---------------------
   (+) Dipole Moment


------------------------------------------------------------------------------
                       ORCA ELECTRIC PROPERTIES CALCULATION
------------------------------------------------------------------------------

Dipole Moment Calculation                       ... on
Quadrupole Moment Calculation                   ... off
Polarizability Calculation                      ... off
GBWName                                         ... Formaldehyde_dimethylacetal_ag_dimethoxymethane.gbw
Electron density file                           ... Formaldehyde_dimethylacetal_ag_dimethoxymethane.scfp.tmp
The origin for moment calculation is the CENTER OF MASS  = (-0.041306,  0.029862 -0.063939)

-------------
DIPOLE MOMENT
-------------
                                X             Y             Z
Electronic contribution:     -1.33103       1.13576      -2.01539
Nuclear contribution   :      1.73470      -1.25411       2.68545
                        -----------------------------------------
Total Dipole Moment    :      0.40367      -0.11835       0.67005
                        -----------------------------------------
Magnitude (a.u.)       :      0.79116
Magnitude (Debye)      :      2.01096



--------------------
Rotational spectrum 
--------------------
 
Rotational constants in cm-1:     0.479700     0.091623     0.084052 
Rotational constants in MHz : 14381.045139  2746.795403  2519.813059 

 Dipole components along the rotational axes: 
x,y,z [a.u.] :     0.406444    -0.113080     0.669286 
x,y,z [Debye]:     1.033098    -0.287427     1.701190 

 

Timings for individual modules:

Sum of individual times         ...      163.489 sec (=   2.725 min)
GTO integral calculation        ...        0.516 sec (=   0.009 min)   0.3 %
SCF iterations                  ...        6.434 sec (=   0.107 min)   3.9 %
MDCI module                     ...      156.539 sec (=   2.609 min)  95.7 %
                             ****ORCA TERMINATED NORMALLY****
TOTAL RUN TIME: 0 days 0 hours 2 minutes 43 seconds 771 msec
Formaldehyde_dimethylacetal_ag_dimethoxymethane.gbw -> /home1/pantazis/klk/xyz_1/Oxygen_compounds/Formaldehyde_dimethylacetal_ag_dimethoxymethane.gbw
Formaldehyde_dimethylacetal_ag_dimethoxymethane.job -> /home1/pantazis/klk/xyz_1/Oxygen_compounds/Formaldehyde_dimethylacetal_ag_dimethoxymethane.job
Formaldehyde_dimethylacetal_ag_dimethoxymethane.loc -> /home1/pantazis/klk/xyz_1/Oxygen_compounds/Formaldehyde_dimethylacetal_ag_dimethoxymethane.loc
Formaldehyde_dimethylacetal_ag_dimethoxymethane.nodes -> /home1/pantazis/klk/xyz_1/Oxygen_compounds/Formaldehyde_dimethylacetal_ag_dimethoxymethane.nodes
Formaldehyde_dimethylacetal_ag_dimethoxymethane.prop -> /home1/pantazis/klk/xyz_1/Oxygen_compounds/Formaldehyde_dimethylacetal_ag_dimethoxymethane.prop
Formaldehyde_dimethylacetal_ag_dimethoxymethane_property.txt -> /home1/pantazis/klk/xyz_1/Oxygen_compounds/Formaldehyde_dimethylacetal_ag_dimethoxymethane_property.txt
Formaldehyde_dimethylacetal_ag_dimethoxymethane.xyz -> /home1/pantazis/klk/xyz_1/Oxygen_compounds/Formaldehyde_dimethylacetal_ag_dimethoxymethane.xyz
cp: cannot stat Formaldehyde_dimethylacetal_ag_dimethoxymethane.asa.inp: No such file or directory
