! Job execution by suborca V 6.07 on ZEUS !
Job started from zeus1, running /scratch/pantazis/Formaldehyde_dimethylacetal_g_ecl_dimethoxymethane__e3hPAS/orca/orca copied from /opt/orca on zeussn129 in /scratch/pantazis/Formaldehyde_dimethylacetal_g_ecl_dimethoxymethane__e3hPAS
Job execution start: Thu Jun 27 14:02:34 CEST 2019
Shared library path: /scratch/pantazis/Formaldehyde_dimethylacetal_g_ecl_dimethoxymethane__e3hPAS/orca:/opt/openmpi_1.10.2/lib:/opt/intel/mkl/lib/intel64:/opt/intel/lib/intel64:
PBS Job ID is: 158136.icqc
izeussn129
izeussn129
izeussn129
izeussn129
izeussn129
izeussn129
izeussn129
izeussn129

                                 *****************
                                 * O   R   C   A *
                                 *****************

           --- An Ab Initio, DFT and Semiempirical electronic structure package ---

                  #######################################################
                  #                        -***-                        #
                  #          Department of theory and spectroscopy      #
                  #               Directorship: Frank Neese             #
                  #        Max Planck Institute fuer Kohlenforschung    #
                  #                Kaiser Wilhelm Platz 1               #
                  #                 D-45470 Muelheim/Ruhr               #
                  #                      Germany                        #
                  #                                                     #
                  #                  All rights reserved                #
                  #                        -***-                        #
                  #######################################################


                         Program Version 4.1.x  -  STABLE  -
                                (SVN: $Rev: 14094$)
                ($Date: 2019-06-14 15:01:15 +0200 (Fri, 14 Jun 2019) $)

                         (BUILD: $Sun Jun 23 06:18:31 CEST 2019$)


 With contributions from (in alphabetic order):
   Daniel Aravena         : Magnetic Properties
   Michael Atanasov       : Ab Initio Ligand Field Theory
   Alexander A. Auer      : GIAO ZORA
   Ute Becker             : Parallelization
   Giovanni Bistoni       : ED, Open-shell LED
   Martin Brehm           : Molecular dynamics
   Dmytro Bykov           : SCF Hessian
   Vijay G. Chilkuri      : MRCI spin determinant printing
   Dipayan Datta          : RHF DLPNO-CCSD density
   Achintya Kumar Dutta   : EOM-CC, STEOM-CC
   Dmitry Ganyushin       : Spin-Orbit,Spin-Spin,Magnetic field MRCI
   Miquel Garcia          : C-PCM Hessian
   Yang Guo               : DLPNO-NEVPT2, CIM, IAO-localization
   Andreas Hansen         : Spin unrestricted coupled pair/coupled cluster methods
   Benjamin Helmich-Paris : CASSCF linear response (MC-RPA)
   Lee Huntington         : MR-EOM, pCC
   Robert Izsak           : Overlap fitted RIJCOSX, COSX-SCS-MP3, EOM
   Christian Kollmar      : KDIIS, OOCD, Brueckner-CCSD(T), CCSD density
   Simone Kossmann        : Meta GGA functionals, TD-DFT gradient, OOMP2, MP2 Hessian
   Martin Krupicka        : AUTO-CI
   Lucas Lang             : DCDCAS
   Dagmar Lenk            : GEPOL surface, SMD
   Dimitrios Liakos       : Extrapolation schemes; parallel MDCI
   Dimitrios Manganas     : ROCIS; embedding schemes
   Dimitrios Pantazis     : SARC Basis sets
   Taras Petrenko         : DFT Hessian,TD-DFT gradient, ASA, ECA, R-Raman, ABS, FL, XAS/XES, NRVS
   Peter Pinski           : DLPNO-MP2, DLPNO-MP2 Gradient
   Christoph Reimann      : Effective Core Potentials
   Marius Retegan         : Local ZFS, SOC
   Christoph Riplinger    : Optimizer, TS searches, QM/MM, DLPNO-CCSD(T), (RO)-DLPNO pert. Triples
   Tobias Risthaus        : Range-separated hybrids, TD-DFT gradient, RPA, STAB
   Michael Roemelt        : Restricted open shell CIS
   Masaaki Saitow         : Open-shell DLPNO
   Barbara Sandhoefer     : DKH picture change effects
   Avijit Sen             : IP-ROCIS
   Kantharuban Sivalingam : CASSCF convergence, NEVPT2, FIC-MRCI
   Bernardo de Souza      : ESD, SOC TD-DFT
   Georgi Stoychev        : AutoAux, RI-MP2 NMR
   Willem Van den Heuvel  : Paramagnetic NMR
   Boris Wezisla          : Elementary symmetry handling
   Frank Wennmohs         : Technical directorship


 We gratefully acknowledge several colleagues who have allowed us to
 interface, adapt or use parts of their codes:
   Stefan Grimme, W. Hujo, H. Kruse,             : VdW corrections, initial TS optimization,
                  C. Bannwarth                     DFT functionals, gCP, sTDA/sTD-DF
   Ed Valeev                                     : LibInt (2-el integral package), F12 methods
   Garnet Chan, S. Sharma, J. Yang, R. Olivares  : DMRG
   Ulf Ekstrom                                   : XCFun DFT Library
   Mihaly Kallay                                 : mrcc  (arbitrary order and MRCC methods)
   Andreas Klamt, Michael Diedenhofen            : otool_cosmo (COSMO solvation model)
   Jiri Pittner, Ondrej Demel                    : Mk-CCSD
   Frank Weinhold                                : gennbo (NPA and NBO analysis)
   Christopher J. Cramer and Donald G. Truhlar   : smd solvation model
   Lars Goerigk                                  : TD-DFT with DH, B97 family of functionals
   V. Asgeirsson, H. Jonsson                     : NEB implementation
   FAccTs GmbH                                   : IRC, NEB, NEB-TS, Multilevel


 Your calculation uses the libint2 library for the computation of 2-el integrals
 For citations please refer to: http://libint.valeyev.net

 This ORCA versions uses:
   CBLAS   interface :  Fast vector & matrix operations
   LAPACKE interface :  Fast linear algebra routines
   SCALAPACK package :  Parallel linear algebra routines




***************************************
The coordinates will be read from file: Formaldehyde_dimethylacetal_g_ecl_dimethoxymethane.xyz
***************************************


----- Orbital basis set information -----
Your calculation utilizes the basis: cc-pVTZ 
       H, B-Ne : Obtained from the ccRepo (grant-hill.group.shef.ac.uk/ccrepo) Feb. 2017
                 T. H. Dunning, Jr., J. Chem. Phys. 90, 1007 (1989)
            He : Obtained from the ccRepo (grant-hill.group.shef.ac.uk/ccrepo) Feb. 2017
                 D. E. Woon, T. H. Dunning, Jr., J. Chem. Phys. 100, 2975 (1994)
  Li-Be, Na-Mg : Obtained from the ccRepo (grant-hill.group.shef.ac.uk/ccrepo) Feb. 2017
                 B. P. Prascher, D. E. Woon, K. A. Peterson, T. H. Dunning, Jr., A. K. Wilson, Theor. Chem. Acc. 128, 69 (2011)
         Al-Ar : Obtained from the ccRepo (grant-hill.group.shef.ac.uk/ccrepo) Feb. 2017
                 D. E. Woon, T. H. Dunning, Jr., J. Chem. Phys. 98, 1358 (1993)
            Ca : Obtained from the Peterson Research Group Website (tyr0.chem.wsu.edu/~kipeters) Feb. 2017
                 J. Koput, K. A. Peterson, J. Phys. Chem. 106, 9595 (2002)
         Sc-Zn : Obtained from the ccRepo (grant-hill.group.shef.ac.uk/ccrepo) Feb. 2017
                 N. B. Balabanov, K. A. Peterson, J. Chem. Phys. 123, 064107 (2005)
                 N. B. Balabanov, K. A. Peterson, J. Chem. Phys. 125, 074110 (2006)
         Ga-Kr : Obtained from the ccRepo (grant-hill.group.shef.ac.uk/ccrepo) Feb. 2017
                 A. K. Wilson, D. E. Woon, K. A. Peterson, T. H. Dunning, Jr., J. Chem. Phys. 110, 7667 (1999)
             Y : Obtained from the ccRepo (grant-hill.group.shef.ac.uk/ccrepo) Feb. 2017
                 K. A. Peterson, D. Figgen, M. Dolg, H. Stoll, J. Chem. Phys. 126, 124101 (2007)
        Ag, Au : Obtained from the Peterson Research Group Website (tyr0.chem.wsu.edu/~kipeters) Feb. 2017
                 K. A. Peterson, C. Puzzarini, Theor. Chem. Acc. 114, 283 (2005)

----- AuxC basis set information -----
Your calculation utilizes the auxiliary basis: cc-pVTZ/C 
  Obtained from the EMSL Basis Set Exchange (bse.pnl.gov) Feb. 2017
  H-He, B-F, Al-Ar, Ga-Kr : F. Weigend, A. Kohn, C. Hattig, J. Chem. Phys. 116, 3175 (2002)
             Li-Be, Na-Mg : C. Haettig, Phys. Chem. Chem. Phys. 7, 59 (2005)
                       Ne : C. Haettig, Phys. Chem. Chem. Phys. 7, 59 (2005)
                            F. Weigend, A. Kohn, C. Hattig, J. Chem. Phys. 116, 3175 (2002)
                    Sc-Zn : J. G. Hill, J. A. Platts, J. Chem. Phys. 128, 044104 (2008)

----- AuxJK basis set information -----
Your calculation utilizes the auxiliary basis: cc-pVTZ/JK 
  H, B-F, Al-Cl, Ga-Br : Obtained from the TURBOMOLE 7.0 basis set library

================================================================================
                                        WARNINGS
                       Please study these warnings very carefully!
================================================================================


WARNING: MDCI localization with Augmented Hessian Foster-Boys
  ===> : Switching off randomization!

WARNING: Post HF methods need fully converged wavefunctions
  ===> : Setting SCFConvForced true
         You can overwrite this default with %scf ConvForced false 


INFO   : the flag for use of LIBINT has been found!

================================================================================
                                       INPUT FILE
================================================================================
NAME = Formaldehyde_dimethylacetal_g_ecl_dimethoxymethane.inp
|  1> ! RHF DLPNO-CCSD(T) cc-pVTZ RIJK cc-pVTZ/JK cc-pVTZ/C
|  2> ! KDIIS SOSCF TightSCF TightPNO
|  3> 
|  4> %pal nprocs 8 end
|  5> 
|  6> %maxcore 8000
|  7> 
|  8> %scf maxiter 300
|  9>      shift shift 0.2 erroff 0.1 end
| 10> end
| 11> 
| 12> * xyzfile 0 1 Formaldehyde_dimethylacetal_g_ecl_dimethoxymethane.xyz 
| 13> 
| 14> 
| 15>                          ****END OF INPUT****
================================================================================

                       ****************************
                       * Single Point Calculation *
                       ****************************

---------------------------------
CARTESIAN COORDINATES (ANGSTROEM)
---------------------------------
  C      1.621610    0.853630    0.011940
  O      1.317170   -0.528610   -0.127670
  C      0.030490   -0.885600    0.291790
  O     -0.982860   -0.319260   -0.517700
  C     -1.873600    0.577040    0.134100
  H      2.670650    0.973250   -0.264950
  H      1.001440    1.468210   -0.651130
  H      1.483850    1.185410    1.052850
  H     -0.011960   -1.973450    0.190080
  H     -0.128190   -0.591170    1.344520
  H     -2.548860    0.958900   -0.634590
  H     -2.469150    0.068710    0.905230
  H     -1.343160    1.422710    0.593910

----------------------------
CARTESIAN COORDINATES (A.U.)
----------------------------
  NO LB      ZA    FRAG     MASS         X           Y           Z
   0 C     6.0000    0    12.011    3.064399    1.613127    0.022563
   1 O     8.0000    0    15.999    2.489091   -0.998928   -0.241261
   2 C     6.0000    0    12.011    0.057618   -1.673541    0.551403
   3 O     8.0000    0    15.999   -1.857336   -0.603314   -0.978311
   4 C     6.0000    0    12.011   -3.540591    1.090448    0.253412
   5 H     1.0000    0     1.008    5.046797    1.839176   -0.500683
   6 H     1.0000    0     1.008    1.892447    2.774515   -1.230457
   7 H     1.0000    0     1.008    2.804070    2.240100    1.989598
   8 H     1.0000    0     1.008   -0.022601   -3.729280    0.359199
   9 H     1.0000    0     1.008   -0.242244   -1.117149    2.540775
  10 H     1.0000    0     1.008   -4.816647    1.812058   -1.199201
  11 H     1.0000    0     1.008   -4.666017    0.129843    1.710637
  12 H     1.0000    0     1.008   -2.538205    2.688532    1.122327

--------------------------------
INTERNAL COORDINATES (ANGSTROEM)
--------------------------------
 C      0   0   0     0.000000000000     0.00000000     0.00000000
 O      1   0   0     1.422238405929     0.00000000     0.00000000
 C      2   1   0     1.399619224682   114.53532975     0.00000000
 O      3   2   1     1.415236121006   112.62888477    66.16802683
 C      4   3   2     1.421834968483   116.01621490   242.44233941
 H      1   2   3     1.091541084018   106.69803899   175.10989117
 H      1   2   3     1.096349045788   111.36764050   294.18588027
 H      1   2   3     1.101158214836   111.02892036    56.35364980
 H      3   2   1     1.093418743712   105.16359020   184.13397897
 H      3   2   1     1.104585361210   110.46913005   303.23252887
 H      5   4   3     1.092097726076   106.56527697   177.00932573
 H      5   4   3     1.098963451758   111.68976862   295.57888965
 H      5   4   3     1.099067595101   111.99205380    58.02869733

---------------------------
INTERNAL COORDINATES (A.U.)
---------------------------
 C      0   0   0     0.000000000000     0.00000000     0.00000000
 O      1   0   0     2.687641084351     0.00000000     0.00000000
 C      2   1   0     2.644897026421   114.53532975     0.00000000
 O      3   2   1     2.674408683534   112.62888477    66.16802683
 C      4   3   2     2.686878698065   116.01621490   242.44233941
 H      1   2   3     2.062713712718   106.69803899   175.10989117
 H      1   2   3     2.071799443725   111.36764050   294.18588027
 H      1   2   3     2.080887456157   111.02892036    56.35364980
 H      3   2   1     2.066261975311   105.16359020   184.13397897
 H      3   2   1     2.087363824226   110.46913005   303.23252887
 H      5   4   3     2.063765613761   106.56527697   177.00932573
 H      5   4   3     2.076739955012   111.68976862   295.57888965
 H      5   4   3     2.076936757407   111.99205380    58.02869733

---------------------
BASIS SET INFORMATION
---------------------
There are 3 groups of distinct atoms

 Group   1 Type C   : 18s5p2d1f contracted to 4s3p2d1f pattern {8811/311/11/1}
 Group   2 Type O   : 18s5p2d1f contracted to 4s3p2d1f pattern {8811/311/11/1}
 Group   3 Type H   : 5s2p1d contracted to 3s2p1d pattern {311/11/1}

Atom   0C    basis set group =>   1
Atom   1O    basis set group =>   2
Atom   2C    basis set group =>   1
Atom   3O    basis set group =>   2
Atom   4C    basis set group =>   1
Atom   5H    basis set group =>   3
Atom   6H    basis set group =>   3
Atom   7H    basis set group =>   3
Atom   8H    basis set group =>   3
Atom   9H    basis set group =>   3
Atom  10H    basis set group =>   3
Atom  11H    basis set group =>   3
Atom  12H    basis set group =>   3
-------------------------------
AUXILIARY BASIS SET INFORMATION
-------------------------------
There are 3 groups of distinct atoms

 Group   1 Type C   : 8s6p5d3f1g contracted to 8s6p5d3f1g pattern {11111111/111111/11111/111/1}
 Group   2 Type O   : 8s6p5d3f1g contracted to 8s6p5d3f1g pattern {11111111/111111/11111/111/1}
 Group   3 Type H   : 4s3p2d1f contracted to 4s3p2d1f pattern {1111/111/11/1}

Atom   0C    basis set group =>   1
Atom   1O    basis set group =>   2
Atom   2C    basis set group =>   1
Atom   3O    basis set group =>   2
Atom   4C    basis set group =>   1
Atom   5H    basis set group =>   3
Atom   6H    basis set group =>   3
Atom   7H    basis set group =>   3
Atom   8H    basis set group =>   3
Atom   9H    basis set group =>   3
Atom  10H    basis set group =>   3
Atom  11H    basis set group =>   3
Atom  12H    basis set group =>   3
-------------------------------
AUXILIARY BASIS SET INFORMATION
-------------------------------
There are 3 groups of distinct atoms

 Group   1 Type C   : 10s7p5d2f1g contracted to 10s7p5d2f1g pattern {1111111111/1111111/11111/11/1}
 Group   2 Type O   : 10s7p5d2f1g contracted to 10s7p5d2f1g pattern {1111111111/1111111/11111/11/1}
 Group   3 Type H   : 4s3p2d1f contracted to 4s3p2d1f pattern {1111/111/11/1}

Atom   0C    basis set group =>   1
Atom   1O    basis set group =>   2
Atom   2C    basis set group =>   1
Atom   3O    basis set group =>   2
Atom   4C    basis set group =>   1
Atom   5H    basis set group =>   3
Atom   6H    basis set group =>   3
Atom   7H    basis set group =>   3
Atom   8H    basis set group =>   3
Atom   9H    basis set group =>   3
Atom  10H    basis set group =>   3
Atom  11H    basis set group =>   3
Atom  12H    basis set group =>   3


           ************************************************************
           *        Program running with 8 parallel MPI-processes     *
           *              working on a common directory               *
           ************************************************************
------------------------------------------------------------------------------
                           ORCA GTO INTEGRAL CALCULATION
                           -- RI-GTO INTEGRALS CHOSEN --
------------------------------------------------------------------------------

                         BASIS SET STATISTICS AND STARTUP INFO

Gaussian basis set:
 # of primitive gaussian shells          ...  194
 # of primitive gaussian functions       ...  378
 # of contracted shells                  ...   98
 # of contracted basis functions         ...  262
 Highest angular momentum                ...    3
 Maximum contraction depth               ...    8
Auxiliary gaussian basis set:
 # of primitive gaussian shells          ...  205
 # of primitive gaussian functions       ...  635
 # of contracted shells                  ...  205
 # of contracted aux-basis functions     ...  635
 Highest angular momentum                ...    4
 Maximum contraction depth               ...    1
Ratio of auxiliary to basis functions    ...  2.42
Integral package used                  ... LIBINT
 One Electron integrals                  ... done
 Ordering auxiliary basis shells         ... done
 Integral threshhold             Thresh  ...  2.500e-11
 Primitive cut-off               TCut    ...  2.500e-12
 Pre-screening matrix                    ... done
 Shell pair data                         ... 
 Ordering of the shell pairs             ... done (   0.001 sec) 4691 of 4851 pairs
 Determination of significant pairs      ... done (   0.000 sec)
 Creation of shell pair data             ... done (   0.001 sec)
 Storage of shell pair data              ... done (   0.001 sec)
 Shell pair data done in (   0.003 sec)
 Computing two index integrals           ... done
 Cholesky decomposition of the V-matrix  ... done


Timings:
 Total evaluation time                   ...   0.350 sec (  0.006 min)
 One electron matrix time                ...   0.064 sec (  0.001 min) = 18.3%
 Schwartz matrix evaluation time         ...   0.185 sec (  0.003 min) = 52.8%
 Two index repulsion integral time       ...   0.036 sec (  0.001 min) = 10.4%
 Cholesky decomposition of V             ...   0.035 sec (  0.001 min) = 10.1%
 Three index repulsion integral time     ...   0.000 sec (  0.000 min) =  0.0%



           ************************************************************
           *        Program running with 8 parallel MPI-processes     *
           *              working on a common directory               *
           ************************************************************
-------------------------------------------------------------------------------
                                 ORCA SCF
-------------------------------------------------------------------------------

------------
SCF SETTINGS
------------
Hamiltonian:
 Ab initio Hamiltonian  Method          .... Hartree-Fock(GTOs)
 RI-approximation to the Coulomb term is turned on
   Number of auxiliary basis functions  .... 635
   RI-JK (J+K treated both via RI)      .... on


General Settings:
 Integral files         IntName         .... Formaldehyde_dimethylacetal_g_ecl_dimethoxymethane
 Hartree-Fock type      HFTyp           .... RHF
 Total Charge           Charge          ....    0
 Multiplicity           Mult            ....    1
 Number of Electrons    NEL             ....   42
 Basis Dimension        Dim             ....  262
 Nuclear Repulsion      ENuc            ....    196.4736249818 Eh

Convergence Acceleration:
 DIIS                   CNVDIIS         .... off
 Newton-Raphson         CNVNR           .... off
 SOSCF                  CNVSOSCF        .... on
   Start iteration      SOSCFMaxIt      ....   150
   Startup grad/error   SOSCFStart      ....  0.003300
 Level Shifting         CNVShift        .... on
   Level shift para.    LevelShift      ....    0.2000
   Turn off err/grad.   ShiftErr        ....    0.1000
 Zerner damping         CNVZerner       .... off
 Static damping         CNVDamp         .... off
 Fernandez-Rico         CNVRico         .... off

SCF Procedure:
 Maximum # iterations   MaxIter         ....   300
 SCF integral mode      SCFMode         .... Direct
   Integral package                     .... LIBINT
 Reset frequency        DirectResetFreq ....    20
 Integral Threshold     Thresh          ....  2.500e-11 Eh
 Primitive CutOff       TCut            ....  2.500e-12 Eh

Convergence Tolerance:
 Convergence Check Mode ConvCheckMode   .... Total+1el-Energy
 Convergence forced     ConvForced      .... 1
 Energy Change          TolE            ....  1.000e-08 Eh
 1-El. energy change                    ....  1.000e-05 Eh
 Orbital Gradient       TolG            ....  1.000e-05
 Orbital Rotation angle TolX            ....  1.000e-05


Diagonalization of the overlap matrix:
Smallest eigenvalue                        ... 9.831e-04
Time for diagonalization                   ...    0.015 sec
Threshold for overlap eigenvalues          ... 1.000e-08
Number of eigenvalues below threshold      ... 0
Time for construction of square roots      ...    0.009 sec
Total time needed                          ...    0.024 sec

-------------------
DFT GRID GENERATION
-------------------

General Integration Accuracy     IntAcc      ...  4.340
Radial Grid Type                 RadialGrid  ... Gauss-Chebyshev
Angular Grid (max. acc.)         AngularGrid ... Lebedev-110
Angular grid pruning method      GridPruning ... 3 (G Style)
Weight generation scheme         WeightScheme... Becke
Basis function cutoff            BFCut       ...    1.0000e-11
Integration weight cutoff        WCut        ...    1.0000e-14
Grids for H and He will be reduced by one unit

# of grid points (after initial pruning)     ...  14752 (   0.0 sec)
# of grid points (after weights+screening)   ...  13814 (   0.0 sec)
nearest neighbour list constructed           ...    0.0 sec
Grid point re-assignment to atoms done       ...    0.0 sec
Grid point division into batches done        ...    0.0 sec
Reduced shell lists constructed in    0.1 sec

Total number of grid points                  ...    13814
Total number of batches                      ...      222
Average number of points per batch           ...       62
Average number of grid points per atom       ...     1063
Average number of shells per batch           ...    78.17 (79.77%)
Average number of basis functions per batch  ...   202.72 (77.38%)
Average number of large shells per batch     ...    62.38 (79.80%)
Average number of large basis fcns per batch ...   160.66 (79.25%)
Average number of aux-shells per batch       ...    78.17 (38.13%)
Average number of aux functions per batch    ...   202.72 (31.93%)
Maximum spatial batch extension              ...  13.98, 11.99, 25.07 au
Average spatial batch extension              ...   0.29,  0.28,  0.36 au

Time for grid setup =    0.081 sec

------------------------------
INITIAL GUESS: MODEL POTENTIAL
------------------------------
Loading Hartree-Fock densities                     ... done
Calculating cut-offs                               ... done
Setting up the integral package                    ... done
Initializing the effective Hamiltonian             ... done
Starting the Coulomb interaction                   ... done (   0.0 sec)
Reading the grid                                   ... done
Mapping shells                                     ... done
Starting the XC term evaluation                    ... done (   0.0 sec)
Transforming the Hamiltonian                       ... done (   0.0 sec)
Diagonalizing the Hamiltonian                      ... done (   0.0 sec)
Back transforming the eigenvectors                 ... done (   0.0 sec)
Now organizing SCF variables                       ... done
                      ------------------
                      INITIAL GUESS DONE (   0.3 sec)
                      ------------------
--------------
SCF ITERATIONS
--------------
ITER       Energy         Delta-E        Max-DP      RMS-DP      [F,P]   Gradient Norm
                             ****Turning on KDIIS(Cayley)****
  0   -267.8418460416   0.000000000000 0.00955149  0.00024045  0.1690135   0.147009272
  1   -267.8965519196  -0.054705878077 0.01786068  0.00029174  0.1551392   0.128964265
  2   -267.9481175892  -0.051565669528 0.02946508  0.00049211  0.1245340   0.104566661
  3   -268.0110185292  -0.062900940052 0.04466367  0.00078315  0.0754152   0.063659050
                      *** Initiating the SOSCF procedure ***
                           *** Shutting down KDIIS ***
                      *** Re-Reading the Fockian *** 
                      *** Removing any level shift *** 
ITER      Energy       Delta-E        Grad      Rot      Max-DP    RMS-DP
  4   -268.05050100  -0.0394824735  0.001354  0.001354  0.002289  0.000057
  5   -268.05063632  -0.0001353209  0.000329  0.000449  0.000827  0.000022
  6   -268.05064336  -0.0000070389  0.000197  0.000140  0.000251  0.000009
  7   -268.05064539  -0.0000020323  0.000030  0.000054  0.000108  0.000004
  8   -268.05064547  -0.0000000735  0.000020  0.000023  0.000034  0.000001
  9   -268.05064549  -0.0000000204  0.000006  0.000004  0.000007  0.000000
                  ***Gradient check signals convergence***
              ***Rediagonalizing the Fockian in SOSCF/NRSCF***

               *****************************************************
               *                     SUCCESS                       *
               *           SCF CONVERGED AFTER  10 CYCLES          *
               *****************************************************


----------------
TOTAL SCF ENERGY
----------------

Total Energy       :         -268.05064549 Eh           -7294.02889 eV

Components:
Nuclear Repulsion  :          196.47362498 Eh            5346.31914 eV
Electronic Energy  :         -464.52427047 Eh          -12640.34802 eV
One Electron Energy:         -755.60455586 Eh          -20561.04527 eV
Two Electron Energy:          291.08028539 Eh            7920.69725 eV

Virial components:
Potential Energy   :         -535.60758520 Eh          -14574.62335 eV
Kinetic Energy     :          267.55693971 Eh            7280.59447 eV
Virial Ratio       :            2.00184524


---------------
SCF CONVERGENCE
---------------

  Last Energy change         ...   -8.4890e-10  Tolerance :   1.0000e-08
  Last MAX-Density change    ...    3.2354e-06  Tolerance :   1.0000e-07
  Last RMS-Density change    ...    1.0627e-07  Tolerance :   5.0000e-09
  Last Orbital Gradient      ...    1.5651e-06  Tolerance :   1.0000e-05
  Last Orbital Rotation      ...    2.6171e-06  Tolerance :   1.0000e-05

             **** THE GBW FILE WAS UPDATED (Formaldehyde_dimethylacetal_g_ecl_dimethoxymethane.gbw) ****
             **** DENSITY FILE WAS UPDATED (Formaldehyde_dimethylacetal_g_ecl_dimethoxymethane.scfp.tmp) ****
             **** ENERGY FILE WAS UPDATED (Formaldehyde_dimethylacetal_g_ecl_dimethoxymethane.en.tmp) ****
----------------
ORBITAL ENERGIES
----------------

  NO   OCC          E(Eh)            E(eV) 
   0   2.0000     -20.558095      -559.4142 
   1   2.0000     -20.557786      -559.4058 
   2   2.0000     -11.327342      -308.2327 
   3   2.0000     -11.278679      -306.9085 
   4   2.0000     -11.271711      -306.7189 
   5   2.0000      -1.406604       -38.2757 
   6   2.0000      -1.341692       -36.5093 
   7   2.0000      -0.983223       -26.7548 
   8   2.0000      -0.923140       -25.1199 
   9   2.0000      -0.847466       -23.0607 
  10   2.0000      -0.688535       -18.7360 
  11   2.0000      -0.683938       -18.6109 
  12   2.0000      -0.672916       -18.3110 
  13   2.0000      -0.607429       -16.5290 
  14   2.0000      -0.598552       -16.2874 
  15   2.0000      -0.587375       -15.9833 
  16   2.0000      -0.540854       -14.7174 
  17   2.0000      -0.494245       -13.4491 
  18   2.0000      -0.479294       -13.0423 
  19   2.0000      -0.444348       -12.0913 
  20   2.0000      -0.428817       -11.6687 
  21   0.0000       0.137277         3.7355 
  22   0.0000       0.169019         4.5992 
  23   0.0000       0.180976         4.9246 
  24   0.0000       0.198605         5.4043 
  25   0.0000       0.211501         5.7552 
  26   0.0000       0.219974         5.9858 
  27   0.0000       0.225948         6.1484 
  28   0.0000       0.249569         6.7911 
  29   0.0000       0.265475         7.2239 
  30   0.0000       0.273586         7.4446 
  31   0.0000       0.339972         9.2511 
  32   0.0000       0.353302         9.6138 
  33   0.0000       0.387621        10.5477 
  34   0.0000       0.409855        11.1527 
  35   0.0000       0.458634        12.4801 
  36   0.0000       0.465105        12.6562 
  37   0.0000       0.506580        13.7848 
  38   0.0000       0.534145        14.5348 
  39   0.0000       0.559054        15.2126 
  40   0.0000       0.571951        15.5636 
  41   0.0000       0.589932        16.0529 
  42   0.0000       0.594671        16.1818 
  43   0.0000       0.604543        16.4505 
  44   0.0000       0.613090        16.6830 
  45   0.0000       0.620189        16.8762 
  46   0.0000       0.630473        17.1560 
  47   0.0000       0.640947        17.4411 
  48   0.0000       0.655307        17.8318 
  49   0.0000       0.661841        18.0096 
  50   0.0000       0.690214        18.7817 
  51   0.0000       0.703181        19.1345 
  52   0.0000       0.714287        19.4367 
  53   0.0000       0.753427        20.5018 
  54   0.0000       0.777180        21.1481 
  55   0.0000       0.843822        22.9616 
  56   0.0000       0.860958        23.4279 
  57   0.0000       0.876561        23.8524 
  58   0.0000       0.907875        24.7045 
  59   0.0000       0.955705        26.0060 
  60   0.0000       0.964091        26.2342 
  61   0.0000       1.009315        27.4649 
  62   0.0000       1.035373        28.1739 
  63   0.0000       1.039220        28.2786 
  64   0.0000       1.082506        29.4565 
  65   0.0000       1.092823        29.7372 
  66   0.0000       1.112761        30.2798 
  67   0.0000       1.142994        31.1025 
  68   0.0000       1.160177        31.5700 
  69   0.0000       1.179668        32.1004 
  70   0.0000       1.192948        32.4618 
  71   0.0000       1.236062        33.6350 
  72   0.0000       1.246032        33.9063 
  73   0.0000       1.263375        34.3782 
  74   0.0000       1.274296        34.6754 
  75   0.0000       1.280324        34.8394 
  76   0.0000       1.311407        35.6852 
  77   0.0000       1.337617        36.3984 
  78   0.0000       1.352820        36.8121 
  79   0.0000       1.371106        37.3097 
  80   0.0000       1.379942        37.5501 
  81   0.0000       1.396148        37.9911 
  82   0.0000       1.410347        38.3775 
  83   0.0000       1.435596        39.0646 
  84   0.0000       1.455959        39.6187 
  85   0.0000       1.498394        40.7734 
  86   0.0000       1.520030        41.3621 
  87   0.0000       1.521856        41.4118 
  88   0.0000       1.533626        41.7321 
  89   0.0000       1.542561        41.9752 
  90   0.0000       1.562931        42.5295 
  91   0.0000       1.578335        42.9487 
  92   0.0000       1.644434        44.7473 
  93   0.0000       1.655461        45.0474 
  94   0.0000       1.715402        46.6785 
  95   0.0000       1.717265        46.7292 
  96   0.0000       1.750379        47.6302 
  97   0.0000       1.780894        48.4606 
  98   0.0000       1.831760        49.8447 
  99   0.0000       1.857508        50.5454 
 100   0.0000       2.092893        56.9505 
 101   0.0000       2.136475        58.1364 
 102   0.0000       2.172442        59.1152 
 103   0.0000       2.209251        60.1168 
 104   0.0000       2.250879        61.2495 
 105   0.0000       2.338978        63.6468 
 106   0.0000       2.339969        63.6738 
 107   0.0000       2.383862        64.8682 
 108   0.0000       2.455674        66.8223 
 109   0.0000       2.487795        67.6963 
 110   0.0000       2.502185        68.0879 
 111   0.0000       2.507469        68.2317 
 112   0.0000       2.580219        70.2113 
 113   0.0000       2.656132        72.2770 
 114   0.0000       2.657410        72.3118 
 115   0.0000       2.683206        73.0138 
 116   0.0000       2.749281        74.8117 
 117   0.0000       2.810326        76.4729 
 118   0.0000       2.894636        78.7671 
 119   0.0000       2.925153        79.5975 
 120   0.0000       2.940869        80.0251 
 121   0.0000       3.004284        81.7507 
 122   0.0000       3.046064        82.8876 
 123   0.0000       3.052472        83.0620 
 124   0.0000       3.069140        83.5155 
 125   0.0000       3.087527        84.0159 
 126   0.0000       3.103704        84.4561 
 127   0.0000       3.116575        84.8063 
 128   0.0000       3.157064        85.9081 
 129   0.0000       3.168337        86.2148 
 130   0.0000       3.191845        86.8545 
 131   0.0000       3.204571        87.2008 
 132   0.0000       3.215351        87.4942 
 133   0.0000       3.251472        88.4770 
 134   0.0000       3.263756        88.8113 
 135   0.0000       3.284254        89.3691 
 136   0.0000       3.289980        89.5249 
 137   0.0000       3.319092        90.3171 
 138   0.0000       3.339875        90.8826 
 139   0.0000       3.354257        91.2740 
 140   0.0000       3.388321        92.2009 
 141   0.0000       3.406186        92.6870 
 142   0.0000       3.422491        93.1307 
 143   0.0000       3.449735        93.8721 
 144   0.0000       3.459628        94.1413 
 145   0.0000       3.480085        94.6979 
 146   0.0000       3.516931        95.7006 
 147   0.0000       3.538976        96.3004 
 148   0.0000       3.579702        97.4087 
 149   0.0000       3.597782        97.9006 
 150   0.0000       3.615492        98.3825 
 151   0.0000       3.621993        98.5594 
 152   0.0000       3.636255        98.9475 
 153   0.0000       3.648607        99.2836 
 154   0.0000       3.657861        99.5354 
 155   0.0000       3.696455       100.5856 
 156   0.0000       3.710885       100.9783 
 157   0.0000       3.735527       101.6489 
 158   0.0000       3.756486       102.2192 
 159   0.0000       3.760838       102.3376 
 160   0.0000       3.786646       103.0399 
 161   0.0000       3.791056       103.1599 
 162   0.0000       3.815195       103.8167 
 163   0.0000       3.829976       104.2189 
 164   0.0000       3.869763       105.3016 
 165   0.0000       3.888253       105.8047 
 166   0.0000       3.910334       106.4056 
 167   0.0000       3.938606       107.1749 
 168   0.0000       3.994483       108.6954 
 169   0.0000       4.016126       109.2844 
 170   0.0000       4.048337       110.1608 
 171   0.0000       4.067089       110.6711 
 172   0.0000       4.083763       111.1248 
 173   0.0000       4.107913       111.7820 
 174   0.0000       4.138975       112.6272 
 175   0.0000       4.151459       112.9669 
 176   0.0000       4.174895       113.6047 
 177   0.0000       4.204032       114.3975 
 178   0.0000       4.240809       115.3983 
 179   0.0000       4.263515       116.0161 
 180   0.0000       4.284173       116.5783 
 181   0.0000       4.315156       117.4214 
 182   0.0000       4.339578       118.0859 
 183   0.0000       4.360556       118.6568 
 184   0.0000       4.385207       119.3275 
 185   0.0000       4.399408       119.7140 
 186   0.0000       4.402298       119.7926 
 187   0.0000       4.413527       120.0982 
 188   0.0000       4.448063       121.0379 
 189   0.0000       4.468532       121.5949 
 190   0.0000       4.475172       121.7756 
 191   0.0000       4.488856       122.1480 
 192   0.0000       4.540983       123.5664 
 193   0.0000       4.554695       123.9395 
 194   0.0000       4.592877       124.9785 
 195   0.0000       4.699894       127.8906 
 196   0.0000       4.707876       128.1078 
 197   0.0000       4.801925       130.6670 
 198   0.0000       4.837151       131.6256 
 199   0.0000       4.847359       131.9034 
 200   0.0000       4.939229       134.4033 
 201   0.0000       4.979455       135.4978 
 202   0.0000       5.010710       136.3483 
 203   0.0000       5.032770       136.9486 
 204   0.0000       5.106459       138.9538 
 205   0.0000       5.115839       139.2091 
 206   0.0000       5.140104       139.8694 
 207   0.0000       5.171738       140.7302 
 208   0.0000       5.210156       141.7756 
 209   0.0000       5.249998       142.8597 
 210   0.0000       5.280013       143.6765 
 211   0.0000       5.325556       144.9158 
 212   0.0000       5.340780       145.3300 
 213   0.0000       5.351489       145.6214 
 214   0.0000       5.386390       146.5711 
 215   0.0000       5.403671       147.0414 
 216   0.0000       5.429348       147.7401 
 217   0.0000       5.443664       148.1296 
 218   0.0000       5.466065       148.7392 
 219   0.0000       5.516228       150.1042 
 220   0.0000       5.547530       150.9560 
 221   0.0000       5.575450       151.7157 
 222   0.0000       5.588955       152.0832 
 223   0.0000       5.609456       152.6411 
 224   0.0000       5.632475       153.2674 
 225   0.0000       5.673684       154.3888 
 226   0.0000       5.775945       157.1715 
 227   0.0000       5.826158       158.5378 
 228   0.0000       5.908138       160.7686 
 229   0.0000       5.914705       160.9473 
 230   0.0000       6.015952       163.7024 
 231   0.0000       6.033275       164.1738 
 232   0.0000       6.177478       168.0977 
 233   0.0000       6.210856       169.0060 
 234   0.0000       6.221270       169.2894 
 235   0.0000       6.239469       169.7846 
 236   0.0000       6.249772       170.0649 
 237   0.0000       6.278126       170.8365 
 238   0.0000       6.420423       174.7086 
 239   0.0000       6.492335       176.6654 
 240   0.0000       6.570579       178.7945 
 241   0.0000       6.645625       180.8366 
 242   0.0000       6.743065       183.4881 
 243   0.0000       6.771285       184.2560 
 244   0.0000       6.797670       184.9740 
 245   0.0000       6.892052       187.5423 
 246   0.0000       6.905516       187.9086 
 247   0.0000       7.243818       197.1143 
 248   0.0000       7.283060       198.1821 
 249   0.0000       7.298318       198.5973 
 250   0.0000       7.315673       199.0696 
 251   0.0000       7.447035       202.6441 
 252   0.0000       7.607053       206.9984 
 253   0.0000       7.782409       211.7701 
 254   0.0000       7.836994       213.2554 
 255   0.0000       7.856516       213.7867 
 256   0.0000       7.960128       216.6061 
 257   0.0000      10.996577       299.2321 
 258   0.0000      11.219185       305.2895 
 259   0.0000      13.186703       358.8284 
 260   0.0000      13.812457       375.8561 
 261   0.0000      13.955945       379.7606 

                    ********************************
                    * MULLIKEN POPULATION ANALYSIS *
                    ********************************

-----------------------
MULLIKEN ATOMIC CHARGES
-----------------------
   0 C :   -0.074299
   1 O :   -0.348217
   2 C :    0.225418
   3 O :   -0.374348
   4 C :   -0.064922
   5 H :    0.116328
   6 H :    0.083648
   7 H :    0.053688
   8 H :    0.101900
   9 H :    0.034195
  10 H :    0.109798
  11 H :    0.076412
  12 H :    0.060400
Sum of atomic charges:   -0.0000000

--------------------------------
MULLIKEN REDUCED ORBITAL CHARGES
--------------------------------
  0 C s       :     3.217019  s :     3.217019
      pz      :     0.979369  p :     2.732416
      px      :     1.044569
      py      :     0.708478
      dz2     :     0.018132  d :     0.114889
      dxz     :     0.008963
      dyz     :     0.029522
      dx2y2   :     0.033151
      dxy     :     0.025121
      f0      :     0.001669  f :     0.009975
      f+1     :     0.000442
      f-1     :     0.001542
      f+2     :     0.001616
      f-2     :     0.000449
      f+3     :     0.002195
      f-3     :     0.002061
  1 O s       :     3.720599  s :     3.720599
      pz      :     1.808853  p :     4.590142
      px      :     1.423397
      py      :     1.357891
      dz2     :     0.004821  d :     0.035357
      dxz     :     0.005316
      dyz     :     0.004000
      dx2y2   :     0.016399
      dxy     :     0.004820
      f0      :     0.000271  f :     0.002120
      f+1     :     0.000269
      f-1     :     0.000309
      f+2     :     0.000319
      f-2     :     0.000116
      f+3     :     0.000404
      f-3     :     0.000431
  2 C s       :     3.104038  s :     3.104038
      pz      :     0.836537  p :     2.453397
      px      :     0.643558
      py      :     0.973301
      dz2     :     0.034133  d :     0.198677
      dxz     :     0.045442
      dyz     :     0.019927
      dx2y2   :     0.062716
      dxy     :     0.036459
      f0      :     0.001781  f :     0.018471
      f+1     :     0.003703
      f-1     :     0.001355
      f+2     :     0.003309
      f-2     :     0.002531
      f+3     :     0.003294
      f-3     :     0.002499
  3 O s       :     3.731314  s :     3.731314
      pz      :     1.587254  p :     4.607535
      px      :     1.433328
      py      :     1.586952
      dz2     :     0.003869  d :     0.033432
      dxz     :     0.012274
      dyz     :     0.007611
      dx2y2   :     0.004473
      dxy     :     0.005205
      f0      :     0.000175  f :     0.002067
      f+1     :     0.000208
      f-1     :     0.000088
      f+2     :     0.000252
      f-2     :     0.000576
      f+3     :     0.000311
      f-3     :     0.000456
  4 C s       :     3.216885  s :     3.216885
      pz      :     0.964946  p :     2.718681
      px      :     0.887651
      py      :     0.866084
      dz2     :     0.013066  d :     0.119283
      dxz     :     0.031395
      dyz     :     0.024296
      dx2y2   :     0.024577
      dxy     :     0.025949
      f0      :     0.000560  f :     0.010073
      f+1     :     0.001222
      f-1     :     0.000926
      f+2     :     0.001368
      f-2     :     0.002942
      f+3     :     0.001648
      f-3     :     0.001407
  5 H s       :     0.858043  s :     0.858043
      pz      :     0.010111  p :     0.023671
      px      :     0.011146
      py      :     0.002414
      dz2     :     0.000270  d :     0.001959
      dxz     :     0.000627
      dyz     :     0.000030
      dx2y2   :     0.000580
      dxy     :     0.000451
  6 H s       :     0.890607  s :     0.890607
      pz      :     0.008505  p :     0.023718
      px      :     0.009247
      py      :     0.005966
      dz2     :     0.000463  d :     0.002027
      dxz     :     0.000339
      dyz     :     0.000457
      dx2y2   :     0.000332
      dxy     :     0.000437
  7 H s       :     0.921469  s :     0.921469
      pz      :     0.010045  p :     0.022870
      px      :     0.007383
      py      :     0.005441
      dz2     :     0.000684  d :     0.001974
      dxz     :     0.000530
      dyz     :     0.000664
      dx2y2   :     0.000054
      dxy     :     0.000040
  8 H s       :     0.875144  s :     0.875144
      pz      :     0.006575  p :     0.020890
      px      :     0.000729
      py      :     0.013585
      dz2     :     0.000289  d :     0.002066
      dxz     :    -0.000016
      dyz     :     0.000504
      dx2y2   :     0.000814
      dxy     :     0.000476
  9 H s       :     0.941936  s :     0.941936
      pz      :     0.012942  p :     0.021790
      px      :     0.003592
      py      :     0.005256
      dz2     :     0.000999  d :     0.002079
      dxz     :     0.000534
      dyz     :     0.000425
      dx2y2   :     0.000070
      dxy     :     0.000051
 10 H s       :     0.864693  s :     0.864693
      pz      :     0.008216  p :     0.023541
      px      :     0.007829
      py      :     0.007497
      dz2     :     0.000333  d :     0.001967
      dxz     :     0.000609
      dyz     :     0.000457
      dx2y2   :     0.000265
      dxy     :     0.000303
 11 H s       :     0.898004  s :     0.898004
      pz      :     0.010425  p :     0.023629
      px      :     0.007532
      py      :     0.005671
      dz2     :     0.000484  d :     0.001955
      dxz     :     0.000540
      dyz     :     0.000398
      dx2y2   :     0.000231
      dxy     :     0.000302
 12 H s       :     0.914664  s :     0.914664
      pz      :     0.009070  p :     0.022958
      px      :     0.005648
      py      :     0.008241
      dz2     :     0.000241  d :     0.001978
      dxz     :     0.000321
      dyz     :     0.000531
      dx2y2   :     0.000451
      dxy     :     0.000433


                     *******************************
                     * LOEWDIN POPULATION ANALYSIS *
                     *******************************

----------------------
LOEWDIN ATOMIC CHARGES
----------------------
   0 C :    0.011775
   1 O :    0.253009
   2 C :   -0.192187
   3 O :    0.239255
   4 C :    0.002577
   5 H :   -0.030248
   6 H :   -0.040992
   7 H :   -0.044628
   8 H :   -0.034165
   9 H :   -0.049224
  10 H :   -0.029130
  11 H :   -0.041490
  12 H :   -0.044552

-------------------------------
LOEWDIN REDUCED ORBITAL CHARGES
-------------------------------
  0 C s       :     2.687585  s :     2.687585
      pz      :     1.002562  p :     2.776729
      px      :     1.000363
      py      :     0.773804
      dz2     :     0.079438  d :     0.458879
      dxz     :     0.030950
      dyz     :     0.129086
      dx2y2   :     0.130455
      dxy     :     0.088949
      f0      :     0.008628  f :     0.065032
      f+1     :     0.002638
      f-1     :     0.008818
      f+2     :     0.010157
      f-2     :     0.006996
      f+3     :     0.013431
      f-3     :     0.014365
  1 O s       :     3.247748  s :     3.247748
      pz      :     1.659629  p :     4.395399
      px      :     1.394359
      py      :     1.341411
      dz2     :     0.011355  d :     0.098174
      dxz     :     0.013026
      dyz     :     0.013157
      dx2y2   :     0.034234
      dxy     :     0.026402
      f0      :     0.000494  f :     0.005671
      f+1     :     0.000629
      f-1     :     0.000445
      f+2     :     0.001118
      f-2     :     0.000272
      f+3     :     0.001392
      f-3     :     0.001319
  2 C s       :     2.703093  s :     2.703093
      pz      :     0.910098  p :     2.630461
      px      :     0.757163
      py      :     0.963201
      dz2     :     0.162957  d :     0.738331
      dxz     :     0.181777
      dyz     :     0.059134
      dx2y2   :     0.218704
      dxy     :     0.115760
      f0      :     0.009659  f :     0.120301
      f+1     :     0.021987
      f-1     :     0.008396
      f+2     :     0.021640
      f-2     :     0.020510
      f+3     :     0.020835
      f-3     :     0.017275
  3 O s       :     3.250624  s :     3.250624
      pz      :     1.536432  p :     4.410660
      px      :     1.376353
      py      :     1.497875
      dz2     :     0.013925  d :     0.093971
      dxz     :     0.026568
      dyz     :     0.016440
      dx2y2   :     0.016189
      dxy     :     0.020848
      f0      :     0.000469  f :     0.005489
      f+1     :     0.001115
      f-1     :     0.000538
      f+2     :     0.000879
      f-2     :     0.000902
      f+3     :     0.000830
      f-3     :     0.000756
  4 C s       :     2.688333  s :     2.688333
      pz      :     0.971384  p :     2.775678
      px      :     0.901983
      py      :     0.902311
      dz2     :     0.041401  d :     0.467995
      dxz     :     0.132474
      dyz     :     0.108054
      dx2y2   :     0.082129
      dxy     :     0.103937
      f0      :     0.007075  f :     0.065417
      f+1     :     0.008210
      f-1     :     0.008131
      f+2     :     0.007809
      f-2     :     0.011840
      f+3     :     0.012212
      f-3     :     0.010141
  5 H s       :     0.860291  s :     0.860291
      pz      :     0.042050  p :     0.142968
      px      :     0.074485
      py      :     0.026433
      dz2     :     0.003634  d :     0.026989
      dxz     :     0.008771
      dyz     :     0.000437
      dx2y2   :     0.007202
      dxy     :     0.006945
  6 H s       :     0.868635  s :     0.868635
      pz      :     0.053497  p :     0.145699
      px      :     0.051230
      py      :     0.040971
      dz2     :     0.006949  d :     0.026658
      dxz     :     0.004349
      dyz     :     0.005169
      dx2y2   :     0.005381
      dxy     :     0.004810
  7 H s       :     0.875413  s :     0.875413
      pz      :     0.073660  p :     0.142884
      px      :     0.038932
      py      :     0.030292
      dz2     :     0.008780  d :     0.026330
      dxz     :     0.008348
      dyz     :     0.007280
      dx2y2   :     0.001194
      dxy     :     0.000729
  8 H s       :     0.871100  s :     0.871100
      pz      :     0.031088  p :     0.136490
      px      :     0.023686
      py      :     0.081716
      dz2     :     0.003113  d :     0.026575
      dxz     :     0.000070
      dyz     :     0.007989
      dx2y2   :     0.008399
      dxy     :     0.007005
  9 H s       :     0.886192  s :     0.886192
      pz      :     0.077629  p :     0.136792
      px      :     0.023453
      py      :     0.035710
      dz2     :     0.010558  d :     0.026240
      dxz     :     0.006544
      dyz     :     0.007389
      dx2y2   :     0.001248
      dxy     :     0.000501
 10 H s       :     0.859476  s :     0.859476
      pz      :     0.054005  p :     0.142720
      px      :     0.049632
      py      :     0.039083
      dz2     :     0.005629  d :     0.026934
      dxz     :     0.007090
      dyz     :     0.005764
      dx2y2   :     0.004074
      dxy     :     0.004376
 11 H s       :     0.872040  s :     0.872040
      pz      :     0.057445  p :     0.143128
      px      :     0.046742
      py      :     0.038941
      dz2     :     0.007217  d :     0.026322
      dxz     :     0.006285
      dyz     :     0.005056
      dx2y2   :     0.003221
      dxy     :     0.004542
 12 H s       :     0.874336  s :     0.874336
      pz      :     0.045038  p :     0.143805
      px      :     0.039268
      py      :     0.059499
      dz2     :     0.004032  d :     0.026411
      dxz     :     0.003980
      dyz     :     0.006279
      dx2y2   :     0.006093
      dxy     :     0.006026


                      *****************************
                      * MAYER POPULATION ANALYSIS *
                      *****************************

  NA   - Mulliken gross atomic population
  ZA   - Total nuclear charge
  QA   - Mulliken gross atomic charge
  VA   - Mayer's total valence
  BVA  - Mayer's bonded valence
  FA   - Mayer's free valence

  ATOM       NA         ZA         QA         VA         BVA        FA
  0 C      6.0743     6.0000    -0.0743     3.9104     3.9104    -0.0000
  1 O      8.3482     8.0000    -0.3482     2.0052     2.0052     0.0000
  2 C      5.7746     6.0000     0.2254     4.0276     4.0276    -0.0000
  3 O      8.3743     8.0000    -0.3743     1.9535     1.9535     0.0000
  4 C      6.0649     6.0000    -0.0649     3.9185     3.9185     0.0000
  5 H      0.8837     1.0000     0.1163     0.9777     0.9777    -0.0000
  6 H      0.9164     1.0000     0.0836     0.9650     0.9650    -0.0000
  7 H      0.9463     1.0000     0.0537     0.9711     0.9711    -0.0000
  8 H      0.8981     1.0000     0.1019     0.9735     0.9735    -0.0000
  9 H      0.9658     1.0000     0.0342     0.9754     0.9754    -0.0000
 10 H      0.8902     1.0000     0.1098     0.9773     0.9773    -0.0000
 11 H      0.9236     1.0000     0.0764     0.9677     0.9677    -0.0000
 12 H      0.9396     1.0000     0.0604     0.9611     0.9611     0.0000

  Mayer bond orders larger than 0.1
B(  0-C ,  1-O ) :   0.9738 B(  0-C ,  5-H ) :   0.9829 B(  0-C ,  6-H ) :   0.9687 
B(  0-C ,  7-H ) :   0.9672 B(  1-O ,  2-C ) :   1.0549 B(  2-C ,  3-O ) :   0.9839 
B(  2-C ,  8-H ) :   0.9783 B(  2-C ,  9-H ) :   0.9797 B(  3-O ,  4-C ) :   0.9769 
B(  4-C , 10-H ) :   0.9816 B(  4-C , 11-H ) :   0.9772 B(  4-C , 12-H ) :   0.9662 


-------
TIMINGS
-------

Total SCF time: 0 days 0 hours 0 min 6 sec 

Total time                  ....       6.410 sec
Sum of individual times     ....       6.203 sec  ( 96.8%)

Fock matrix formation       ....       5.791 sec  ( 90.3%)
Diagonalization             ....       0.047 sec  (  0.7%)
Density matrix formation    ....       0.007 sec  (  0.1%)
Population analysis         ....       0.048 sec  (  0.7%)
Initial guess               ....       0.183 sec  (  2.9%)
Orbital Transformation      ....       0.000 sec  (  0.0%)
Orbital Orthonormalization  ....       0.000 sec  (  0.0%)
DIIS solution               ....       0.000 sec  (  0.0%)
SOSCF solution              ....       0.046 sec  (  0.7%)


           ************************************************************
           *        Program running with 8 parallel MPI-processes     *
           *              working on a common directory               *
           ************************************************************


------------------------------------------------------------------------------- 
                              ORCA-MATRIX DRIVEN CI                            
------------------------------------------------------------------------------- 


Wavefunction type
-----------------
Correlation treatment                      ...      CCSD     
Single excitations                         ... ON
Orbital optimization                       ... OFF
Calculation of Z vector                    ... OFF
Calculation of Brueckner orbitals          ... OFF
Perturbative triple excitations            ... ON
Calculation of F12 correction              ... OFF
Frozen core treatment                      ... chemical core (10 el)
Reference Wavefunction                     ... RHF
  Internal Orbitals:     5 ...   20 ( 16 MO's/ 32 electrons)
  Virtual  Orbitals:    21 ...  261 (241 MO's              )
Number of AO's                             ...    262
Number of electrons                        ...     42
Number of correlated electrons             ...     32

Algorithmic settings
--------------------
Integral transformation                    ... All integrals via the RI transformation
K(C) Formation                             ... RI-DLPNO
   PNO-Integral Storage                    ... ON DISK
   PNO occupation number cut-off           ... 1.000e-07
   Singles PNO occupation number cut-off   ... 3.000e-09
   PNO Mulliken prescreening cut-off       ... 1.000e-03
   Domain cut-off (Mulliken population)    ... 1.000e-03
   PNO Normalization                       ...    1
Maximum number of iterations               ...        50
Convergence tolerance (max. residuum)      ... 1.000e-05
Level shift for amplitude update           ... 2.000e-01
Maximum number of DIIS vectors             ...         7
DIIS turned on at iteration                ...         0
Damping before turning on DIIS             ...     0.500
Damping after turning on DIIS              ...     0.000
Pair specific amplitude update             ... OFF
Natural orbital iterations                 ... OFF
Perturbative natural orbital generation    ... OFF
Printlevel                                 ... 2

Singles Fock matrix elements calculated using PNOs.

Memory handling:
----------------
Maximum memory for working arrays          ...   8000 MB
Data storage in matrix containers          ... UNCOMPRESSED
Data type for integral storage             ... DOUBLE
In-Core Storage of quantities:
   Amplitudes+Sigma Vector      ... NO
   J+K operators                ... NO
   DIIS vectors                 ... NO
   3-external integrals         ... NO
   4-external integrals         ... NO

Localization treatment:
-----------------------
Localization option                        ...    6
Localization threshhold                    ... -1.0e+00
Using relative localization threshhold     ... 1.0e-08
Neglect threshold for strong pairs         ... 1.000e-05 Eh
Prescreening threshold for very weak pairs ... 1.000e-07 Eh

Initializing the integral package          ... done
Localizing the valence orbitals
------------------------------------------------------------------------------
                           ORCA ORBITAL LOCALIZATION
------------------------------------------------------------------------------

Input orbitals are from                  ... Formaldehyde_dimethylacetal_g_ecl_dimethoxymethane.proc0.gbw
Output orbitals are to                   ... Formaldehyde_dimethylacetal_g_ecl_dimethoxymethane.proc0.loc
Max. number of iterations                ... 128
Localizations seeded randomly            ... off
Convergence tolerance                    ... 1.000e-06
Using relative localization threshhold   ... 1.000e-08
Treshold for strong local MOs            ... 9.500e-01
Treshold for bond MOs                    ... 8.500e-01
Operator                                 ... 0
Orbital range for localization           ... 5 to 20
Localization criterion                   ... FOSTER-BOYS (AUGMENTED HESSIAN)
Doing the dipole integrals     ... o.k.
Initial value of the localization sum :   137.313857
ITERATION   0 : L=  165.4684655141 DL=  2.82e+01 (AVERGE_DL)=    0.4843776815 
ITERATION   1 : L=  168.3678683579 DL=  2.90e+00 (AVERGE_DL)=    0.1554403113 
ITERATION   2 : L=  168.5270308129 DL=  1.59e-01 (AVERGE_DL)=    0.0364191404 
ITERATION   3 : L=  168.5340748000 DL=  7.04e-03 (AVERGE_DL)=    0.0076615855 
ITERATION   4 : L=  168.5349612861 DL=  8.86e-04 (AVERGE_DL)=    0.0027179742 
ITERATION   5 : L=  168.5350781968 DL=  1.17e-04 (AVERGE_DL)=    0.0009870438 
ITERATION   6 : L=  168.5350928994 DL=  1.47e-05 (AVERGE_DL)=    0.0003500317 
ITERATION   7 : L=  168.5350947316 DL=  1.83e-06 (AVERGE_DL)=    0.0001235651 
ITERATION   8 : L=  168.5350949584 DL=  2.27e-07 (AVERGE_DL)=    0.0000434692 
LOCALIZATION SUM CONVERGED

------------------------------------------------------
AUGMENTED HESSIAN OPTIMIZATION OF FOSTER-BOYS ORBITALS
------------------------------------------------------

Spin operator:           0
Orbital window:          5 to 20
Number of iterations:    128
Gradient tolerance:      1.000e-06
Number of pairs:         120
Davidson threshold:      2000
Diagonalization method:  LAPACK
Iter:    0   L: 168.5350949584   Grad. norm: 9.868548e-04
   *** Likely close to a maximum now. ***
       Augmented Hessian eigenvalues:  7.02e-08 -1.13e+00 -1.21e+00 -3.51e+00 ... 
Iter:    1   L: 168.5350949935   Grad. norm: 3.102781e-08
LOCALIZATION HAS CONVERGED.

Eigenvalues of the Hessian:
  0 -1.125e+00
  1 -1.213e+00
  2 -3.505e+00
  3 -3.569e+00
  4 -5.280e+00
  5 -5.313e+00
  6 -5.376e+00
  7 -5.455e+00
  8 -7.446e+00
  9 -7.518e+00
    ...


------------------------------------------------------------------------------- 
                    LOCALIZED MOLECULAR ORBITAL COMPOSITIONS                   
------------------------------------------------------------------------------- 

The Mulliken populations for each LMO on each atom are computed
The LMO`s will be ordered according to atom index and type
  (A) Strongly localized MO`s have populations of >=0.950 on one atom
  (B) Two center bond orbitals have populations of >=0.850 on two atoms
  (C) Other MO`s are considered to be `delocalized`

FOUND  -   4 strongly local MO`s
       -  12 two center bond MO`s
       -   0 significantly delocalized MO`s

Rather strongly localized orbitals:
MO   8:   3O  -   0.973338
MO   7:   3O  -   0.970131
MO   6:   1O  -   0.962895
MO   5:   1O  -   0.970447
Bond-like localized orbitals:
MO  20:  12H  -   0.498966  and   4C  -   0.534104
MO  19:  11H  -   0.486557  and   4C  -   0.549311
MO  18:  10H  -   0.462552  and   4C  -   0.563680
MO  17:   9H  -   0.504834  and   2C  -   0.541166
MO  16:   8H  -   0.466350  and   2C  -   0.562690
MO  15:   7H  -   0.498207  and   0C  -   0.533539
MO  14:   6H  -   0.483702  and   0C  -   0.551388
MO  13:   5H  -   0.458185  and   0C  -   0.567815
MO  12:   4C  -   0.359447  and   3O  -   0.650622
MO  11:   3O  -   0.666392  and   2C  -   0.345921
MO  10:   2C  -   0.357094  and   1O  -   0.656942
MO   9:   1O  -   0.653380  and   0C  -   0.358369
Localized MO's were stored in: Formaldehyde_dimethylacetal_g_ecl_dimethoxymethane.proc0.loc

Localizing the core orbitals
------------------------------------------------------------------------------
                           ORCA ORBITAL LOCALIZATION
------------------------------------------------------------------------------

Input orbitals are from                  ... Formaldehyde_dimethylacetal_g_ecl_dimethoxymethane.proc0.loc
Output orbitals are to                   ... Formaldehyde_dimethylacetal_g_ecl_dimethoxymethane.proc0.loc
Max. number of iterations                ... 128
Localizations seeded randomly            ... off
Convergence tolerance                    ... 1.000e-06
Using relative localization threshhold   ... 1.000e-08
Treshold for strong local MOs            ... 9.500e-01
Treshold for bond MOs                    ... 8.500e-01
Operator                                 ... 0
Orbital range for localization           ... 0 to 4
Localization criterion                   ... FOSTER-BOYS (AUGMENTED HESSIAN)
Doing the dipole integrals     ... o.k.
Initial value of the localization sum :    40.907664
ITERATION   0 : L=   40.9076687296 DL=  5.16e-06 (AVERGE_DL)=    0.0007185713 
ITERATION   1 : L=   40.9076687296 DL=  0.00e+00 (AVERGE_DL)=    0.0000000000 
LOCALIZATION SUM CONVERGED

------------------------------------------------------
AUGMENTED HESSIAN OPTIMIZATION OF FOSTER-BOYS ORBITALS
------------------------------------------------------

Spin operator:           0
Orbital window:          0 to 4
Number of iterations:    128
Gradient tolerance:      1.000e-06
Number of pairs:         10
Davidson threshold:      2000
Diagonalization method:  LAPACK
Iter:    0   L: 40.9076687296   Grad. norm: 4.092426e-06
   *** Likely close to a maximum now. ***
       Augmented Hessian eigenvalues:  2.05e-13 -2.80e+01 -2.86e+01 -2.89e+01 ... 
Iter:    1   L: 40.9076687296   Grad. norm: 2.673724e-19
LOCALIZATION HAS CONVERGED.

Eigenvalues of the Hessian:
  0 -2.798e+01
  1 -2.860e+01
  2 -2.887e+01
  3 -2.889e+01
  4 -7.836e+01
  5 -8.048e+01
  6 -8.269e+01
  7 -1.205e+02
  8 -1.638e+02
  9 -1.758e+02


------------------------------------------------------------------------------- 
                    LOCALIZED MOLECULAR ORBITAL COMPOSITIONS                   
------------------------------------------------------------------------------- 

The Mulliken populations for each LMO on each atom are computed
The LMO`s will be ordered according to atom index and type
  (A) Strongly localized MO`s have populations of >=0.950 on one atom
  (B) Two center bond orbitals have populations of >=0.850 on two atoms
  (C) Other MO`s are considered to be `delocalized`

FOUND  -   5 strongly local MO`s
       -   0 two center bond MO`s
       -   0 significantly delocalized MO`s

Rather strongly localized orbitals:
MO   4:   4C  -   1.000793
MO   3:   3O  -   0.999642
MO   2:   2C  -   1.000715
MO   1:   1O  -   0.999641
MO   0:   0C  -   1.000775
Localized MO's were stored in: Formaldehyde_dimethylacetal_g_ecl_dimethoxymethane.proc0.loc

Warning: internal orbitals are localized - no re-canonicalization of internal orbitals

--------------------------
CLOSED-SHELL FOCK OPERATOR
--------------------------

RI-JK section for the Fock operator:
  RHF full Fock operator         ... done
  RHF frozen core Fock operator  ... done
Time needed for Fock operator              ...            1.095 sec
Reference energy                           ...   -268.050645490

--------------
DLPNO SETTINGS (2015 fully linear scaling implementation)
--------------

TCutMKN:           1.000e-03
TCutPAO:           1.000e-03
TCutPNO:           1.000e-07
TCutPNOSingles:    3.000e-09
TCutEN:            9.700e-01
TCutPAOExt:        1.000e-01
TCutPairs:         1.000e-05
TCutPre:           1.000e-07
TCutOSV:           1.000e-06
TCutDOij:          1.000e-05
TCutDO:            5.000e-03
TCutC:             1.000e-04
TCutCPAO:          1.000e-03
TCutCMO:           1.000e-03
TScaleDOMP2PreScr: 2.000e+00
TScaleMKNMP2PreScr:1.000e+01
TScalePNOMP2PreScr:1.000e+00
PAO overlap thresh 1.000e-08
Using PNOs for Singles Fock computation
Use new domains
Use fully linear algorithm
TCutTNO:           1.000e-09
TCutMP2Pairs:      1.000e-06
TCutDOStrong:      2.000e-03
TCutMKNStrong:     1.000e-02
TCutMKNWeak:       1.000e-01
TCutDOWeak:        4.000e-03
NTCutTNO:          1

--------------------------
Calculating differential overlap integrals ... ok
--------------------------
ELECTRON PAIR PRESCREENING
--------------------------

Dipole-based pair screening          .... used

   TCutDOij = 1.000000e-05
   TCutPre  = 1.000000e-07
   .... Finished loop over pairs
Total time spent in the prescreening                  ...     0.000 sec
sum of pair energies estimated for screened out pairs ...       0.000000000000 Eh
Thresholds for map construction and integral transformation for crude MP2:
   TCutMKN                    ...     1.0e-02
   TCutDO                     ...     1.0e-02
   TCutPairs                  ...     1.0e-05
   TCutPNO_CrudeMP2           ...     1.0e-07
   TCutPNOSingles_CrudeMP2    ...     3.0e-09
--------------------------------
LOCAL RI TRANSFORMATION (IAVPAO)
--------------------------------

Orbital window:       5 to 20
Number of PAOs:     262
Basis functions:    262 (98 shells)
Aux. functions:     645 (195 shells)

Processing maps (0.0 sec)
Average map sizes:
   Aux shells -> MOs              16.0
   Aux shells -> PAOs            262.0
   MOs        -> AO shells        97.6
   PAOs       -> AO shells        98.0

Calculating integrals (0.4 sec, 20.636 MB)
Sorting integrals (0.0 sec, 20.629 MB)
Total time for the integral transformation: 0.5 sec
--------------------------------
INITIAL GUESS AND PNO GENERATION
--------------------------------

PNO truncation parameters                   .... 
    PAOOverlapThresh   =        1.000e-08

    TCutPairs          =        1.000e-05
    TCutPNO            =        1.000e-07
    TCutPNOSingles     =        3.000e-09
    TCutMP2Pairs       =        1.000e-06
    TCutMKN            =        1.000e-02
    TCutDO             =        1.000e-02

Pair selection                          .... not used
Type of local MP2 treatment                 .... semi-local MP2
Strategy for PNO selection                  .... occupation number selection
Pair density normalization                  .... MP2 norm
Spin component scaling                      .... not used

   .... Finished loop over pairs
Making pair pair interaction lists          ... done

                       ===========================
                        136 OF  136 PAIRS ARE KEPT CCSD PAIRS
                          0 OF  136 PAIRS ARE KEPT MP2 PAIRS FOR (T)
                          0 OF  136 PAIRS ARE SKIPPED
                       ===========================

Total time spent in the initial guess                 ...     0.756 sec
SL-MP2 correlation energy (all non-screened pairs)    ...      -0.970565388942 Eh

Initial PNO correlation energy                        ...      -0.969738523017 Eh
sum of pair energies prescreened and skipped MP2 pairs...       0.000000000000 Eh
sum of pair energies of crude MP2 skipped pairs only  ...       0.000000000000 Eh
sum of MP2 pair energies for pairs that were not kept ...       0.000000000000 Eh
sum of PNO error estimates for the kept pairs         ...      -0.000826865925 Eh
                                                          --------------------
sum of all corrections                                         -0.000826865925
Initial total correlation energy                               -0.970565388942
Thresholds for map construction and integral transformation for fine MP2 and CCSD(T) calculation:
   TCutMKN   ...     1.0e-03
   TCutDO    ...     5.0e-03
   TCutPairs ...     1.0e-05
   TCutCMO   ...     1.0e-03
   TCutCPAO  ...     1.0e-03

Thresholds for map construction and integral transformation for strong Triples:
   TCutMKN   ...     1.0e-02
   TCutDO    ...     1.0e-02
   TCutCMO   ...     1.0e-03
   TCutCPAO  ...     1.0e-03

Thresholds for map construction and integral transformation for weak Triples:
   TCutMKN   ...     1.0e-01
   TCutDO    ...     2.0e-02
   TCutCMO   ...     1.0e-03
   TCutCPAO  ...     1.0e-03

--------------------------------
LOCAL RI TRANSFORMATION (IAVPAO)
--------------------------------

Orbital window:       5 to 20
Number of PAOs:     262
Basis functions:    262 (98 shells)
Aux. functions:     645 (195 shells)

Processing maps (0.0 sec)
Average map sizes:
   Aux shells -> MOs              16.0
   Aux shells -> PAOs            262.0
   MOs        -> AO shells        97.6
   PAOs       -> AO shells        98.0

Calculating integrals (0.4 sec, 20.636 MB)
Sorting integrals (0.0 sec, 20.629 MB)
Total time for the integral transformation: 0.5 sec
--------------------------------
INITIAL GUESS AND PNO GENERATION
--------------------------------

PNO truncation parameters                   .... 
    ScaleTCutPNO       =        1.000e-02
    PAOOverlapThresh   =        1.000e-08

    TCutPairs          =        1.000e-05
    TCutPNO            =        1.000e-07
    TCutPNOSingles     =        3.000e-09
    TCutMP2Pairs       =        1.000e-06
    TCutMKN            =        1.000e-03
    TCutDO             =        5.000e-03

Pair selection                          .... not used
Type of local MP2 treatment                 .... full local PMP2
Strategy for PNO selection                  .... occupation number selection
Pair density normalization                  .... MP2 norm
Spin component scaling                      .... not used

PASS-1: Formation of initial guess LMP2 amplitudes
Initial amplitudes guess done. Entering LMP2 iteration loop:
   Max. no of iterations          ...  50
   Energy convergence tolerance   ...    1.0e-07
   Residual convergence tolerance ...    5.0e-07
   Fock matrix cutoff             ...    1.0e-05 Eh
   DIIS convergence acceleration parameters:
        Max # vectors in DIIS     ... 7
        Start iteration of DIIS   ... 0
        Levelshift                ... 2.000e-01
        Damping factor 1          ... 5.000e-01
        Damping factor 2          ... 1.000e+00
   L-MP2 PNO cut-off              ...   1.0e-09
   L-MP2 PNO cut-off (core)       ...   1.0e-11
                           *** Turning on DIIS ***
LMP2-Iter=   0:  ELMP2= -0.990543249146  DE=   2.0e-02 RMAX=   4.8e-03
LMP2-Iter=   1:  ELMP2= -1.000389194758  DE=   9.8e-03 RMAX=   2.8e-03
LMP2-Iter=   2:  ELMP2= -1.001919705162  DE=   1.5e-03 RMAX=   5.4e-04
LMP2-Iter=   3:  ELMP2= -1.002101348225  DE=   1.8e-04 RMAX=   1.9e-04
LMP2-Iter=   4:  ELMP2= -1.002111008559  DE=   9.7e-06 RMAX=   2.4e-05
LMP2-Iter=   5:  ELMP2= -1.002109964684  DE=   1.0e-06 RMAX=   7.4e-06
LMP2-Iter=   6:  ELMP2= -1.002109800029  DE=   1.6e-07 RMAX=   1.3e-06
LMP2-Iter=   7:  ELMP2= -1.002109785974  DE=   1.4e-08 RMAX=   3.0e-07
LMP2-Iter=   8:  ELMP2= -1.002109795852  DE=   9.9e-09 RMAX=   6.5e-08 => CONVERGED
PASS-2: Formation of Pair natural orbitals
   .... Finished loop over pairs

 PNO Occupation Number Statistics: 
  | Av. % of trace(Dij) retained        ...  99.575591032820
  | sigma^2 in % of trace(Dij) retained ...   3.26e-01
  | Av. % of trace(Di) retained         ...  99.999731570693
  | sigma^2 in % of trace(Di) retained  ...   9.87e-09
 Distributions of % trace(Dij) recovered:
  |       >= 99.9  ...    47 ( 34.6 % of all pairs)
  |   [90.0, 99.0) ...    19 ( 14.0 % of all pairs)
  |   [99.0, 99.9) ...    70 ( 51.5 % of all pairs)
 Distributions of % trace(Di) recovered :
  |       >= 99.9  ...    16 (100.0 % of all I-pairs )

Making pair pair interaction lists          ... done

                       ===========================
                        136 OF  136 PAIRS ARE KEPT
                       ===========================

Total time spent in the initial guess                 ...     5.646 sec
L-MP2 correlation energy (all non-screened pairs)     ...      -1.002109795852 Eh
L-MP2 PNO error correction                            ...      -0.000014965372 Eh
                                                          --------------------
Initial total L-MP2 energy (non-screened pairs)       ...      -1.002124761224 Eh

Initial PNO correlation energy                        ...      -1.001339844799 Eh
sum of pair energies estimated for screened out pairs ...       0.000000000000 Eh
sum of MP2 pair energies for pairs that were not kept ...       0.000000000000 Eh
sum of PNO error estimates for the kept pairs         ...      -0.000784916425 Eh
                                                          --------------------
sum of all corrections                                         -0.000784916425
Initial total correlation energy                               -1.002124761224
Thresholds for map construction and integral transformation for fine MP2 and CCSD(T) calculation:
   TCutMKN   ...     1.0e-03
   TCutDO    ...     5.0e-03
   TCutPairs ...     1.0e-05
   TCutCMO   ...     1.0e-03
   TCutCPAO  ...     1.0e-03

Time for aux screen maps:            0.002
Time for maps after fine MP2:            0.007
-----------------------------
LOCAL RI TRANSFORMATION (IJV)
-----------------------------

Orbital window:       5 to 20
Basis functions:    262 (98 shells)
Aux. functions:     645 (195 shells)

Processing maps (0.0 sec)
Average map sizes:
   Aux shells -> MOs(i)           16.0
   Aux shells -> MOs(j)           16.0
   MOs        -> AO shells        97.6

Calculating integrals (0.4 sec, 1.267 MB)
Sorting integrals (0.0 sec, 1.260 MB)
Total time for the integral transformation: 0.4 sec
--------------------------------
LOCAL RI TRANSFORMATION (VABPAO)
--------------------------------

Number of PAOs:     262
Basis functions:    262 (98 shells)
Aux. functions:     645 (195 shells)

Processing maps (0.0 sec)
Average map sizes:
   Aux shells -> PAOs            262.0
   PAOs       -> AO shells        98.0

Calculating integrals (0.9 sec, 632.134 MB)
Finished


-------------------------------------
Pair Pair Term precalculation with     
RI-(ij|mn) and (im|jn) transformation  
ON THE FLY                             
-------------------------------------

   IBatch   1 (of   1)              ... done (   20.644 sec)
Total EXT                           ...          20.644 sec

---------------------
RI-PNO TRANSFORMATION
---------------------

Total Number of PNOs                   ...  5592
Average number of PNOs per pair        ...    41
Maximal number of PNOs per pair        ...    63
   #pairs with  1 -  5 PNOs   :    0
   #pairs with  6 - 10 PNOs   :    6
   #pairs with 11 - 15 PNOs   :    6
   #pairs with 16 - 20 PNOs   :   13
   #pairs with 21 - 25 PNOs   :    8
   #pairs with 26 - 30 PNOs   :    9
   #pairs with 31 - 35 PNOs   :    9
   #pairs with 36 - 40 PNOs   :    3
   #pairs with 41 - 45 PNOs   :    7
   #pairs with 46 - 50 PNOs   :   27
   #pairs with 51 - 55 PNOs   :   16
   #pairs with 56 - 60 PNOs   :   20
   #pairs with 61 - 65 PNOs   :   12

Generation of (ij|ab)[P] integrals            ... on
Generation of (ia|bc)[P],(ja|bc)[P] integrals ... on
Storage of 3 and 4 external integrals         ... on
Generation of ALL (ka|bc)[P] integrals        ... on
Keep RI integrals in memory                   ... off

Ibatch:  1 (of  1)
Starting 2-4 index PNO integral generation ... done

Timings:
Total PNO integral transformation time     ...          9.572 sec
Size of the 3-external file                ...       106 MB
Size of the 4-external file                ...       727 MB
Size of the IKJL file                      ...         0 MB
Size of the all 3-external file            ...       854 MB
Size of the 1-external file                ...         2 MB

Making pair/pair overlap matrices          ... done (    0.849 sec)
Size of the pair overlap file              ... 180 MB
Redoing the guess amplitudes               ... done (    0.002 sec)

-------------------------
FINAL STARTUP INFORMATION
-------------------------

E(0)                                       ...   -268.050645490
E(L-MP2)                                   ...     -1.002124761
E(L-MP2) including corrections             ...     -1.002124761
Initial E(tot)                             ...   -269.052770251
<T|T>                                      ...      0.245303668
Number of pairs included                   ... 136
Total number of pairs                      ... 136

------------------------------------------------
                  RHF COUPLED CLUSTER ITERATIONS
------------------------------------------------

Number of PNO amplitudes to be optimized   ...       267086
Number of non-PNO amplitudes               ...      7899016
Untruncated number of regular amplitudes   ...      7899016

Iter       E(tot)           E(Corr)          Delta-E          Residual     Time
  0   -269.021162357     -0.969731951      0.032392811      0.014465362    5.33
                           *** Turning on DIIS ***
  1   -269.059726556     -1.008296150     -0.038564199      0.006324877    5.31
  2   -269.085491352     -1.034060946     -0.025764797      0.002715699    5.31
  3   -269.090409468     -1.038979062     -0.004918116      0.000986920    5.32
  4   -269.091630455     -1.040200048     -0.001220987      0.000506080    5.37
  5   -269.091879698     -1.040449292     -0.000249243      0.000223317    6.81
  6   -269.091937829     -1.040507423     -0.000058131      0.000093660    5.43
  7   -269.091948281     -1.040517875     -0.000010452      0.000033577    5.34
  8   -269.091949722     -1.040519316     -0.000001441      0.000011681    5.40
  9   -269.091948866     -1.040518460      0.000000857      0.000003297    5.41
               --- The Coupled-Cluster iterations have converged ---

----------------------
COUPLED CLUSTER ENERGY
----------------------

E(0)                                       ...   -268.050645490
E(CORR)(strong-pairs)                      ...     -1.040518460
E(CORR)(weak-pairs)                        ...     -0.000784916
E(CORR)(corrected)                         ...     -1.041303376
E(TOT)                                     ...   -269.091948866
Singles Norm <S|S>**1/2                    ...      0.058355377  
T1 diagnostic                              ...      0.010315871  

------------------
LARGEST AMPLITUDES
------------------
  14-> 27  14-> 27       0.036501
  17-> 25  17-> 25       0.035430
  19-> 27  19-> 27       0.035164
  11-> 21  11-> 21       0.028836
  17-> 21  17-> 21       0.028798
  20-> 21  20-> 21       0.028708
   9-> 21   9-> 21       0.028542
  15-> 21  15-> 21       0.028374
  19-> 21  19-> 21       0.027780
  14-> 21  14-> 21       0.027631
  12-> 21  12-> 21       0.027345
  10-> 21  10-> 21       0.027293
  16-> 25  16-> 25       0.027129
  14-> 21  14-> 27       0.026860
  14-> 27  14-> 21       0.026860
  16-> 21  16-> 21       0.026585


-------------------------------------------
DLPNO BASED TRIPLES CORRECTION
-------------------------------------------

Singles multiplier          ...  1.000000
TCutTNO                     ... 1.000e-09
TCutMP2Pairs                ... 1.000e-06
TCutDOStrong                ... 1.000e-02
TCutMKNStrong               ... 1.000e-02
TCutDOWeak                  ... 2.000e-02
TCutMKNWeak                 ... 1.000e-01

Fragment selection                          .... not used
Number of Triples that are to be computed   ...       800

 . . . . . . . . .
10% done  
20% done  
30% done  
40% done  
50% done  
60% done  
70% done  
80% done  
90% done               (     52.693 sec)
Triples timings:
Total time for T0               ...    56.059 sec
Total time for Iterative (T)    ...     0.000 sec
Total time of overall (T)       ...    56.203 sec

Triples List generation         ...     0.000 sec
TNO generation                  ...     3.361 sec
Pair density generation         ...     0.003 sec
Look up tables                  ...     0.000 sec
Generating 3-index integrals    ...    31.689 sec
  Make 4-ind.int. from 3-ind.int...     8.047 sec
  Projecting amplitudes (D + S) ...     3.435 sec
  Downprojecting integrals      ...     0.001 sec
  Energy contr. (sum over a,b,c)...     2.632 sec
Fitting ET(->0)                 ...     0.000 sec

Everything after 3-index        ...    21.004 sec

Timing details:
 TNO integrals                  ...    38.538 sec
   Reading 3-index integrals    ...     0.110 sec
   Sorting integrals            ...     5.619 sec
       Sorting integrals 1      ...     0.001 sec
       Sorting integrals 2      ...     2.198 sec
       Sorting integrals 3      ...     0.216 sec
       Sorting integrals 4      ...     0.010 sec
       Sorting integrals 5      ...     0.055 sec
       Sorting integrals 6      ...     3.140 sec
   Calculating local VM**-1/2   ...     0.208 sec
   Orthogonal. integrals        ...     0.365 sec
   Multipl. 3-index integrals   ...    32.235 sec
   All concerning IRIab (w/TNO) ...     4.132 sec

 Calculate W0/W1                ...     6.885 sec
 W 3-ext contribution           ...     3.838 sec
 W 3-int contribution           ...     0.969 sec
 Sorting W                      ...     1.971 sec

 V exchange contribution        ...     0.930 sec

 Timings for Triples without generation
     of 3-index integrals       ...    21.003 sec
       0 weak pairs             ...    21.003 sec
       1 weak pair              ...     0.000 sec
       2 weak pairs             ...     0.000 sec
       3 weak pairs             ...     0.000 sec
  Extra time for extrapolation  ...     0.000 sec

Number of Triples   (0, 1, 2, 3 weak pairs; overall):    800       0       0       0  (   800)
Number of Atoms     (0, 1, 2, 3 weak pairs; overall):   12.5     0.0     0.0     0.0  (    13)
Number of PAOs      (0, 1, 2, 3 weak pairs; overall):  254.4     0.0     0.0     0.0  (   262)
Number of AuxFcns   (0, 1, 2, 3 weak pairs; overall):  382.4     0.0     0.0     0.0  (   645)
Number of TNOs      (0, 1, 2, 3 weak pairs         ):   94.2     0.0     0.0     0.0
Aver. Number of NTNO, Atoms, PAOs, AuxFcns / Triples:    800    94.2    12.5   254.4   382.4

Triples Correction (T)                     ...     -0.037752433
Final correlation energy                   ...     -1.079055809
E(CCSD)                                    ...   -269.091948866
E(CCSD(T))                                 ...   -269.129701298


Maximum memory used throughout the entire calculation: 3551.3 MB


------------------------------------------------------------------------------- 
                                     TIMINGS                                   
------------------------------------------------------------------------------- 


Total execution time                   ...      163.355 sec

Localization of occupied MO's          ...        0.471 sec (  0.3%)
Fock Matrix Formation                  ...        1.095 sec (  0.7%)
Global overlap, Fock, MKN matrices     ...        0.167 sec (  0.1%)
Differential overlap integrals         ...        0.069 sec (  0.0%)
Organizing maps                        ...        0.022 sec (  0.0%)
RI 3-index integral generations        ...        2.301 sec (  1.4%)
RI-PNO integral transformation         ...       41.082 sec ( 25.1%)
Initial Guess                          ...        6.441 sec (  3.9%)
DIIS Solver                            ...        0.897 sec (  0.5%)
State Vector Update                    ...        0.020 sec (  0.0%)
Sigma-vector construction              ...       54.837 sec ( 33.6%)
  <D|H|D>(0-ext)                       ...        1.211 sec (  2.2% of sigma)
  <D|H|D>(2-ext Fock)                  ...        0.008 sec (  0.0% of sigma)
  <D|H|D>(2-ext)                       ...        4.888 sec (  8.9% of sigma)
  <D|H|D>(4-ext)                       ...        7.324 sec ( 13.4% of sigma)
  <D|H|D>(4-ext-corr)                  ...       31.264 sec ( 57.0% of sigma)
  CCSD doubles correction              ...        0.093 sec (  0.2% of sigma)
  <S|H|S>                              ...        0.241 sec (  0.4% of sigma)
  <S|H|D>(1-ext)                       ...        0.163 sec (  0.3% of sigma)
  <D|H|S>(1-ext)                       ...        0.006 sec (  0.0% of sigma)
  <S|H|D>(3-ext)                       ...        0.264 sec (  0.5% of sigma)
  Fock-dressing                        ...        5.504 sec ( 10.0% of sigma)
  Singles amplitudes                   ...        0.234 sec (  0.4% of sigma)
  (ik|jl)-dressing                     ...        0.886 sec (  1.6% of sigma)
  (ij|ab),(ia|jb)-dressing             ...        2.443 sec (  4.5% of sigma)
  Pair energies                        ...        0.005 sec (  0.0% of sigma)
Total Time for computing (T)           ...       56.240 sec ( 34.4% of ALL)


-------------------------   --------------------
FINAL SINGLE POINT ENERGY      -269.129701298384
-------------------------   --------------------


                            ***************************************
                            *     ORCA property calculations      *
                            ***************************************

                                    ---------------------
                                    Active property flags
                                    ---------------------
   (+) Dipole Moment


------------------------------------------------------------------------------
                       ORCA ELECTRIC PROPERTIES CALCULATION
------------------------------------------------------------------------------

Dipole Moment Calculation                       ... on
Quadrupole Moment Calculation                   ... off
Polarizability Calculation                      ... off
GBWName                                         ... Formaldehyde_dimethylacetal_g_ecl_dimethoxymethane.gbw
Electron density file                           ... Formaldehyde_dimethylacetal_g_ecl_dimethoxymethane.scfp.tmp
The origin for moment calculation is the CENTER OF MASS  = ( 0.033080, -0.086361 -0.062340)

-------------
DIPOLE MOMENT
-------------
                                X             Y             Z
Electronic contribution:      1.05317      -3.04698      -1.90784
Nuclear contribution   :     -1.38916       3.62722       2.61817
                        -----------------------------------------
Total Dipole Moment    :     -0.33599       0.58024       0.71033
                        -----------------------------------------
Magnitude (a.u.)       :      0.97680
Magnitude (Debye)      :      2.48282



--------------------
Rotational spectrum 
--------------------
 
Rotational constants in cm-1:     0.332869     0.110423     0.092707 
Rotational constants in MHz :  9979.171834  3310.410502  2779.277188 

 Dipole components along the rotational axes: 
x,y,z [a.u.] :    -0.335824    -0.593580     0.699299 
x,y,z [Debye]:    -0.853598    -1.508761     1.777477 

 

Timings for individual modules:

Sum of individual times         ...      171.196 sec (=   2.853 min)
GTO integral calculation        ...        0.473 sec (=   0.008 min)   0.3 %
SCF iterations                  ...        6.525 sec (=   0.109 min)   3.8 %
MDCI module                     ...      164.198 sec (=   2.737 min)  95.9 %
                             ****ORCA TERMINATED NORMALLY****
TOTAL RUN TIME: 0 days 0 hours 2 minutes 51 seconds 482 msec
Formaldehyde_dimethylacetal_g_ecl_dimethoxymethane.gbw -> /home1/pantazis/klk/xyz_1/Oxygen_compounds/Formaldehyde_dimethylacetal_g_ecl_dimethoxymethane.gbw
Formaldehyde_dimethylacetal_g_ecl_dimethoxymethane.job -> /home1/pantazis/klk/xyz_1/Oxygen_compounds/Formaldehyde_dimethylacetal_g_ecl_dimethoxymethane.job
Formaldehyde_dimethylacetal_g_ecl_dimethoxymethane.loc -> /home1/pantazis/klk/xyz_1/Oxygen_compounds/Formaldehyde_dimethylacetal_g_ecl_dimethoxymethane.loc
Formaldehyde_dimethylacetal_g_ecl_dimethoxymethane.nodes -> /home1/pantazis/klk/xyz_1/Oxygen_compounds/Formaldehyde_dimethylacetal_g_ecl_dimethoxymethane.nodes
Formaldehyde_dimethylacetal_g_ecl_dimethoxymethane.prop -> /home1/pantazis/klk/xyz_1/Oxygen_compounds/Formaldehyde_dimethylacetal_g_ecl_dimethoxymethane.prop
Formaldehyde_dimethylacetal_g_ecl_dimethoxymethane_property.txt -> /home1/pantazis/klk/xyz_1/Oxygen_compounds/Formaldehyde_dimethylacetal_g_ecl_dimethoxymethane_property.txt
Formaldehyde_dimethylacetal_g_ecl_dimethoxymethane.xyz -> /home1/pantazis/klk/xyz_1/Oxygen_compounds/Formaldehyde_dimethylacetal_g_ecl_dimethoxymethane.xyz
cp: cannot stat Formaldehyde_dimethylacetal_g_ecl_dimethoxymethane.asa.inp: No such file or directory
