! Job execution by suborca V 6.07 on ZEUS !
Job started from zeus1, running /scratch/pantazis/hydroxycyclohexane_ax__QBUFb2/orca/orca copied from /opt/orca on zeussn143 in /scratch/pantazis/hydroxycyclohexane_ax__QBUFb2
Job execution start: Fri Jun 28 09:57:37 CEST 2019
Shared library path: /scratch/pantazis/hydroxycyclohexane_ax__QBUFb2/orca:/opt/openmpi_1.10.2/lib:/opt/intel/mkl/lib/intel64:/opt/intel/lib/intel64:
PBS Job ID is: 158371.icqc
izeussn143
izeussn143
izeussn143
izeussn143
izeussn143
izeussn143
izeussn143
izeussn143

                                 *****************
                                 * O   R   C   A *
                                 *****************

           --- An Ab Initio, DFT and Semiempirical electronic structure package ---

                  #######################################################
                  #                        -***-                        #
                  #          Department of theory and spectroscopy      #
                  #               Directorship: Frank Neese             #
                  #        Max Planck Institute fuer Kohlenforschung    #
                  #                Kaiser Wilhelm Platz 1               #
                  #                 D-45470 Muelheim/Ruhr               #
                  #                      Germany                        #
                  #                                                     #
                  #                  All rights reserved                #
                  #                        -***-                        #
                  #######################################################


                         Program Version 4.1.x  -  STABLE  -
                                (SVN: $Rev: 14094$)
                ($Date: 2019-06-14 15:01:15 +0200 (Fri, 14 Jun 2019) $)

                         (BUILD: $Sun Jun 23 06:18:31 CEST 2019$)


 With contributions from (in alphabetic order):
   Daniel Aravena         : Magnetic Properties
   Michael Atanasov       : Ab Initio Ligand Field Theory
   Alexander A. Auer      : GIAO ZORA
   Ute Becker             : Parallelization
   Giovanni Bistoni       : ED, Open-shell LED
   Martin Brehm           : Molecular dynamics
   Dmytro Bykov           : SCF Hessian
   Vijay G. Chilkuri      : MRCI spin determinant printing
   Dipayan Datta          : RHF DLPNO-CCSD density
   Achintya Kumar Dutta   : EOM-CC, STEOM-CC
   Dmitry Ganyushin       : Spin-Orbit,Spin-Spin,Magnetic field MRCI
   Miquel Garcia          : C-PCM Hessian
   Yang Guo               : DLPNO-NEVPT2, CIM, IAO-localization
   Andreas Hansen         : Spin unrestricted coupled pair/coupled cluster methods
   Benjamin Helmich-Paris : CASSCF linear response (MC-RPA)
   Lee Huntington         : MR-EOM, pCC
   Robert Izsak           : Overlap fitted RIJCOSX, COSX-SCS-MP3, EOM
   Christian Kollmar      : KDIIS, OOCD, Brueckner-CCSD(T), CCSD density
   Simone Kossmann        : Meta GGA functionals, TD-DFT gradient, OOMP2, MP2 Hessian
   Martin Krupicka        : AUTO-CI
   Lucas Lang             : DCDCAS
   Dagmar Lenk            : GEPOL surface, SMD
   Dimitrios Liakos       : Extrapolation schemes; parallel MDCI
   Dimitrios Manganas     : ROCIS; embedding schemes
   Dimitrios Pantazis     : SARC Basis sets
   Taras Petrenko         : DFT Hessian,TD-DFT gradient, ASA, ECA, R-Raman, ABS, FL, XAS/XES, NRVS
   Peter Pinski           : DLPNO-MP2, DLPNO-MP2 Gradient
   Christoph Reimann      : Effective Core Potentials
   Marius Retegan         : Local ZFS, SOC
   Christoph Riplinger    : Optimizer, TS searches, QM/MM, DLPNO-CCSD(T), (RO)-DLPNO pert. Triples
   Tobias Risthaus        : Range-separated hybrids, TD-DFT gradient, RPA, STAB
   Michael Roemelt        : Restricted open shell CIS
   Masaaki Saitow         : Open-shell DLPNO
   Barbara Sandhoefer     : DKH picture change effects
   Avijit Sen             : IP-ROCIS
   Kantharuban Sivalingam : CASSCF convergence, NEVPT2, FIC-MRCI
   Bernardo de Souza      : ESD, SOC TD-DFT
   Georgi Stoychev        : AutoAux, RI-MP2 NMR
   Willem Van den Heuvel  : Paramagnetic NMR
   Boris Wezisla          : Elementary symmetry handling
   Frank Wennmohs         : Technical directorship


 We gratefully acknowledge several colleagues who have allowed us to
 interface, adapt or use parts of their codes:
   Stefan Grimme, W. Hujo, H. Kruse,             : VdW corrections, initial TS optimization,
                  C. Bannwarth                     DFT functionals, gCP, sTDA/sTD-DF
   Ed Valeev                                     : LibInt (2-el integral package), F12 methods
   Garnet Chan, S. Sharma, J. Yang, R. Olivares  : DMRG
   Ulf Ekstrom                                   : XCFun DFT Library
   Mihaly Kallay                                 : mrcc  (arbitrary order and MRCC methods)
   Andreas Klamt, Michael Diedenhofen            : otool_cosmo (COSMO solvation model)
   Jiri Pittner, Ondrej Demel                    : Mk-CCSD
   Frank Weinhold                                : gennbo (NPA and NBO analysis)
   Christopher J. Cramer and Donald G. Truhlar   : smd solvation model
   Lars Goerigk                                  : TD-DFT with DH, B97 family of functionals
   V. Asgeirsson, H. Jonsson                     : NEB implementation
   FAccTs GmbH                                   : IRC, NEB, NEB-TS, Multilevel


 Your calculation uses the libint2 library for the computation of 2-el integrals
 For citations please refer to: http://libint.valeyev.net

 This ORCA versions uses:
   CBLAS   interface :  Fast vector & matrix operations
   LAPACKE interface :  Fast linear algebra routines
   SCALAPACK package :  Parallel linear algebra routines




***************************************
The coordinates will be read from file: hydroxycyclohexane_ax.xyz
***************************************


----- Orbital basis set information -----
Your calculation utilizes the basis: cc-pVTZ 
       H, B-Ne : Obtained from the ccRepo (grant-hill.group.shef.ac.uk/ccrepo) Feb. 2017
                 T. H. Dunning, Jr., J. Chem. Phys. 90, 1007 (1989)
            He : Obtained from the ccRepo (grant-hill.group.shef.ac.uk/ccrepo) Feb. 2017
                 D. E. Woon, T. H. Dunning, Jr., J. Chem. Phys. 100, 2975 (1994)
  Li-Be, Na-Mg : Obtained from the ccRepo (grant-hill.group.shef.ac.uk/ccrepo) Feb. 2017
                 B. P. Prascher, D. E. Woon, K. A. Peterson, T. H. Dunning, Jr., A. K. Wilson, Theor. Chem. Acc. 128, 69 (2011)
         Al-Ar : Obtained from the ccRepo (grant-hill.group.shef.ac.uk/ccrepo) Feb. 2017
                 D. E. Woon, T. H. Dunning, Jr., J. Chem. Phys. 98, 1358 (1993)
            Ca : Obtained from the Peterson Research Group Website (tyr0.chem.wsu.edu/~kipeters) Feb. 2017
                 J. Koput, K. A. Peterson, J. Phys. Chem. 106, 9595 (2002)
         Sc-Zn : Obtained from the ccRepo (grant-hill.group.shef.ac.uk/ccrepo) Feb. 2017
                 N. B. Balabanov, K. A. Peterson, J. Chem. Phys. 123, 064107 (2005)
                 N. B. Balabanov, K. A. Peterson, J. Chem. Phys. 125, 074110 (2006)
         Ga-Kr : Obtained from the ccRepo (grant-hill.group.shef.ac.uk/ccrepo) Feb. 2017
                 A. K. Wilson, D. E. Woon, K. A. Peterson, T. H. Dunning, Jr., J. Chem. Phys. 110, 7667 (1999)
             Y : Obtained from the ccRepo (grant-hill.group.shef.ac.uk/ccrepo) Feb. 2017
                 K. A. Peterson, D. Figgen, M. Dolg, H. Stoll, J. Chem. Phys. 126, 124101 (2007)
        Ag, Au : Obtained from the Peterson Research Group Website (tyr0.chem.wsu.edu/~kipeters) Feb. 2017
                 K. A. Peterson, C. Puzzarini, Theor. Chem. Acc. 114, 283 (2005)

----- AuxC basis set information -----
Your calculation utilizes the auxiliary basis: cc-pVTZ/C 
  Obtained from the EMSL Basis Set Exchange (bse.pnl.gov) Feb. 2017
  H-He, B-F, Al-Ar, Ga-Kr : F. Weigend, A. Kohn, C. Hattig, J. Chem. Phys. 116, 3175 (2002)
             Li-Be, Na-Mg : C. Haettig, Phys. Chem. Chem. Phys. 7, 59 (2005)
                       Ne : C. Haettig, Phys. Chem. Chem. Phys. 7, 59 (2005)
                            F. Weigend, A. Kohn, C. Hattig, J. Chem. Phys. 116, 3175 (2002)
                    Sc-Zn : J. G. Hill, J. A. Platts, J. Chem. Phys. 128, 044104 (2008)

----- AuxJK basis set information -----
Your calculation utilizes the auxiliary basis: cc-pVTZ/JK 
  H, B-F, Al-Cl, Ga-Br : Obtained from the TURBOMOLE 7.0 basis set library

================================================================================
                                        WARNINGS
                       Please study these warnings very carefully!
================================================================================


WARNING: MDCI localization with Augmented Hessian Foster-Boys
  ===> : Switching off randomization!

WARNING: Post HF methods need fully converged wavefunctions
  ===> : Setting SCFConvForced true
         You can overwrite this default with %scf ConvForced false 


INFO   : the flag for use of LIBINT has been found!

================================================================================
                                       INPUT FILE
================================================================================
NAME = hydroxycyclohexane_ax.inp
|  1> ! RHF DLPNO-CCSD(T) cc-pVTZ RIJK cc-pVTZ/JK cc-pVTZ/C
|  2> ! KDIIS SOSCF TightSCF TightPNO
|  3> 
|  4> %pal nprocs 8 end
|  5> 
|  6> %maxcore 8000
|  7> 
|  8> %scf maxiter 300
|  9>      shift shift 0.2 erroff 0.1 end
| 10> end
| 11> 
| 12> * xyzfile 0 1 hydroxycyclohexane_ax.xyz 
| 13> 
| 14> 
| 15>                          ****END OF INPUT****
================================================================================

                       ****************************
                       * Single Point Calculation *
                       ****************************

---------------------------------
CARTESIAN COORDINATES (ANGSTROEM)
---------------------------------
  C      1.161990   -0.029990    0.428400
  C      0.337310    1.255890    0.606010
  C     -0.906440    1.286430   -0.296190
  C     -1.773090    0.032560   -0.093970
  C     -0.953640   -1.250300   -0.309640
  C      0.291070   -1.280140    0.591760
  O      1.750730   -0.104460   -0.883010
  H     -1.489960    2.192770   -0.092470
  H     -0.591390    1.341220   -1.345990
  H     -2.633240    0.053710   -0.774570
  H     -2.182690    0.035930    0.927720
  H     -0.638040   -1.308860   -1.358400
  H     -1.572040   -2.134870   -0.113370
  H      0.031590    1.321450    1.660300
  H      0.974150    2.131990    0.417200
  H      0.901590   -2.165490    0.381090
  H     -0.016660   -1.343370    1.644870
  H      1.965660   -0.052100    1.180910
  H      2.302050    0.676580   -1.021460

----------------------------
CARTESIAN COORDINATES (A.U.)
----------------------------
  NO LB      ZA    FRAG     MASS         X           Y           Z
   0 C     6.0000    0    12.011    2.195843   -0.056673    0.809559
   1 C     6.0000    0    12.011    0.637424    2.373288    1.145193
   2 C     6.0000    0    12.011   -1.712923    2.431000   -0.559718
   3 C     6.0000    0    12.011   -3.350655    0.061529   -0.177578
   4 C     6.0000    0    12.011   -1.802118   -2.362725   -0.585135
   5 C     6.0000    0    12.011    0.550043   -2.419114    1.118264
   6 O     8.0000    0    15.999    3.308400   -0.197401   -1.668647
   7 H     1.0000    0     1.008   -2.815616    4.143735   -0.174743
   8 H     1.0000    0     1.008   -1.117565    2.534538   -2.543552
   9 H     1.0000    0     1.008   -4.976102    0.101497   -1.463725
  10 H     1.0000    0     1.008   -4.124686    0.067898    1.753137
  11 H     1.0000    0     1.008   -1.205721   -2.473387   -2.567004
  12 H     1.0000    0     1.008   -2.970725   -4.034320   -0.214238
  13 H     1.0000    0     1.008    0.059696    2.497179    3.137512
  14 H     1.0000    0     1.008    1.840877    4.028877    0.788394
  15 H     1.0000    0     1.008    1.703758   -4.092183    0.720156
  16 H     1.0000    0     1.008   -0.031483   -2.538601    3.108354
  17 H     1.0000    0     1.008    3.714559   -0.098455    2.231596
  18 H     1.0000    0     1.008    4.350244    1.278551   -1.930280

--------------------------------
INTERNAL COORDINATES (ANGSTROEM)
--------------------------------
 C      0   0   0     0.000000000000     0.00000000     0.00000000
 C      1   0   0     1.537897847355     0.00000000     0.00000000
 C      2   1   0     1.536818660122   112.50697806     0.00000000
 C      3   2   1     1.537584185598   111.26881352    54.22696808
 C      4   3   2     1.537446464434   111.19706026   304.87109113
 C      1   2   3     1.532339113415   111.41139899   307.27713129
 O      1   2   3     1.439429316292   111.58011289    66.42414697
 H      3   2   1     1.097018515979   109.74770293   176.78977738
 H      3   2   1     1.097423567544   109.28320293   293.59888207
 H      4   3   2     1.097051368442   110.15826273   182.27012340
 H      4   3   2     1.100742464430   109.22720455    65.62523815
 H      5   4   3     1.096781733619   109.39367153   294.48382351
 H      5   4   3     1.096997975294   110.32060463   177.19451724
 H      2   1   3     1.099677332721   108.03808539   121.21011859
 H      2   1   3     1.099438771237   109.62323768   236.46836172
 H      6   1   2     1.095883726405   108.78275493   175.67547507
 H      6   1   2     1.098970635595   107.95378375   291.54565817
 H      1   2   3     1.101201898427   109.22151654   186.80878009
 H      7   1   2     0.965994630679   108.79479759    57.58155950

---------------------------
INTERNAL COORDINATES (A.U.)
---------------------------
 C      0   0   0     0.000000000000     0.00000000     0.00000000
 C      1   0   0     2.906205753449     0.00000000     0.00000000
 C      2   1   0     2.904166385131   112.50697806     0.00000000
 C      3   2   1     2.905613018628   111.26881352    54.22696808
 C      4   3   2     2.905352763345   111.19706026   304.87109113
 C      1   2   3     2.895701268649   111.41139899   307.27713129
 O      1   2   3     2.720127196929   111.58011289    66.42414697
 H      3   2   1     2.073064559040   109.74770293   176.78977738
 H      3   2   1     2.073829995568   109.28320293   293.59888207
 H      4   3   2     2.073126641199   110.15826273   182.27012340
 H      4   3   2     2.080101801751   109.22720455    65.62523815
 H      5   4   3     2.072617105227   109.39367153   294.48382351
 H      5   4   3     2.073025742773   110.32060463   177.19451724
 H      2   1   3     2.078088994523   108.03808539   121.21011859
 H      2   1   3     2.077638178654   109.62323768   236.46836172
 H      6   1   2     2.070920117527   108.78275493   175.67547507
 H      6   1   2     2.076753530496   107.95378375   291.54565817
 H      1   2   3     2.080970006182   109.22151654   186.80878009
 H      7   1   2     1.825465298821   108.79479759    57.58155950

---------------------
BASIS SET INFORMATION
---------------------
There are 3 groups of distinct atoms

 Group   1 Type C   : 18s5p2d1f contracted to 4s3p2d1f pattern {8811/311/11/1}
 Group   2 Type O   : 18s5p2d1f contracted to 4s3p2d1f pattern {8811/311/11/1}
 Group   3 Type H   : 5s2p1d contracted to 3s2p1d pattern {311/11/1}

Atom   0C    basis set group =>   1
Atom   1C    basis set group =>   1
Atom   2C    basis set group =>   1
Atom   3C    basis set group =>   1
Atom   4C    basis set group =>   1
Atom   5C    basis set group =>   1
Atom   6O    basis set group =>   2
Atom   7H    basis set group =>   3
Atom   8H    basis set group =>   3
Atom   9H    basis set group =>   3
Atom  10H    basis set group =>   3
Atom  11H    basis set group =>   3
Atom  12H    basis set group =>   3
Atom  13H    basis set group =>   3
Atom  14H    basis set group =>   3
Atom  15H    basis set group =>   3
Atom  16H    basis set group =>   3
Atom  17H    basis set group =>   3
Atom  18H    basis set group =>   3
-------------------------------
AUXILIARY BASIS SET INFORMATION
-------------------------------
There are 3 groups of distinct atoms

 Group   1 Type C   : 8s6p5d3f1g contracted to 8s6p5d3f1g pattern {11111111/111111/11111/111/1}
 Group   2 Type O   : 8s6p5d3f1g contracted to 8s6p5d3f1g pattern {11111111/111111/11111/111/1}
 Group   3 Type H   : 4s3p2d1f contracted to 4s3p2d1f pattern {1111/111/11/1}

Atom   0C    basis set group =>   1
Atom   1C    basis set group =>   1
Atom   2C    basis set group =>   1
Atom   3C    basis set group =>   1
Atom   4C    basis set group =>   1
Atom   5C    basis set group =>   1
Atom   6O    basis set group =>   2
Atom   7H    basis set group =>   3
Atom   8H    basis set group =>   3
Atom   9H    basis set group =>   3
Atom  10H    basis set group =>   3
Atom  11H    basis set group =>   3
Atom  12H    basis set group =>   3
Atom  13H    basis set group =>   3
Atom  14H    basis set group =>   3
Atom  15H    basis set group =>   3
Atom  16H    basis set group =>   3
Atom  17H    basis set group =>   3
Atom  18H    basis set group =>   3
-------------------------------
AUXILIARY BASIS SET INFORMATION
-------------------------------
There are 3 groups of distinct atoms

 Group   1 Type C   : 10s7p5d2f1g contracted to 10s7p5d2f1g pattern {1111111111/1111111/11111/11/1}
 Group   2 Type O   : 10s7p5d2f1g contracted to 10s7p5d2f1g pattern {1111111111/1111111/11111/11/1}
 Group   3 Type H   : 4s3p2d1f contracted to 4s3p2d1f pattern {1111/111/11/1}

Atom   0C    basis set group =>   1
Atom   1C    basis set group =>   1
Atom   2C    basis set group =>   1
Atom   3C    basis set group =>   1
Atom   4C    basis set group =>   1
Atom   5C    basis set group =>   1
Atom   6O    basis set group =>   2
Atom   7H    basis set group =>   3
Atom   8H    basis set group =>   3
Atom   9H    basis set group =>   3
Atom  10H    basis set group =>   3
Atom  11H    basis set group =>   3
Atom  12H    basis set group =>   3
Atom  13H    basis set group =>   3
Atom  14H    basis set group =>   3
Atom  15H    basis set group =>   3
Atom  16H    basis set group =>   3
Atom  17H    basis set group =>   3
Atom  18H    basis set group =>   3


           ************************************************************
           *        Program running with 8 parallel MPI-processes     *
           *              working on a common directory               *
           ************************************************************
------------------------------------------------------------------------------
                           ORCA GTO INTEGRAL CALCULATION
                           -- RI-GTO INTEGRALS CHOSEN --
------------------------------------------------------------------------------

                         BASIS SET STATISTICS AND STARTUP INFO

Gaussian basis set:
 # of primitive gaussian shells          ...  278
 # of primitive gaussian functions       ...  542
 # of contracted shells                  ...  142
 # of contracted basis functions         ...  378
 Highest angular momentum                ...    3
 Maximum contraction depth               ...    8
Auxiliary gaussian basis set:
 # of primitive gaussian shells          ...  295
 # of primitive gaussian functions       ...  913
 # of contracted shells                  ...  295
 # of contracted aux-basis functions     ...  913
 Highest angular momentum                ...    4
 Maximum contraction depth               ...    1
Ratio of auxiliary to basis functions    ...  2.42
Integral package used                  ... LIBINT
 One Electron integrals                  ... done
 Ordering auxiliary basis shells         ... done
 Integral threshhold             Thresh  ...  2.500e-11
 Primitive cut-off               TCut    ...  2.500e-12
 Pre-screening matrix                    ... done
 Shell pair data                         ... 
 Ordering of the shell pairs             ... done (   0.002 sec) 9802 of 10153 pairs
 Determination of significant pairs      ... done (   0.000 sec)
 Creation of shell pair data             ... done (   0.002 sec)
 Storage of shell pair data              ... done (   0.008 sec)
 Shell pair data done in (   0.012 sec)
 Computing two index integrals           ... done
 Cholesky decomposition of the V-matrix  ... done


Timings:
 Total evaluation time                   ...   0.727 sec (  0.012 min)
 One electron matrix time                ...   0.228 sec (  0.004 min) = 31.3%
 Schwartz matrix evaluation time         ...   0.237 sec (  0.004 min) = 32.5%
 Two index repulsion integral time       ...   0.099 sec (  0.002 min) = 13.6%
 Cholesky decomposition of V             ...   0.123 sec (  0.002 min) = 17.0%
 Three index repulsion integral time     ...   0.000 sec (  0.000 min) =  0.0%



           ************************************************************
           *        Program running with 8 parallel MPI-processes     *
           *              working on a common directory               *
           ************************************************************
-------------------------------------------------------------------------------
                                 ORCA SCF
-------------------------------------------------------------------------------

------------
SCF SETTINGS
------------
Hamiltonian:
 Ab initio Hamiltonian  Method          .... Hartree-Fock(GTOs)
 RI-approximation to the Coulomb term is turned on
   Number of auxiliary basis functions  .... 913
   RI-JK (J+K treated both via RI)      .... on


General Settings:
 Integral files         IntName         .... hydroxycyclohexane_ax
 Hartree-Fock type      HFTyp           .... RHF
 Total Charge           Charge          ....    0
 Multiplicity           Mult            ....    1
 Number of Electrons    NEL             ....   56
 Basis Dimension        Dim             ....  378
 Nuclear Repulsion      ENuc            ....    333.6855454622 Eh

Convergence Acceleration:
 DIIS                   CNVDIIS         .... off
 Newton-Raphson         CNVNR           .... off
 SOSCF                  CNVSOSCF        .... on
   Start iteration      SOSCFMaxIt      ....   150
   Startup grad/error   SOSCFStart      ....  0.003300
 Level Shifting         CNVShift        .... on
   Level shift para.    LevelShift      ....    0.2000
   Turn off err/grad.   ShiftErr        ....    0.1000
 Zerner damping         CNVZerner       .... off
 Static damping         CNVDamp         .... off
 Fernandez-Rico         CNVRico         .... off

SCF Procedure:
 Maximum # iterations   MaxIter         ....   300
 SCF integral mode      SCFMode         .... Direct
   Integral package                     .... LIBINT
 Reset frequency        DirectResetFreq ....    20
 Integral Threshold     Thresh          ....  2.500e-11 Eh
 Primitive CutOff       TCut            ....  2.500e-12 Eh

Convergence Tolerance:
 Convergence Check Mode ConvCheckMode   .... Total+1el-Energy
 Convergence forced     ConvForced      .... 1
 Energy Change          TolE            ....  1.000e-08 Eh
 1-El. energy change                    ....  1.000e-05 Eh
 Orbital Gradient       TolG            ....  1.000e-05
 Orbital Rotation angle TolX            ....  1.000e-05


Diagonalization of the overlap matrix:
Smallest eigenvalue                        ... 3.373e-04
Time for diagonalization                   ...    0.029 sec
Threshold for overlap eigenvalues          ... 1.000e-08
Number of eigenvalues below threshold      ... 0
Time for construction of square roots      ...    0.053 sec
Total time needed                          ...    0.082 sec

-------------------
DFT GRID GENERATION
-------------------

General Integration Accuracy     IntAcc      ...  4.340
Radial Grid Type                 RadialGrid  ... Gauss-Chebyshev
Angular Grid (max. acc.)         AngularGrid ... Lebedev-110
Angular grid pruning method      GridPruning ... 3 (G Style)
Weight generation scheme         WeightScheme... Becke
Basis function cutoff            BFCut       ...    1.0000e-11
Integration weight cutoff        WCut        ...    1.0000e-14
Grids for H and He will be reduced by one unit

# of grid points (after initial pruning)     ...  21180 (   0.0 sec)
# of grid points (after weights+screening)   ...  19302 (   0.0 sec)
nearest neighbour list constructed           ...    0.0 sec
Grid point re-assignment to atoms done       ...    0.0 sec
Grid point division into batches done        ...    0.0 sec
Reduced shell lists constructed in    0.1 sec

Total number of grid points                  ...    19302
Total number of batches                      ...      309
Average number of points per batch           ...       62
Average number of grid points per atom       ...     1016
Average number of shells per batch           ...   125.23 (88.19%)
Average number of basis functions per batch  ...   330.83 (87.52%)
Average number of large shells per batch     ...   103.48 (82.63%)
Average number of large basis fcns per batch ...   269.43 (81.44%)
Average number of aux-shells per batch       ...   125.23 (42.45%)
Average number of aux functions per batch    ...   330.83 (36.23%)
Maximum spatial batch extension              ...   2.34,  2.67,  2.35 au
Average spatial batch extension              ...   0.20,  0.20,  0.19 au

Time for grid setup =    0.176 sec

------------------------------
INITIAL GUESS: MODEL POTENTIAL
------------------------------
Loading Hartree-Fock densities                     ... done
Calculating cut-offs                               ... done
Setting up the integral package                    ... done
Initializing the effective Hamiltonian             ... done
Starting the Coulomb interaction                   ... done (   0.1 sec)
Reading the grid                                   ... done
Mapping shells                                     ... done
Starting the XC term evaluation                    ... done (   0.1 sec)
Transforming the Hamiltonian                       ... done (   0.0 sec)
Diagonalizing the Hamiltonian                      ... done (   0.0 sec)
Back transforming the eigenvectors                 ... done (   0.0 sec)
Now organizing SCF variables                       ... done
                      ------------------
                      INITIAL GUESS DONE (   0.5 sec)
                      ------------------
--------------
SCF ITERATIONS
--------------
ITER       Energy         Delta-E        Max-DP      RMS-DP      [F,P]   Gradient Norm
                             ****Turning on KDIIS(Cayley)****
  0   -308.7762543733   0.000000000000 0.01087496  0.00025017  0.0927012   0.153679294
  1   -308.8900297536  -0.113775380282 0.01814659  0.00028034  0.0855424   0.132714714
  2   -308.9826704428  -0.092640689234 0.03009394  0.00047753  0.0686424   0.107862042
  3   -309.0969735526  -0.114303109821 0.04556131  0.00076606  0.0414635   0.066373731
                      *** Initiating the SOSCF procedure ***
                           *** Shutting down KDIIS ***
                      *** Re-Reading the Fockian *** 
                      *** Removing any level shift *** 
ITER      Energy       Delta-E        Grad      Rot      Max-DP    RMS-DP
  4   -309.17092333  -0.0739497729  0.001864  0.001864  0.001726  0.000051
  5   -309.17127572  -0.0003523913  0.000824  0.001126  0.001269  0.000042
  6   -309.17132627  -0.0000505571  0.000734  0.000498  0.000564  0.000016
  7   -309.17134585  -0.0000195759  0.000080  0.000116  0.000212  0.000006
  8   -309.17134634  -0.0000004905  0.000019  0.000053  0.000143  0.000003
  9   -309.17134639  -0.0000000485  0.000016  0.000011  0.000030  0.000001
                  ***Gradient check signals convergence***
              ***Rediagonalizing the Fockian in SOSCF/NRSCF***

               *****************************************************
               *                     SUCCESS                       *
               *           SCF CONVERGED AFTER  10 CYCLES          *
               *****************************************************


----------------
TOTAL SCF ENERGY
----------------

Total Energy       :         -309.17134640 Eh           -8412.98004 eV

Components:
Nuclear Repulsion  :          333.68554546 Eh            9080.04531 eV
Electronic Energy  :         -642.85689186 Eh          -17493.02536 eV
One Electron Energy:        -1081.36519752 Eh          -29425.44299 eV
Two Electron Energy:          438.50830565 Eh           11932.41763 eV

Virial components:
Potential Energy   :         -617.80767632 Eh          -16811.40155 eV
Kinetic Energy     :          308.63632992 Eh            8398.42150 eV
Virial Ratio       :            2.00173349


---------------
SCF CONVERGENCE
---------------

  Last Energy change         ...   -1.1528e-08  Tolerance :   1.0000e-08
  Last MAX-Density change    ...    1.0355e-05  Tolerance :   1.0000e-07
  Last RMS-Density change    ...    2.8809e-07  Tolerance :   5.0000e-09
  Last Orbital Gradient      ...    2.3454e-06  Tolerance :   1.0000e-05
  Last Orbital Rotation      ...    2.9574e-06  Tolerance :   1.0000e-05

             **** THE GBW FILE WAS UPDATED (hydroxycyclohexane_ax.gbw) ****
             **** DENSITY FILE WAS UPDATED (hydroxycyclohexane_ax.scfp.tmp) ****
             **** ENERGY FILE WAS UPDATED (hydroxycyclohexane_ax.en.tmp) ****
----------------
ORBITAL ENERGIES
----------------

  NO   OCC          E(Eh)            E(eV) 
   0   2.0000     -20.546700      -559.1041 
   1   2.0000     -11.275102      -306.8111 
   2   2.0000     -11.220565      -305.3271 
   3   2.0000     -11.215564      -305.1910 
   4   2.0000     -11.214410      -305.1596 
   5   2.0000     -11.214279      -305.1561 
   6   2.0000     -11.211203      -305.0723 
   7   2.0000      -1.347984       -36.6805 
   8   2.0000      -1.100267       -29.9398 
   9   2.0000      -1.000949       -27.2372 
  10   2.0000      -0.989140       -26.9159 
  11   2.0000      -0.833907       -22.6918 
  12   2.0000      -0.823006       -22.3951 
  13   2.0000      -0.745692       -20.2913 
  14   2.0000      -0.675066       -18.3695 
  15   2.0000      -0.651095       -17.7172 
  16   2.0000      -0.614241       -16.7143 
  17   2.0000      -0.602937       -16.4068 
  18   2.0000      -0.562305       -15.3011 
  19   2.0000      -0.551096       -14.9961 
  20   2.0000      -0.523325       -14.2404 
  21   2.0000      -0.517449       -14.0805 
  22   2.0000      -0.502366       -13.6701 
  23   2.0000      -0.480325       -13.0703 
  24   2.0000      -0.464189       -12.6312 
  25   2.0000      -0.450490       -12.2585 
  26   2.0000      -0.426012       -11.5924 
  27   2.0000      -0.414641       -11.2830 
  28   0.0000       0.132400         3.6028 
  29   0.0000       0.158035         4.3004 
  30   0.0000       0.162198         4.4136 
  31   0.0000       0.173811         4.7296 
  32   0.0000       0.195191         5.3114 
  33   0.0000       0.204835         5.5738 
  34   0.0000       0.211283         5.7493 
  35   0.0000       0.220069         5.9884 
  36   0.0000       0.228821         6.2265 
  37   0.0000       0.238828         6.4989 
  38   0.0000       0.248319         6.7571 
  39   0.0000       0.259938         7.0733 
  40   0.0000       0.314460         8.5569 
  41   0.0000       0.330292         8.9877 
  42   0.0000       0.336385         9.1535 
  43   0.0000       0.347309         9.4508 
  44   0.0000       0.384540        10.4639 
  45   0.0000       0.392750        10.6873 
  46   0.0000       0.401538        10.9264 
  47   0.0000       0.406279        11.0554 
  48   0.0000       0.420918        11.4538 
  49   0.0000       0.434092        11.8122 
  50   0.0000       0.458480        12.4759 
  51   0.0000       0.478090        13.0095 
  52   0.0000       0.485083        13.1998 
  53   0.0000       0.505361        13.7516 
  54   0.0000       0.541743        14.7416 
  55   0.0000       0.559831        15.2338 
  56   0.0000       0.567948        15.4546 
  57   0.0000       0.589824        16.0499 
  58   0.0000       0.593092        16.1389 
  59   0.0000       0.598860        16.2958 
  60   0.0000       0.600801        16.3486 
  61   0.0000       0.610727        16.6187 
  62   0.0000       0.622010        16.9257 
  63   0.0000       0.627746        17.0818 
  64   0.0000       0.635448        17.2914 
  65   0.0000       0.640786        17.4367 
  66   0.0000       0.652933        17.7672 
  67   0.0000       0.667193        18.1552 
  68   0.0000       0.668406        18.1882 
  69   0.0000       0.683279        18.5930 
  70   0.0000       0.686785        18.6884 
  71   0.0000       0.699179        19.0256 
  72   0.0000       0.701572        19.0907 
  73   0.0000       0.706124        19.2146 
  74   0.0000       0.719141        19.5688 
  75   0.0000       0.770289        20.9606 
  76   0.0000       0.794730        21.6257 
  77   0.0000       0.798087        21.7170 
  78   0.0000       0.832368        22.6499 
  79   0.0000       0.841698        22.9038 
  80   0.0000       0.856990        23.3199 
  81   0.0000       0.879184        23.9238 
  82   0.0000       0.904156        24.6033 
  83   0.0000       0.915814        24.9206 
  84   0.0000       0.930600        25.3229 
  85   0.0000       0.971326        26.4311 
  86   0.0000       0.979979        26.6666 
  87   0.0000       0.997829        27.1523 
  88   0.0000       1.030693        28.0466 
  89   0.0000       1.039767        28.2935 
  90   0.0000       1.060350        28.8536 
  91   0.0000       1.087700        29.5978 
  92   0.0000       1.115180        30.3456 
  93   0.0000       1.118125        30.4257 
  94   0.0000       1.126004        30.6401 
  95   0.0000       1.138101        30.9693 
  96   0.0000       1.182113        32.1669 
  97   0.0000       1.196478        32.5578 
  98   0.0000       1.211108        32.9559 
  99   0.0000       1.218742        33.1636 
 100   0.0000       1.231129        33.5007 
 101   0.0000       1.248547        33.9747 
 102   0.0000       1.259500        34.2727 
 103   0.0000       1.271755        34.6062 
 104   0.0000       1.288186        35.0533 
 105   0.0000       1.299507        35.3614 
 106   0.0000       1.315620        35.7998 
 107   0.0000       1.323631        36.0178 
 108   0.0000       1.332787        36.2670 
 109   0.0000       1.345291        36.6072 
 110   0.0000       1.359879        37.0042 
 111   0.0000       1.375157        37.4199 
 112   0.0000       1.386303        37.7232 
 113   0.0000       1.388631        37.7866 
 114   0.0000       1.402769        38.1713 
 115   0.0000       1.405848        38.2551 
 116   0.0000       1.416832        38.5540 
 117   0.0000       1.449968        39.4556 
 118   0.0000       1.461555        39.7709 
 119   0.0000       1.476883        40.1880 
 120   0.0000       1.484103        40.3845 
 121   0.0000       1.493367        40.6366 
 122   0.0000       1.502833        40.8942 
 123   0.0000       1.524918        41.4951 
 124   0.0000       1.544876        42.0382 
 125   0.0000       1.562952        42.5301 
 126   0.0000       1.569087        42.6970 
 127   0.0000       1.572897        42.8007 
 128   0.0000       1.591366        43.3033 
 129   0.0000       1.609410        43.7943 
 130   0.0000       1.614460        43.9317 
 131   0.0000       1.619797        44.0769 
 132   0.0000       1.640616        44.6434 
 133   0.0000       1.659645        45.1612 
 134   0.0000       1.681780        45.7636 
 135   0.0000       1.693316        46.0775 
 136   0.0000       1.705735        46.4154 
 137   0.0000       1.711511        46.5726 
 138   0.0000       1.722345        46.8674 
 139   0.0000       1.761974        47.9458 
 140   0.0000       1.770976        48.1907 
 141   0.0000       1.779466        48.4217 
 142   0.0000       1.810421        49.2641 
 143   0.0000       1.851332        50.3773 
 144   0.0000       1.859858        50.6093 
 145   0.0000       1.877786        51.0972 
 146   0.0000       1.893897        51.5356 
 147   0.0000       1.928368        52.4736 
 148   0.0000       1.982174        53.9377 
 149   0.0000       2.030535        55.2537 
 150   0.0000       2.060415        56.0667 
 151   0.0000       2.072351        56.3915 
 152   0.0000       2.136502        58.1372 
 153   0.0000       2.183521        59.4166 
 154   0.0000       2.320414        63.1417 
 155   0.0000       2.366116        64.3853 
 156   0.0000       2.422375        65.9162 
 157   0.0000       2.454417        66.7881 
 158   0.0000       2.603606        70.8477 
 159   0.0000       2.625840        71.4527 
 160   0.0000       2.637001        71.7565 
 161   0.0000       2.682847        73.0040 
 162   0.0000       2.706895        73.6584 
 163   0.0000       2.726793        74.1998 
 164   0.0000       2.738398        74.5156 
 165   0.0000       2.782004        75.7022 
 166   0.0000       2.822361        76.8003 
 167   0.0000       2.826914        76.9242 
 168   0.0000       2.832956        77.0886 
 169   0.0000       2.834688        77.1358 
 170   0.0000       2.862268        77.8863 
 171   0.0000       2.869932        78.0948 
 172   0.0000       2.874307        78.2139 
 173   0.0000       2.894007        78.7499 
 174   0.0000       2.902812        78.9895 
 175   0.0000       2.928687        79.6936 
 176   0.0000       2.936419        79.9040 
 177   0.0000       2.952816        80.3502 
 178   0.0000       2.972816        80.8944 
 179   0.0000       2.984177        81.2036 
 180   0.0000       2.993765        81.4645 
 181   0.0000       3.000669        81.6524 
 182   0.0000       3.017699        82.1158 
 183   0.0000       3.025978        82.3411 
 184   0.0000       3.027911        82.3936 
 185   0.0000       3.043312        82.8127 
 186   0.0000       3.060671        83.2851 
 187   0.0000       3.067013        83.4577 
 188   0.0000       3.111122        84.6579 
 189   0.0000       3.144108        85.5555 
 190   0.0000       3.174354        86.3786 
 191   0.0000       3.199768        87.0701 
 192   0.0000       3.221831        87.6705 
 193   0.0000       3.235834        88.0515 
 194   0.0000       3.249961        88.4359 
 195   0.0000       3.264756        88.8385 
 196   0.0000       3.301595        89.8410 
 197   0.0000       3.313175        90.1561 
 198   0.0000       3.325642        90.4953 
 199   0.0000       3.338522        90.8458 
 200   0.0000       3.364512        91.5530 
 201   0.0000       3.382226        92.0351 
 202   0.0000       3.393031        92.3291 
 203   0.0000       3.416666        92.9722 
 204   0.0000       3.436762        93.5190 
 205   0.0000       3.449138        93.8558 
 206   0.0000       3.457025        94.0704 
 207   0.0000       3.459756        94.1447 
 208   0.0000       3.464863        94.2837 
 209   0.0000       3.479959        94.6945 
 210   0.0000       3.485524        94.8459 
 211   0.0000       3.490832        94.9904 
 212   0.0000       3.492173        95.0269 
 213   0.0000       3.502850        95.3174 
 214   0.0000       3.511158        95.5435 
 215   0.0000       3.526680        95.9658 
 216   0.0000       3.533200        96.1433 
 217   0.0000       3.552486        96.6681 
 218   0.0000       3.567325        97.0719 
 219   0.0000       3.583755        97.5189 
 220   0.0000       3.591911        97.7409 
 221   0.0000       3.602445        98.0275 
 222   0.0000       3.609582        98.2217 
 223   0.0000       3.654740        99.4505 
 224   0.0000       3.678637       100.1008 
 225   0.0000       3.687089       100.3308 
 226   0.0000       3.695467       100.5588 
 227   0.0000       3.703979       100.7904 
 228   0.0000       3.723716       101.3275 
 229   0.0000       3.744382       101.8898 
 230   0.0000       3.762656       102.3871 
 231   0.0000       3.787166       103.0540 
 232   0.0000       3.799744       103.3963 
 233   0.0000       3.819192       103.9255 
 234   0.0000       3.843407       104.5844 
 235   0.0000       3.846242       104.6616 
 236   0.0000       3.865185       105.1770 
 237   0.0000       3.870514       105.3221 
 238   0.0000       3.911260       106.4308 
 239   0.0000       3.935203       107.0823 
 240   0.0000       3.945787       107.3703 
 241   0.0000       3.954049       107.5951 
 242   0.0000       3.960630       107.7742 
 243   0.0000       3.989703       108.5653 
 244   0.0000       4.000839       108.8684 
 245   0.0000       4.008032       109.0641 
 246   0.0000       4.024466       109.5113 
 247   0.0000       4.035448       109.8101 
 248   0.0000       4.038570       109.8951 
 249   0.0000       4.061370       110.5155 
 250   0.0000       4.063728       110.5797 
 251   0.0000       4.086459       111.1982 
 252   0.0000       4.098217       111.5181 
 253   0.0000       4.103300       111.6565 
 254   0.0000       4.109043       111.8128 
 255   0.0000       4.139341       112.6372 
 256   0.0000       4.149374       112.9102 
 257   0.0000       4.169117       113.4474 
 258   0.0000       4.184764       113.8732 
 259   0.0000       4.194657       114.1424 
 260   0.0000       4.217192       114.7556 
 261   0.0000       4.232161       115.1629 
 262   0.0000       4.241675       115.4218 
 263   0.0000       4.261176       115.9525 
 264   0.0000       4.272069       116.2489 
 265   0.0000       4.288604       116.6989 
 266   0.0000       4.318649       117.5164 
 267   0.0000       4.327444       117.7557 
 268   0.0000       4.328676       117.7893 
 269   0.0000       4.343440       118.1910 
 270   0.0000       4.348630       118.3322 
 271   0.0000       4.354973       118.5049 
 272   0.0000       4.370953       118.9397 
 273   0.0000       4.374036       119.0236 
 274   0.0000       4.391037       119.4862 
 275   0.0000       4.409662       119.9930 
 276   0.0000       4.428075       120.4940 
 277   0.0000       4.445027       120.9553 
 278   0.0000       4.461319       121.3987 
 279   0.0000       4.474363       121.7536 
 280   0.0000       4.486774       122.0913 
 281   0.0000       4.507685       122.6603 
 282   0.0000       4.514048       122.8335 
 283   0.0000       4.529727       123.2601 
 284   0.0000       4.536981       123.4575 
 285   0.0000       4.556650       123.9927 
 286   0.0000       4.570393       124.3667 
 287   0.0000       4.588580       124.8616 
 288   0.0000       4.603593       125.2701 
 289   0.0000       4.609837       125.4400 
 290   0.0000       4.624623       125.8424 
 291   0.0000       4.642680       126.3338 
 292   0.0000       4.648177       126.4833 
 293   0.0000       4.649922       126.5308 
 294   0.0000       4.662584       126.8754 
 295   0.0000       4.681277       127.3840 
 296   0.0000       4.723880       128.5433 
 297   0.0000       4.725404       128.5848 
 298   0.0000       4.749384       129.2373 
 299   0.0000       4.769521       129.7853 
 300   0.0000       4.807670       130.8234 
 301   0.0000       4.841005       131.7305 
 302   0.0000       4.849333       131.9571 
 303   0.0000       4.869875       132.5160 
 304   0.0000       4.883274       132.8807 
 305   0.0000       4.919647       133.8704 
 306   0.0000       4.990741       135.8050 
 307   0.0000       4.994753       135.9141 
 308   0.0000       5.035692       137.0281 
 309   0.0000       5.069422       137.9460 
 310   0.0000       5.088218       138.4575 
 311   0.0000       5.110751       139.0706 
 312   0.0000       5.115784       139.2076 
 313   0.0000       5.125003       139.4584 
 314   0.0000       5.152340       140.2023 
 315   0.0000       5.158941       140.3819 
 316   0.0000       5.191175       141.2590 
 317   0.0000       5.209263       141.7513 
 318   0.0000       5.250057       142.8613 
 319   0.0000       5.275453       143.5524 
 320   0.0000       5.295400       144.0952 
 321   0.0000       5.326992       144.9548 
 322   0.0000       5.339850       145.3047 
 323   0.0000       5.362278       145.9150 
 324   0.0000       5.366368       146.0263 
 325   0.0000       5.382157       146.4559 
 326   0.0000       5.397528       146.8742 
 327   0.0000       5.407299       147.1401 
 328   0.0000       5.429194       147.7359 
 329   0.0000       5.432342       147.8216 
 330   0.0000       5.460792       148.5957 
 331   0.0000       5.481117       149.1488 
 332   0.0000       5.554483       151.1452 
 333   0.0000       5.558208       151.2465 
 334   0.0000       5.623943       153.0353 
 335   0.0000       5.637819       153.4128 
 336   0.0000       5.655530       153.8948 
 337   0.0000       5.665481       154.1656 
 338   0.0000       5.702781       155.1806 
 339   0.0000       5.754689       156.5930 
 340   0.0000       5.768518       156.9694 
 341   0.0000       5.809621       158.0878 
 342   0.0000       5.813901       158.2043 
 343   0.0000       5.816857       158.2847 
 344   0.0000       5.834416       158.7625 
 345   0.0000       5.862811       159.5352 
 346   0.0000       5.867401       159.6601 
 347   0.0000       5.902747       160.6219 
 348   0.0000       5.908160       160.7692 
 349   0.0000       5.967817       162.3925 
 350   0.0000       5.974857       162.5841 
 351   0.0000       6.036613       164.2646 
 352   0.0000       6.105839       166.1483 
 353   0.0000       6.113783       166.3645 
 354   0.0000       6.181197       168.1989 
 355   0.0000       6.213618       169.0811 
 356   0.0000       6.340934       172.5456 
 357   0.0000       6.398630       174.1156 
 358   0.0000       6.406640       174.3335 
 359   0.0000       6.441584       175.2844 
 360   0.0000       6.476964       176.2472 
 361   0.0000       6.492027       176.6570 
 362   0.0000       6.694632       182.1702 
 363   0.0000       7.012822       190.8286 
 364   0.0000       7.173941       195.2129 
 365   0.0000       7.175779       195.2629 
 366   0.0000       7.301548       198.6852 
 367   0.0000       7.444782       202.5828 
 368   0.0000       7.537892       205.1165 
 369   0.0000       7.784228       211.8196 
 370   0.0000       7.977791       217.0867 
 371   0.0000      11.940707       324.9232 
 372   0.0000      12.771367       347.5266 
 373   0.0000      13.122458       357.0802 
 374   0.0000      13.247912       360.4940 
 375   0.0000      13.476249       366.7074 
 376   0.0000      13.576202       369.4272 
 377   0.0000      13.634552       371.0150 

                    ********************************
                    * MULLIKEN POPULATION ANALYSIS *
                    ********************************

-----------------------
MULLIKEN ATOMIC CHARGES
-----------------------
   0 C :    0.111494
   1 C :   -0.216751
   2 C :   -0.177037
   3 C :   -0.198744
   4 C :   -0.189395
   5 C :   -0.191653
   6 O :   -0.439187
   7 H :    0.108095
   8 H :    0.089983
   9 H :    0.107579
  10 H :    0.082264
  11 H :    0.099869
  12 H :    0.106130
  13 H :    0.092377
  14 H :    0.097116
  15 H :    0.108736
  16 H :    0.089288
  17 H :    0.101242
  18 H :    0.218594
Sum of atomic charges:   -0.0000000

--------------------------------
MULLIKEN REDUCED ORBITAL CHARGES
--------------------------------
  0 C s       :     3.134467  s :     3.134467
      pz      :     0.722108  p :     2.554594
      px      :     0.919343
      py      :     0.913143
      dz2     :     0.041359  d :     0.186132
      dxz     :     0.053659
      dyz     :     0.031490
      dx2y2   :     0.028538
      dxy     :     0.031085
      f0      :     0.002994  f :     0.013314
      f+1     :     0.002474
      f-1     :     0.002058
      f+2     :     0.001118
      f-2     :     0.001700
      f+3     :     0.001528
      f-3     :     0.001442
  1 C s       :     3.217920  s :     3.217920
      pz      :     0.998251  p :     2.885022
      px      :     0.932761
      py      :     0.954010
      dz2     :     0.034154  d :     0.107220
      dxz     :     0.015790
      dyz     :     0.006296
      dx2y2   :     0.018190
      dxy     :     0.032789
      f0      :     0.000998  f :     0.006588
      f+1     :     0.001273
      f-1     :     0.000448
      f+2     :     0.000645
      f-2     :     0.000686
      f+3     :     0.001426
      f-3     :     0.001112
  2 C s       :     3.204845  s :     3.204845
      pz      :     0.978890  p :     2.851884
      px      :     0.910970
      py      :     0.962023
      dz2     :     0.032804  d :     0.113657
      dxz     :     0.020991
      dyz     :     0.009533
      dx2y2   :     0.020479
      dxy     :     0.029850
      f0      :     0.001031  f :     0.006651
      f+1     :     0.001246
      f-1     :     0.000404
      f+2     :     0.000688
      f-2     :     0.000796
      f+3     :     0.001429
      f-3     :     0.001057
  3 C s       :     3.217815  s :     3.217815
      pz      :     1.008326  p :     2.859874
      px      :     0.967495
      py      :     0.884053
      dz2     :     0.022416  d :     0.114385
      dxz     :     0.029265
      dyz     :     0.014236
      dx2y2   :     0.024610
      dxy     :     0.023858
      f0      :     0.000921  f :     0.006671
      f+1     :     0.001094
      f-1     :     0.000688
      f+2     :     0.000298
      f-2     :     0.000811
      f+3     :     0.001535
      f-3     :     0.001324
  4 C s       :     3.210861  s :     3.210861
      pz      :     0.987060  p :     2.858478
      px      :     0.919378
      py      :     0.952040
      dz2     :     0.032177  d :     0.113423
      dxz     :     0.020760
      dyz     :     0.009725
      dx2y2   :     0.019439
      dxy     :     0.031323
      f0      :     0.001030  f :     0.006633
      f+1     :     0.001218
      f-1     :     0.000419
      f+2     :     0.000708
      f-2     :     0.000780
      f+3     :     0.001425
      f-3     :     0.001053
  5 C s       :     3.207356  s :     3.207356
      pz      :     0.982088  p :     2.870801
      px      :     0.930406
      py      :     0.958307
      dz2     :     0.033601  d :     0.106866
      dxz     :     0.015883
      dyz     :     0.006453
      dx2y2   :     0.019092
      dxy     :     0.031837
      f0      :     0.001018  f :     0.006630
      f+1     :     0.001281
      f-1     :     0.000419
      f+2     :     0.000635
      f-2     :     0.000736
      f+3     :     0.001433
      f-3     :     0.001108
  6 O s       :     3.769413  s :     3.769413
      pz      :     1.474097  p :     4.641476
      px      :     1.627888
      py      :     1.539491
      dz2     :     0.009850  d :     0.026873
      dxz     :     0.004575
      dyz     :     0.003772
      dx2y2   :     0.002142
      dxy     :     0.006534
      f0      :     0.000241  f :     0.001424
      f+1     :     0.000467
      f-1     :     0.000132
      f+2     :     0.000093
      f-2     :     0.000142
      f+3     :     0.000279
      f-3     :     0.000071
  7 H s       :     0.860847  s :     0.860847
      pz      :     0.007403  p :     0.028621
      px      :     0.009506
      py      :     0.011712
      dz2     :     0.000288  d :     0.002437
      dxz     :     0.000237
      dyz     :     0.000414
      dx2y2   :     0.000868
      dxy     :     0.000628
  8 H s       :     0.878881  s :     0.878881
      pz      :     0.011965  p :     0.028672
      px      :     0.008843
      py      :     0.007864
      dz2     :     0.000799  d :     0.002463
      dxz     :     0.000817
      dyz     :     0.000672
      dx2y2   :     0.000036
      dxy     :     0.000140
  9 H s       :     0.861411  s :     0.861411
      pz      :     0.007153  p :     0.028573
      px      :     0.012291
      py      :     0.009129
      dz2     :     0.000537  d :     0.002437
      dxz     :     0.000492
      dyz     :     0.000280
      dx2y2   :     0.000372
      dxy     :     0.000756
 10 H s       :     0.887570  s :     0.887570
      pz      :     0.009502  p :     0.027749
      px      :     0.009452
      py      :     0.008795
      dz2     :     0.000603  d :     0.002417
      dxz     :     0.000720
      dyz     :     0.000768
      dx2y2   :     0.000081
      dxy     :     0.000244
 11 H s       :     0.869130  s :     0.869130
      pz      :     0.011993  p :     0.028538
      px      :     0.008707
      py      :     0.007839
      dz2     :     0.000802  d :     0.002463
      dxz     :     0.000807
      dyz     :     0.000676
      dx2y2   :     0.000036
      dxy     :     0.000142
 12 H s       :     0.862650  s :     0.862650
      pz      :     0.007375  p :     0.028776
      px      :     0.009717
      py      :     0.011683
      dz2     :     0.000287  d :     0.002444
      dxz     :     0.000257
      dyz     :     0.000395
      dx2y2   :     0.000902
      dxy     :     0.000603
 13 H s       :     0.876626  s :     0.876626
      pz      :     0.011541  p :     0.028533
      px      :     0.008496
      py      :     0.008497
      dz2     :     0.000781  d :     0.002464
      dxz     :     0.000820
      dyz     :     0.000690
      dx2y2   :     0.000036
      dxy     :     0.000137
 14 H s       :     0.871680  s :     0.871680
      pz      :     0.007577  p :     0.028773
      px      :     0.008935
      py      :     0.012261
      dz2     :     0.000294  d :     0.002431
      dxz     :     0.000275
      dyz     :     0.000379
      dx2y2   :     0.000914
      dxy     :     0.000569
 15 H s       :     0.859317  s :     0.859317
      pz      :     0.007286  p :     0.029432
      px      :     0.009810
      py      :     0.012336
      dz2     :     0.000310  d :     0.002515
      dxz     :     0.000248
      dyz     :     0.000398
      dx2y2   :     0.000932
      dxy     :     0.000628
 16 H s       :     0.879701  s :     0.879701
      pz      :     0.012067  p :     0.028579
      px      :     0.008302
      py      :     0.008210
      dz2     :     0.000768  d :     0.002431
      dxz     :     0.000816
      dyz     :     0.000674
      dx2y2   :     0.000033
      dxy     :     0.000139
 17 H s       :     0.866504  s :     0.866504
      pz      :     0.009664  p :     0.029710
      px      :     0.010197
      py      :     0.009848
      dz2     :     0.000575  d :     0.002544
      dxz     :     0.000603
      dyz     :     0.000372
      dx2y2   :     0.000272
      dxy     :     0.000722
 18 H s       :     0.696470  s :     0.696470
      pz      :     0.022074  p :     0.077718
      px      :     0.027994
      py      :     0.027650
      dz2     :     0.000665  d :     0.007218
      dxz     :     0.000712
      dyz     :     0.001405
      dx2y2   :     0.002835
      dxy     :     0.001602


                     *******************************
                     * LOEWDIN POPULATION ANALYSIS *
                     *******************************

----------------------
LOEWDIN ATOMIC CHARGES
----------------------
   0 C :   -0.109845
   1 C :    0.051737
   2 C :    0.059307
   3 C :    0.056888
   4 C :    0.060940
   5 C :    0.059082
   6 O :    0.313859
   7 H :   -0.028398
   8 H :   -0.026401
   9 H :   -0.027414
  10 H :   -0.028878
  11 H :   -0.023803
  12 H :   -0.028302
  13 H :   -0.022116
  14 H :   -0.030369
  15 H :   -0.022263
  16 H :   -0.024216
  17 H :   -0.034601
  18 H :   -0.195207

-------------------------------
LOEWDIN REDUCED ORBITAL CHARGES
-------------------------------
  0 C s       :     2.682770  s :     2.682770
      pz      :     0.794973  p :     2.684155
      px      :     0.930292
      py      :     0.958890
      dz2     :     0.158028  d :     0.658298
      dxz     :     0.172263
      dyz     :     0.102287
      dx2y2   :     0.103414
      dxy     :     0.122306
      f0      :     0.019200  f :     0.084622
      f+1     :     0.013532
      f-1     :     0.014311
      f+2     :     0.009966
      f-2     :     0.011145
      f+3     :     0.006397
      f-3     :     0.010071
  1 C s       :     2.664340  s :     2.664340
      pz      :     0.956723  p :     2.829685
      px      :     0.936500
      py      :     0.936462
      dz2     :     0.116043  d :     0.415116
      dxz     :     0.070993
      dyz     :     0.030798
      dx2y2   :     0.072485
      dxy     :     0.124798
      f0      :     0.004959  f :     0.039122
      f+1     :     0.006144
      f-1     :     0.003820
      f+2     :     0.005000
      f-2     :     0.005548
      f+3     :     0.006515
      f-3     :     0.007135
  2 C s       :     2.658914  s :     2.658914
      pz      :     0.958568  p :     2.821931
      px      :     0.925224
      py      :     0.938140
      dz2     :     0.111699  d :     0.420109
      dxz     :     0.080520
      dyz     :     0.037125
      dx2y2   :     0.077229
      dxy     :     0.113536
      f0      :     0.005339  f :     0.039738
      f+1     :     0.006134
      f-1     :     0.003656
      f+2     :     0.005416
      f-2     :     0.006134
      f+3     :     0.006405
      f-3     :     0.006653
  3 C s       :     2.660608  s :     2.660608
      pz      :     0.968624  p :     2.820092
      px      :     0.938246
      py      :     0.913222
      dz2     :     0.077288  d :     0.422702
      dxz     :     0.098225
      dyz     :     0.051563
      dx2y2   :     0.098618
      dxy     :     0.097008
      f0      :     0.004728  f :     0.039710
      f+1     :     0.003982
      f-1     :     0.004939
      f+2     :     0.004869
      f-2     :     0.005731
      f+3     :     0.006374
      f-3     :     0.009087
  4 C s       :     2.658632  s :     2.658632
      pz      :     0.960756  p :     2.821865
      px      :     0.926657
      py      :     0.934452
      dz2     :     0.111943  d :     0.418872
      dxz     :     0.078346
      dyz     :     0.038037
      dx2y2   :     0.074213
      dxy     :     0.116333
      f0      :     0.005260  f :     0.039692
      f+1     :     0.006118
      f-1     :     0.003744
      f+2     :     0.005537
      f-2     :     0.005986
      f+3     :     0.006294
      f-3     :     0.006752
  5 C s       :     2.661431  s :     2.661431
      pz      :     0.954370  p :     2.825712
      px      :     0.934726
      py      :     0.936617
      dz2     :     0.115251  d :     0.414274
      dxz     :     0.073392
      dyz     :     0.030164
      dx2y2   :     0.074063
      dxy     :     0.121405
      f0      :     0.005073  f :     0.039501
      f+1     :     0.006213
      f-1     :     0.003735
      f+2     :     0.004937
      f-2     :     0.005698
      f+3     :     0.006787
      f-3     :     0.007059
  6 O s       :     3.212118  s :     3.212118
      pz      :     1.399994  p :     4.403242
      px      :     1.509074
      py      :     1.494174
      dz2     :     0.021893  d :     0.066618
      dxz     :     0.015736
      dyz     :     0.010702
      dx2y2   :     0.003376
      dxy     :     0.014910
      f0      :     0.001005  f :     0.004164
      f+1     :     0.000733
      f-1     :     0.000778
      f+2     :     0.000336
      f-2     :     0.000512
      f+3     :     0.000513
      f-3     :     0.000287
  7 H s       :     0.847052  s :     0.847052
      pz      :     0.040953  p :     0.153358
      px      :     0.049158
      py      :     0.063246
      dz2     :     0.003221  d :     0.027988
      dxz     :     0.003192
      dyz     :     0.005702
      dx2y2   :     0.008441
      dxy     :     0.007431
  8 H s       :     0.844278  s :     0.844278
      pz      :     0.072147  p :     0.153876
      px      :     0.043139
      py      :     0.038591
      dz2     :     0.009568  d :     0.028246
      dxz     :     0.008759
      dyz     :     0.008151
      dx2y2   :     0.000454
      dxy     :     0.001314
  9 H s       :     0.846685  s :     0.846685
      pz      :     0.051791  p :     0.152787
      px      :     0.061028
      py      :     0.039968
      dz2     :     0.007295  d :     0.027942
      dxz     :     0.006935
      dyz     :     0.002883
      dx2y2   :     0.004538
      dxy     :     0.006292
 10 H s       :     0.849287  s :     0.849287
      pz      :     0.069509  p :     0.151661
      px      :     0.042969
      py      :     0.039183
      dz2     :     0.008972  d :     0.027930
      dxz     :     0.008864
      dyz     :     0.007461
      dx2y2   :     0.000843
      dxy     :     0.001790
 11 H s       :     0.841817  s :     0.841817
      pz      :     0.072408  p :     0.153683
      px      :     0.042949
      py      :     0.038326
      dz2     :     0.009650  d :     0.028304
      dxz     :     0.008761
      dyz     :     0.008106
      dx2y2   :     0.000471
      dxy     :     0.001317
 12 H s       :     0.847017  s :     0.847017
      pz      :     0.041015  p :     0.153286
      px      :     0.050228
      py      :     0.062044
      dz2     :     0.003182  d :     0.027998
      dxz     :     0.003498
      dyz     :     0.005433
      dx2y2   :     0.008563
      dxy     :     0.007322
 13 H s       :     0.842427  s :     0.842427
      pz      :     0.071439  p :     0.151574
      px      :     0.041461
      py      :     0.038673
      dz2     :     0.009489  d :     0.028115
      dxz     :     0.008784
      dyz     :     0.008140
      dx2y2   :     0.000457
      dxy     :     0.001246
 14 H s       :     0.849534  s :     0.849534
      pz      :     0.040086  p :     0.152881
      px      :     0.050482
      py      :     0.062312
      dz2     :     0.003164  d :     0.027954
      dxz     :     0.003613
      dyz     :     0.005230
      dx2y2   :     0.008754
      dxy     :     0.007192
 15 H s       :     0.841833  s :     0.841833
      pz      :     0.039786  p :     0.152168
      px      :     0.049973
      py      :     0.062409
      dz2     :     0.003351  d :     0.028263
      dxz     :     0.003433
      dyz     :     0.005395
      dx2y2   :     0.008663
      dxy     :     0.007421
 16 H s       :     0.844602  s :     0.844602
      pz      :     0.071150  p :     0.151484
      px      :     0.041515
      py      :     0.038820
      dz2     :     0.009475  d :     0.028131
      dxz     :     0.008785
      dyz     :     0.008139
      dx2y2   :     0.000456
      dxy     :     0.001276
 17 H s       :     0.859815  s :     0.859815
      pz      :     0.050212  p :     0.147415
      px      :     0.056933
      py      :     0.040269
      dz2     :     0.006341  d :     0.027372
      dxz     :     0.007804
      dyz     :     0.003805
      dx2y2   :     0.003453
      dxy     :     0.005969
 18 H s       :     0.728350  s :     0.728350
      pz      :     0.082972  p :     0.365732
      px      :     0.124463
      py      :     0.158297
      dz2     :     0.010372  d :     0.101125
      dxz     :     0.010235
      dyz     :     0.019600
      dx2y2   :     0.035152
      dxy     :     0.025766


                      *****************************
                      * MAYER POPULATION ANALYSIS *
                      *****************************

  NA   - Mulliken gross atomic population
  ZA   - Total nuclear charge
  QA   - Mulliken gross atomic charge
  VA   - Mayer's total valence
  BVA  - Mayer's bonded valence
  FA   - Mayer's free valence

  ATOM       NA         ZA         QA         VA         BVA        FA
  0 C      5.8885     6.0000     0.1115     3.8930     3.8930     0.0000
  1 C      6.2168     6.0000    -0.2168     3.8578     3.8578     0.0000
  2 C      6.1770     6.0000    -0.1770     3.8456     3.8456     0.0000
  3 C      6.1987     6.0000    -0.1987     3.8791     3.8791    -0.0000
  4 C      6.1894     6.0000    -0.1894     3.8628     3.8628    -0.0000
  5 C      6.1917     6.0000    -0.1917     3.8537     3.8537    -0.0000
  6 O      8.4392     8.0000    -0.4392     1.9754     1.9754    -0.0000
  7 H      0.8919     1.0000     0.1081     0.9779     0.9779    -0.0000
  8 H      0.9100     1.0000     0.0900     0.9957     0.9957    -0.0000
  9 H      0.8924     1.0000     0.1076     0.9793     0.9793    -0.0000
 10 H      0.9177     1.0000     0.0823     0.9839     0.9839     0.0000
 11 H      0.9001     1.0000     0.0999     0.9912     0.9912    -0.0000
 12 H      0.8939     1.0000     0.1061     0.9784     0.9784     0.0000
 13 H      0.9076     1.0000     0.0924     0.9881     0.9881     0.0000
 14 H      0.9029     1.0000     0.0971     0.9862     0.9862    -0.0000
 15 H      0.8913     1.0000     0.1087     0.9903     0.9903    -0.0000
 16 H      0.9107     1.0000     0.0893     0.9863     0.9863     0.0000
 17 H      0.8988     1.0000     0.1012     0.9829     0.9829     0.0000
 18 H      0.7814     1.0000     0.2186     1.0210     1.0210    -0.0000

  Mayer bond orders larger than 0.1
B(  0-C ,  1-C ) :   0.9549 B(  0-C ,  5-C ) :   0.9470 B(  0-C ,  6-O ) :   0.9705 
B(  0-C , 17-H ) :   1.0092 B(  1-C ,  2-C ) :   0.9421 B(  1-C , 13-H ) :   0.9808 
B(  1-C , 14-H ) :   0.9938 B(  2-C ,  3-C ) :   0.9521 B(  2-C ,  7-H ) :   0.9954 
B(  2-C ,  8-H ) :   0.9787 B(  3-C ,  4-C ) :   0.9505 B(  3-C ,  9-H ) :   0.9948 
B(  3-C , 10-H ) :   0.9858 B(  4-C ,  5-C ) :   0.9510 B(  4-C , 11-H ) :   0.9787 
B(  4-C , 12-H ) :   0.9945 B(  5-C , 15-H ) :   0.9895 B(  5-C , 16-H ) :   0.9880 
B(  6-O , 18-H ) :   0.9923 

-------
TIMINGS
-------

Total SCF time: 0 days 0 hours 0 min 21 sec 

Total time                  ....      21.048 sec
Sum of individual times     ....      20.711 sec  ( 98.4%)

Fock matrix formation       ....      19.924 sec  ( 94.7%)
Diagonalization             ....       0.125 sec  (  0.6%)
Density matrix formation    ....       0.016 sec  (  0.1%)
Population analysis         ....       0.052 sec  (  0.2%)
Initial guess               ....       0.281 sec  (  1.3%)
Orbital Transformation      ....       0.000 sec  (  0.0%)
Orbital Orthonormalization  ....       0.000 sec  (  0.0%)
DIIS solution               ....       0.000 sec  (  0.0%)
SOSCF solution              ....       0.137 sec  (  0.7%)


           ************************************************************
           *        Program running with 8 parallel MPI-processes     *
           *              working on a common directory               *
           ************************************************************


------------------------------------------------------------------------------- 
                              ORCA-MATRIX DRIVEN CI                            
------------------------------------------------------------------------------- 


Wavefunction type
-----------------
Correlation treatment                      ...      CCSD     
Single excitations                         ... ON
Orbital optimization                       ... OFF
Calculation of Z vector                    ... OFF
Calculation of Brueckner orbitals          ... OFF
Perturbative triple excitations            ... ON
Calculation of F12 correction              ... OFF
Frozen core treatment                      ... chemical core (14 el)
Reference Wavefunction                     ... RHF
  Internal Orbitals:     7 ...   27 ( 21 MO's/ 42 electrons)
  Virtual  Orbitals:    28 ...  377 (350 MO's              )
Number of AO's                             ...    378
Number of electrons                        ...     56
Number of correlated electrons             ...     42

Algorithmic settings
--------------------
Integral transformation                    ... All integrals via the RI transformation
K(C) Formation                             ... RI-DLPNO
   PNO-Integral Storage                    ... ON DISK
   PNO occupation number cut-off           ... 1.000e-07
   Singles PNO occupation number cut-off   ... 3.000e-09
   PNO Mulliken prescreening cut-off       ... 1.000e-03
   Domain cut-off (Mulliken population)    ... 1.000e-03
   PNO Normalization                       ...    1
Maximum number of iterations               ...        50
Convergence tolerance (max. residuum)      ... 1.000e-05
Level shift for amplitude update           ... 2.000e-01
Maximum number of DIIS vectors             ...         7
DIIS turned on at iteration                ...         0
Damping before turning on DIIS             ...     0.500
Damping after turning on DIIS              ...     0.000
Pair specific amplitude update             ... OFF
Natural orbital iterations                 ... OFF
Perturbative natural orbital generation    ... OFF
Printlevel                                 ... 2

Singles Fock matrix elements calculated using PNOs.

Memory handling:
----------------
Maximum memory for working arrays          ...   8000 MB
Data storage in matrix containers          ... UNCOMPRESSED
Data type for integral storage             ... DOUBLE
In-Core Storage of quantities:
   Amplitudes+Sigma Vector      ... NO
   J+K operators                ... NO
   DIIS vectors                 ... NO
   3-external integrals         ... NO
   4-external integrals         ... NO

Localization treatment:
-----------------------
Localization option                        ...    6
Localization threshhold                    ... -1.0e+00
Using relative localization threshhold     ... 1.0e-08
Neglect threshold for strong pairs         ... 1.000e-05 Eh
Prescreening threshold for very weak pairs ... 1.000e-07 Eh

Initializing the integral package          ... done
Localizing the valence orbitals
------------------------------------------------------------------------------
                           ORCA ORBITAL LOCALIZATION
------------------------------------------------------------------------------

Input orbitals are from                  ... hydroxycyclohexane_ax.proc0.gbw
Output orbitals are to                   ... hydroxycyclohexane_ax.proc0.loc
Max. number of iterations                ... 128
Localizations seeded randomly            ... off
Convergence tolerance                    ... 1.000e-06
Using relative localization threshhold   ... 1.000e-08
Treshold for strong local MOs            ... 9.500e-01
Treshold for bond MOs                    ... 8.500e-01
Operator                                 ... 0
Orbital range for localization           ... 7 to 27
Localization criterion                   ... FOSTER-BOYS (AUGMENTED HESSIAN)
Doing the dipole integrals     ... o.k.
Initial value of the localization sum :   190.091459
ITERATION   0 : L=  251.6506852153 DL=  6.16e+01 (AVERGE_DL)=    0.5414232856 
ITERATION   1 : L=  261.0165883853 DL=  9.37e+00 (AVERGE_DL)=    0.2111860291 
ITERATION   2 : L=  261.2007223827 DL=  1.84e-01 (AVERGE_DL)=    0.0296112911 
ITERATION   3 : L=  261.2016090129 DL=  8.87e-04 (AVERGE_DL)=    0.0020547624 
ITERATION   4 : L=  261.2016666534 DL=  5.76e-05 (AVERGE_DL)=    0.0005239068 
ITERATION   5 : L=  261.2016727809 DL=  6.13e-06 (AVERGE_DL)=    0.0001708173 
ITERATION   6 : L=  261.2016733897 DL=  6.09e-07 (AVERGE_DL)=    0.0000538453 
LOCALIZATION SUM CONVERGED

------------------------------------------------------
AUGMENTED HESSIAN OPTIMIZATION OF FOSTER-BOYS ORBITALS
------------------------------------------------------

Spin operator:           0
Orbital window:          7 to 27
Number of iterations:    128
Gradient tolerance:      1.000e-06
Number of pairs:         210
Davidson threshold:      2000
Diagonalization method:  LAPACK
Iter:    0   L: 261.2016733897   Grad. norm: 1.203521e-03
   *** Likely close to a maximum now. ***
       Augmented Hessian eigenvalues:  1.34e-07 -1.36e+00 -3.52e+00 -5.16e+00 ... 
Iter:    1   L: 261.2016734569   Grad. norm: 6.469245e-08
LOCALIZATION HAS CONVERGED.

Eigenvalues of the Hessian:
  0 -1.358e+00
  1 -3.524e+00
  2 -5.164e+00
  3 -5.537e+00
  4 -7.509e+00
  5 -1.031e+01
  6 -1.778e+01
  7 -1.783e+01
  8 -1.784e+01
  9 -1.788e+01
    ...


------------------------------------------------------------------------------- 
                    LOCALIZED MOLECULAR ORBITAL COMPOSITIONS                   
------------------------------------------------------------------------------- 

The Mulliken populations for each LMO on each atom are computed
The LMO`s will be ordered according to atom index and type
  (A) Strongly localized MO`s have populations of >=0.950 on one atom
  (B) Two center bond orbitals have populations of >=0.850 on two atoms
  (C) Other MO`s are considered to be `delocalized`

FOUND  -   2 strongly local MO`s
       -  19 two center bond MO`s
       -   0 significantly delocalized MO`s

Rather strongly localized orbitals:
MO   8:   6O  -   0.974617
MO   7:   6O  -   0.988351
Bond-like localized orbitals:
MO  27:  18H  -   0.390417  and   6O  -   0.615833
MO  26:  17H  -   0.464355  and   0C  -   0.585494
MO  25:  16H  -   0.473209  and   5C  -   0.556091
MO  24:  15H  -   0.458799  and   5C  -   0.570356
MO  23:  14H  -   0.468018  and   1C  -   0.563355
MO  22:  13H  -   0.470340  and   1C  -   0.555269
MO  21:  12H  -   0.465341  and   4C  -   0.569587
MO  20:  11H  -   0.464264  and   4C  -   0.560154
MO  19:  10H  -   0.478011  and   3C  -   0.550862
MO  18:   9H  -   0.463928  and   3C  -   0.570248
MO  17:   8H  -   0.468813  and   2C  -   0.554366
MO  16:   7H  -   0.464151  and   2C  -   0.571547
MO  15:   6O  -   0.677081  and   0C  -   0.331955
MO  14:   5C  -   0.519103  and   4C  -   0.507830
MO  13:   5C  -   0.506447  and   0C  -   0.522701
MO  12:   4C  -   0.512870  and   3C  -   0.518846
MO  11:   3C  -   0.511207  and   2C  -   0.520146
MO  10:   2C  -   0.504586  and   1C  -   0.522755
MO   9:   1C  -   0.522371  and   0C  -   0.520599
Localized MO's were stored in: hydroxycyclohexane_ax.proc0.loc

Localizing the core orbitals
------------------------------------------------------------------------------
                           ORCA ORBITAL LOCALIZATION
------------------------------------------------------------------------------

Input orbitals are from                  ... hydroxycyclohexane_ax.proc0.loc
Output orbitals are to                   ... hydroxycyclohexane_ax.proc0.loc
Max. number of iterations                ... 128
Localizations seeded randomly            ... off
Convergence tolerance                    ... 1.000e-06
Using relative localization threshhold   ... 1.000e-08
Treshold for strong local MOs            ... 9.500e-01
Treshold for bond MOs                    ... 8.500e-01
Operator                                 ... 0
Orbital range for localization           ... 0 to 6
Localization criterion                   ... FOSTER-BOYS (AUGMENTED HESSIAN)
Doing the dipole integrals     ... o.k.
Initial value of the localization sum :    63.596134
ITERATION   0 : L=   63.5961372765 DL=  3.47e-06 (AVERGE_DL)=    0.0004066166 
ITERATION   1 : L=   63.5961372765 DL=  0.00e+00 (AVERGE_DL)=    0.0000000000 
LOCALIZATION SUM CONVERGED

------------------------------------------------------
AUGMENTED HESSIAN OPTIMIZATION OF FOSTER-BOYS ORBITALS
------------------------------------------------------

Spin operator:           0
Orbital window:          0 to 6
Number of iterations:    128
Gradient tolerance:      1.000e-06
Number of pairs:         21
Davidson threshold:      2000
Diagonalization method:  LAPACK
Iter:    0   L: 63.5961372765   Grad. norm: 1.815725e-06
   *** Likely close to a maximum now. ***
       Augmented Hessian eigenvalues:  8.02e-14 -2.96e+01 -3.35e+01 -3.37e+01 ... 
Iter:    1   L: 63.5961372765   Grad. norm: 6.335795e-20
LOCALIZATION HAS CONVERGED.

Eigenvalues of the Hessian:
  0 -2.959e+01
  1 -3.354e+01
  2 -3.374e+01
  3 -3.375e+01
  4 -3.376e+01
  5 -3.377e+01
  6 -3.379e+01
  7 -8.125e+01
  8 -8.663e+01
  9 -9.190e+01
    ...


------------------------------------------------------------------------------- 
                    LOCALIZED MOLECULAR ORBITAL COMPOSITIONS                   
------------------------------------------------------------------------------- 

The Mulliken populations for each LMO on each atom are computed
The LMO`s will be ordered according to atom index and type
  (A) Strongly localized MO`s have populations of >=0.950 on one atom
  (B) Two center bond orbitals have populations of >=0.850 on two atoms
  (C) Other MO`s are considered to be `delocalized`

FOUND  -   7 strongly local MO`s
       -   0 two center bond MO`s
       -   0 significantly delocalized MO`s

Rather strongly localized orbitals:
MO   6:   6O  -   0.999912
MO   5:   5C  -   1.001564
MO   4:   4C  -   1.001478
MO   3:   3C  -   1.001468
MO   2:   2C  -   1.001526
MO   1:   1C  -   1.001504
MO   0:   0C  -   1.001477
Localized MO's were stored in: hydroxycyclohexane_ax.proc0.loc

Warning: internal orbitals are localized - no re-canonicalization of internal orbitals

--------------------------
CLOSED-SHELL FOCK OPERATOR
--------------------------

RI-JK section for the Fock operator:
  RHF full Fock operator         ... done
  RHF frozen core Fock operator  ... done
Time needed for Fock operator              ...            2.554 sec
Reference energy                           ...   -309.171346401

--------------
DLPNO SETTINGS (2015 fully linear scaling implementation)
--------------

TCutMKN:           1.000e-03
TCutPAO:           1.000e-03
TCutPNO:           1.000e-07
TCutPNOSingles:    3.000e-09
TCutEN:            9.700e-01
TCutPAOExt:        1.000e-01
TCutPairs:         1.000e-05
TCutPre:           1.000e-07
TCutOSV:           1.000e-06
TCutDOij:          1.000e-05
TCutDO:            5.000e-03
TCutC:             1.000e-04
TCutCPAO:          1.000e-03
TCutCMO:           1.000e-03
TScaleDOMP2PreScr: 2.000e+00
TScaleMKNMP2PreScr:1.000e+01
TScalePNOMP2PreScr:1.000e+00
PAO overlap thresh 1.000e-08
Using PNOs for Singles Fock computation
Use new domains
Use fully linear algorithm
TCutTNO:           1.000e-09
TCutMP2Pairs:      1.000e-06
TCutDOStrong:      2.000e-03
TCutMKNStrong:     1.000e-02
TCutMKNWeak:       1.000e-01
TCutDOWeak:        4.000e-03
NTCutTNO:          1

--------------------------
Calculating differential overlap integrals ... ok
--------------------------
ELECTRON PAIR PRESCREENING
--------------------------

Dipole-based pair screening          .... used

   TCutDOij = 1.000000e-05
   TCutPre  = 1.000000e-07
   .... Finished loop over pairs
Total time spent in the prescreening                  ...     0.000 sec
sum of pair energies estimated for screened out pairs ...       0.000000000000 Eh
Thresholds for map construction and integral transformation for crude MP2:
   TCutMKN                    ...     1.0e-02
   TCutDO                     ...     1.0e-02
   TCutPairs                  ...     1.0e-05
   TCutPNO_CrudeMP2           ...     1.0e-07
   TCutPNOSingles_CrudeMP2    ...     3.0e-09
--------------------------------
LOCAL RI TRANSFORMATION (IAVPAO)
--------------------------------

Orbital window:       7 to 27
Number of PAOs:     378
Basis functions:    378 (142 shells)
Aux. functions:     927 (281 shells)

Processing maps (0.0 sec)
Average map sizes:
   Aux shells -> MOs              21.0
   Aux shells -> PAOs            378.0
   MOs        -> AO shells       140.3
   PAOs       -> AO shells       142.0

Calculating integrals (0.8 sec, 56.152 MB)
Sorting integrals (0.1 sec, 56.141 MB)
Total time for the integral transformation: 0.9 sec
--------------------------------
INITIAL GUESS AND PNO GENERATION
--------------------------------

PNO truncation parameters                   .... 
    PAOOverlapThresh   =        1.000e-08

    TCutPairs          =        1.000e-05
    TCutPNO            =        1.000e-07
    TCutPNOSingles     =        3.000e-09
    TCutMP2Pairs       =        1.000e-06
    TCutMKN            =        1.000e-02
    TCutDO             =        1.000e-02

Pair selection                          .... not used
Type of local MP2 treatment                 .... semi-local MP2
Strategy for PNO selection                  .... occupation number selection
Pair density normalization                  .... MP2 norm
[...]
   TCutDO    ...     2.0e-02
   TCutCMO   ...     1.0e-03
   TCutCPAO  ...     1.0e-03

--------------------------------
LOCAL RI TRANSFORMATION (IAVPAO)
--------------------------------

Orbital window:       7 to 27
Number of PAOs:     378
Basis functions:    378 (142 shells)
Aux. functions:     927 (281 shells)

Processing maps (0.0 sec)
Average map sizes:
   Aux shells -> MOs              21.0
   Aux shells -> PAOs            378.0
   MOs        -> AO shells       140.3
   PAOs       -> AO shells       142.0

Calculating integrals (0.8 sec, 56.152 MB)
Sorting integrals (0.1 sec, 56.141 MB)
Total time for the integral transformation: 0.9 sec
--------------------------------
INITIAL GUESS AND PNO GENERATION
--------------------------------

PNO truncation parameters                   .... 
    ScaleTCutPNO       =        1.000e-02
    PAOOverlapThresh   =        1.000e-08

    TCutPairs          =        1.000e-05
    TCutPNO            =        1.000e-07
    TCutPNOSingles     =        3.000e-09
    TCutMP2Pairs       =        1.000e-06
    TCutMKN            =        1.000e-03
    TCutDO             =        5.000e-03

Pair selection                          .... not used
Type of local MP2 treatment                 .... full local PMP2
Strategy for PNO selection                  .... occupation number selection
Pair density normalization                  .... MP2 norm
Spin component scaling                      .... not used

PASS-1: Formation of initial guess LMP2 amplitudes
Initial amplitudes guess done. Entering LMP2 iteration loop:
   Max. no of iterations          ...  50
   Energy convergence tolerance   ...    1.0e-07
   Residual convergence tolerance ...    5.0e-07
   Fock matrix cutoff             ...    1.0e-05 Eh
   DIIS convergence acceleration parameters:
        Max # vectors in DIIS     ... 7
        Start iteration of DIIS   ... 0
        Levelshift                ... 2.000e-01
        Damping factor 1          ... 5.000e-01
        Damping factor 2          ... 1.000e+00
   L-MP2 PNO cut-off              ...   1.0e-09
   L-MP2 PNO cut-off (core)       ...   1.0e-11
                           *** Turning on DIIS ***
LMP2-Iter=   0:  ELMP2= -1.263774470801  DE=   2.3e-02 RMAX=   4.7e-03
LMP2-Iter=   1:  ELMP2= -1.275335719223  DE=   1.2e-02 RMAX=   2.7e-03
LMP2-Iter=   2:  ELMP2= -1.277064555903  DE=   1.7e-03 RMAX=   5.1e-04
LMP2-Iter=   3:  ELMP2= -1.277244913287  DE=   1.8e-04 RMAX=   1.9e-04
LMP2-Iter=   4:  ELMP2= -1.277255515465  DE=   1.1e-05 RMAX=   3.3e-05
LMP2-Iter=   5:  ELMP2= -1.277254223248  DE=   1.3e-06 RMAX=   9.8e-06
LMP2-Iter=   6:  ELMP2= -1.277253958378  DE=   2.6e-07 RMAX=   1.3e-06
LMP2-Iter=   7:  ELMP2= -1.277253930280  DE=   2.8e-08 RMAX=   3.2e-07
LMP2-Iter=   8:  ELMP2= -1.277253936092  DE=   5.8e-09 RMAX=   3.4e-08 => CONVERGED
PASS-2: Formation of Pair natural orbitals
   .... Finished loop over pairs

 PNO Occupation Number Statistics: 
  | Av. % of trace(Dij) retained        ...  99.513971421146
  | sigma^2 in % of trace(Dij) retained ...   3.27e-01
  | Av. % of trace(Di) retained         ...  99.999717826583
  | sigma^2 in % of trace(Di) retained  ...   4.50e-09
 Distributions of % trace(Dij) recovered:
  |       >= 99.9  ...    63 ( 27.3 % of all pairs)
  |   [90.0, 99.0) ...    32 ( 13.9 % of all pairs)
  |   [99.0, 99.9) ...   136 ( 58.9 % of all pairs)
 Distributions of % trace(Di) recovered :
  |       >= 99.9  ...    21 (100.0 % of all I-pairs )

Making pair pair interaction lists          ... done

                       ===========================
                        231 OF  231 PAIRS ARE KEPT
                       ===========================

Total time spent in the initial guess                 ...    18.197 sec
L-MP2 correlation energy (all non-screened pairs)     ...      -1.277253936092 Eh
L-MP2 PNO error correction                            ...      -0.000031515128 Eh
                                                          --------------------
Initial total L-MP2 energy (non-screened pairs)       ...      -1.277285451220 Eh

Initial PNO correlation energy                        ...      -1.275958354975 Eh
sum of pair energies estimated for screened out pairs ...       0.000000000000 Eh
sum of MP2 pair energies for pairs that were not kept ...       0.000000000000 Eh
sum of PNO error estimates for the kept pairs         ...      -0.001327096245 Eh
                                                          --------------------
sum of all corrections                                         -0.001327096245
Initial total correlation energy                               -1.277285451220
Thresholds for map construction and integral transformation for fine MP2 and CCSD(T) calculation:
   TCutMKN   ...     1.0e-03
   TCutDO    ...     5.0e-03
   TCutPairs ...     1.0e-05
   TCutCMO   ...     1.0e-03
   TCutCPAO  ...     1.0e-03

Time for aux screen maps:            0.005
Time for maps after fine MP2:            0.015
-----------------------------
LOCAL RI TRANSFORMATION (IJV)
-----------------------------

Orbital window:       7 to 27
Basis functions:    378 (142 shells)
Aux. functions:     927 (281 shells)

Processing maps (0.0 sec)
Average map sizes:
   Aux shells -> MOs(i)           21.0
   Aux shells -> MOs(j)           21.0
   MOs        -> AO shells       140.3

Calculating integrals (0.7 sec, 3.130 MB)
Sorting integrals (0.0 sec, 3.119 MB)
Total time for the integral transformation: 0.7 sec
--------------------------------
LOCAL RI TRANSFORMATION (VABPAO)
--------------------------------

Number of PAOs:     378
Basis functions:    378 (142 shells)
Aux. functions:     927 (281 shells)

Processing maps (0.0 sec)
Average map sizes:
   Aux shells -> PAOs            378.0
   PAOs       -> AO shells       142.0

Calculating integrals (2.4 sec, 1883.744 MB)
Finished


-------------------------------------
Pair Pair Term precalculation with     
RI-(ij|mn) and (im|jn) transformation  
ON THE FLY                             
-------------------------------------

   IBatch   1 (of   2)              ... done (  116.711 sec)
   IBatch   2 (of   2)              ... done (   27.589 sec)
Total EXT                           ...         144.371 sec

---------------------
RI-PNO TRANSFORMATION
---------------------

Total Number of PNOs                   ...  9457
Average number of PNOs per pair        ...    40
Maximal number of PNOs per pair        ...    71
   #pairs with  1 -  5 PNOs   :    0
   #pairs with  6 - 10 PNOs   :    9
   #pairs with 11 - 15 PNOs   :    9
   #pairs with 16 - 20 PNOs   :   18
   #pairs with 21 - 25 PNOs   :   18
   #pairs with 26 - 30 PNOs   :   33
   #pairs with 31 - 35 PNOs   :    9
   #pairs with 36 - 40 PNOs   :   11
   #pairs with 41 - 45 PNOs   :    9
   #pairs with 46 - 50 PNOs   :   38
   #pairs with 51 - 55 PNOs   :   31
   #pairs with 56 - 60 PNOs   :    4
   #pairs with 61 - 65 PNOs   :   11
   #pairs with 66 - 70 PNOs   :   26
   #pairs with 71 - 75 PNOs   :    5

Generation of (ij|ab)[P] integrals            ... on
Generation of (ia|bc)[P],(ja|bc)[P] integrals ... on
Storage of 3 and 4 external integrals         ... on
Generation of ALL (ka|bc)[P] integrals        ... on
Keep RI integrals in memory                   ... off

Ibatch:  1 (of  1)
Starting 2-4 index PNO integral generation ... done

Timings:
Total PNO integral transformation time     ...         39.222 sec
Size of the 3-external file                ...       191 MB
Size of the 4-external file                ...      1390 MB
Size of the IKJL file                      ...         0 MB
Size of the all 3-external file            ...      2010 MB
Size of the 1-external file                ...         4 MB

Making pair/pair overlap matrices          ... done (    5.445 sec)
Size of the pair overlap file              ... 492 MB
Redoing the guess amplitudes               ... done (    0.119 sec)

-------------------------
FINAL STARTUP INFORMATION
-------------------------

E(0)                                       ...   -309.171346401
E(L-MP2)                                   ...     -1.277285451
E(L-MP2) including corrections             ...     -1.277285451
Initial E(tot)                             ...   -310.448631852
<T|T>                                      ...      0.348162519
Number of pairs included                   ... 231
Total number of pairs                      ... 231

------------------------------------------------
                  RHF COUPLED CLUSTER ITERATIONS
------------------------------------------------

Number of PNO amplitudes to be optimized   ...       459071
Number of non-PNO amplitudes               ...     28297500
Untruncated number of regular amplitudes   ...     28297500

Iter       E(tot)           E(Corr)          Delta-E          Residual     Time
  0   -310.412046492     -1.239372995      0.037912456      0.018172947   15.16
                           *** Turning on DIIS ***
  1   -310.467634303     -1.294960806     -0.055587811      0.006243864   16.52
  2   -310.499806284     -1.327132786     -0.032171981      0.002013133   21.24
  3   -310.505773182     -1.333099685     -0.005966898      0.000917897   14.16
  4   -310.506993109     -1.334319611     -0.001219927      0.000304292   14.10
  5   -310.507207601     -1.334534103     -0.000214492      0.000156451   14.15
  6   -310.507256503     -1.334583005     -0.000048902      0.000074240   14.13
  7   -310.507263288     -1.334589790     -0.000006785      0.000034516   14.09
  8   -310.507264281     -1.334590784     -0.000000994      0.000013021   14.11
  9   -310.507263626     -1.334590129      0.000000655      0.000004209   14.14
               --- The Coupled-Cluster iterations have converged ---

----------------------
COUPLED CLUSTER ENERGY
----------------------

E(0)                                       ...   -309.171346401
E(CORR)(strong-pairs)                      ...     -1.334590129
E(CORR)(weak-pairs)                        ...     -0.001327096
E(CORR)(corrected)                         ...     -1.335917225
E(TOT)                                     ...   -310.507263626
Singles Norm <S|S>**1/2                    ...      0.057167042  
T1 diagnostic                              ...      0.008821066  

------------------
LARGEST AMPLITUDES
------------------
  11-> 38  11-> 38       0.031449
  12-> 38  12-> 38       0.031335
  10-> 38  10-> 38       0.031201
  14-> 38  14-> 38       0.030982
  15-> 29  15-> 29       0.030002
  25-> 34  25-> 34       0.029790
  24-> 34  24-> 34       0.029272
  19-> 28  19-> 28       0.028509
  25-> 28  25-> 28       0.028323
  22-> 28  22-> 28       0.028207
  17-> 28  17-> 28       0.027804
  20-> 28  20-> 28       0.027660
  23-> 28  23-> 28       0.027592
  22-> 34  22-> 34       0.027427
  26-> 28  26-> 28       0.027321
  20-> 34  20-> 34       0.027309


-------------------------------------------
DLPNO BASED TRIPLES CORRECTION
-------------------------------------------

Singles multiplier          ...  1.000000
TCutTNO                     ... 1.000e-09
TCutMP2Pairs                ... 1.000e-06
TCutDOStrong                ... 1.000e-02
TCutMKNStrong               ... 1.000e-02
TCutDOWeak                  ... 2.000e-02
TCutMKNWeak                 ... 1.000e-01

Fragment selection                          .... not used
Number of Triples that are to be computed   ...      1750

 . . . . . . . . .
10% done  
20% done  
30% done  
40% done  
50% done  
60% done  
70% done  
80% done  
90% done               (    238.895 sec)
Triples timings:
Total time for T0               ...   255.707 sec
Total time for Iterative (T)    ...     0.000 sec
Total time of overall (T)       ...   255.708 sec

Triples List generation         ...     0.000 sec
TNO generation                  ...    16.748 sec
Pair density generation         ...     0.018 sec
Look up tables                  ...     0.000 sec
Generating 3-index integrals    ...   166.096 sec
  Make 4-ind.int. from 3-ind.int...    22.284 sec
  Projecting amplitudes (D + S) ...    20.627 sec
  Downprojecting integrals      ...     0.004 sec
  Energy contr. (sum over a,b,c)...     8.395 sec
Fitting ET(->0)                 ...     0.000 sec

Everything after 3-index        ...    72.800 sec

Timing details:
 TNO integrals                  ...   186.433 sec
   Reading 3-index integrals    ...     0.422 sec
   Sorting integrals            ...    23.858 sec
       Sorting integrals 1      ...     0.002 sec
       Sorting integrals 2      ...    14.271 sec
       Sorting integrals 3      ...     0.596 sec
       Sorting integrals 4      ...     0.036 sec
       Sorting integrals 5      ...     0.222 sec
       Sorting integrals 6      ...     8.731 sec
   Calculating local VM**-1/2   ...     0.617 sec
   Orthogonal. integrals        ...     1.057 sec
   Multipl. 3-index integrals   ...   160.480 sec
   All concerning IRIab (w/TNO) ...    11.296 sec

 Calculate W0/W1                ...    21.483 sec
 W 3-ext contribution           ...    11.448 sec
 W 3-int contribution           ...     3.263 sec
 Sorting W                      ...     6.489 sec

 V exchange contribution        ...     2.712 sec

 Timings for Triples without generation
     of 3-index integrals       ...    72.797 sec
       0 weak pairs             ...    72.797 sec
       1 weak pair              ...     0.000 sec
       2 weak pairs             ...     0.000 sec
       3 weak pairs             ...     0.000 sec
  Extra time for extrapolation  ...     0.000 sec

Number of Triples   (0, 1, 2, 3 weak pairs; overall):   1750       0       0       0  (  1750)
Number of Atoms     (0, 1, 2, 3 weak pairs; overall):   18.4     0.0     0.0     0.0  (    19)
Number of PAOs      (0, 1, 2, 3 weak pairs; overall):  369.0     0.0     0.0     0.0  (   378)
Number of AuxFcns   (0, 1, 2, 3 weak pairs; overall):  415.4     0.0     0.0     0.0  (   927)
Number of TNOs      (0, 1, 2, 3 weak pairs         ):  100.8     0.0     0.0     0.0
Aver. Number of NTNO, Atoms, PAOs, AuxFcns / Triples:   1750   100.8    18.4   369.0   415.4

Triples Correction (T)                     ...     -0.052424858
Final correlation energy                   ...     -1.388342083
E(CCSD)                                    ...   -310.507263626
E(CCSD(T))                                 ...   -310.559688484


Maximum memory used throughout the entire calculation: 7964.4 MB


------------------------------------------------------------------------------- 
                                     TIMINGS                                   
------------------------------------------------------------------------------- 


Total execution time                   ...      631.609 sec

Localization of occupied MO's          ...        0.585 sec (  0.1%)
Fock Matrix Formation                  ...        2.554 sec (  0.4%)
Global overlap, Fock, MKN matrices     ...        0.231 sec (  0.0%)
Differential overlap integrals         ...        0.164 sec (  0.0%)
Organizing maps                        ...        0.046 sec (  0.0%)
RI 3-index integral generations        ...        5.009 sec (  0.8%)
RI-PNO integral transformation         ...      192.234 sec ( 30.4%)
Initial Guess                          ...       21.057 sec (  3.3%)
DIIS Solver                            ...        2.568 sec (  0.4%)
State Vector Update                    ...        0.315 sec (  0.0%)
Sigma-vector construction              ...      150.395 sec ( 23.8%)
  <D|H|D>(0-ext)                       ...        3.418 sec (  2.3% of sigma)
  <D|H|D>(2-ext Fock)                  ...        0.014 sec (  0.0% of sigma)
  <D|H|D>(2-ext)                       ...       18.561 sec ( 12.3% of sigma)
  <D|H|D>(4-ext)                       ...       16.170 sec ( 10.8% of sigma)
  <D|H|D>(4-ext-corr)                  ...       75.902 sec ( 50.5% of sigma)
  CCSD doubles correction              ...        0.215 sec (  0.1% of sigma)
  <S|H|S>                              ...        0.578 sec (  0.4% of sigma)
  <S|H|D>(1-ext)                       ...        0.421 sec (  0.3% of sigma)
  <D|H|S>(1-ext)                       ...        0.012 sec (  0.0% of sigma)
  <S|H|D>(3-ext)                       ...        0.747 sec (  0.5% of sigma)
  Fock-dressing                        ...       25.207 sec ( 16.8% of sigma)
  Singles amplitudes                   ...        0.548 sec (  0.4% of sigma)
  (ik|jl)-dressing                     ...        2.712 sec (  1.8% of sigma)
  (ij|ab),(ia|jb)-dressing             ...        2.681 sec (  1.8% of sigma)
  Pair energies                        ...        0.266 sec (  0.2% of sigma)
Total Time for computing (T)           ...      255.778 sec ( 40.5% of ALL)


-------------------------   --------------------
FINAL SINGLE POINT ENERGY      -310.559688484147
-------------------------   --------------------


                            ***************************************
                            *     ORCA property calculations      *
                            ***************************************

                                    ---------------------
                                    Active property flags
                                    ---------------------
   (+) Dipole Moment


------------------------------------------------------------------------------
                       ORCA ELECTRIC PROPERTIES CALCULATION
------------------------------------------------------------------------------

Dipole Moment Calculation                       ... on
Quadrupole Moment Calculation                   ... off
Polarizability Calculation                      ... off
GBWName                                         ... hydroxycyclohexane_ax.gbw
Electron density file                           ... hydroxycyclohexane_ax.scfp.tmp
The origin for moment calculation is the CENTER OF MASS  = ( 0.054780, -0.014013 -0.027975)

-------------
DIPOLE MOMENT
-------------
                                X             Y             Z
Electronic contribution:      3.11225      -0.31953      -1.18073
Nuclear contribution   :     -3.06755       0.78471       1.56656
                        -----------------------------------------
Total Dipole Moment    :      0.04470       0.46517       0.38583
                        -----------------------------------------
Magnitude (a.u.)       :      0.60601
Magnitude (Debye)      :      1.54035



--------------------
Rotational spectrum 
--------------------
 
Rotational constants in cm-1:     0.118089     0.087122     0.065268 
Rotational constants in MHz :  3540.223874  2611.839053  1956.687519 

 Dipole components along the rotational axes: 
x,y,z [a.u.] :    -0.021643     0.469893     0.382071 
x,y,z [Debye]:    -0.055012     1.194372     0.971148 

 

Timings for individual modules:

Sum of individual times         ...      677.339 sec (=  11.289 min)
GTO integral calculation        ...       11.308 sec (=   0.188 min)   1.7 %
SCF iterations                  ...       21.198 sec (=   0.353 min)   3.1 %
MDCI module                     ...      644.832 sec (=  10.747 min)  95.2 %
                             ****ORCA TERMINATED NORMALLY****
TOTAL RUN TIME: 0 days 0 hours 11 minutes 20 seconds 428 msec
hydroxycyclohexane_ax.gbw -> /home1/pantazis/klk/xyz/Cyclohexanes/hydroxycyclohexane_ax.gbw
hydroxycyclohexane_ax.job -> /home1/pantazis/klk/xyz/Cyclohexanes/hydroxycyclohexane_ax.job
hydroxycyclohexane_ax.loc -> /home1/pantazis/klk/xyz/Cyclohexanes/hydroxycyclohexane_ax.loc
hydroxycyclohexane_ax.nodes -> /home1/pantazis/klk/xyz/Cyclohexanes/hydroxycyclohexane_ax.nodes
hydroxycyclohexane_ax.prop -> /home1/pantazis/klk/xyz/Cyclohexanes/hydroxycyclohexane_ax.prop
hydroxycyclohexane_ax_property.txt -> /home1/pantazis/klk/xyz/Cyclohexanes/hydroxycyclohexane_ax_property.txt
hydroxycyclohexane_ax.xyz -> /home1/pantazis/klk/xyz/Cyclohexanes/hydroxycyclohexane_ax.xyz
cp: cannot stat hydroxycyclohexane_ax.asa.inp: No such file or directory
