! Job execution by suborca V 6.07 on ZEUS !
Job started from zeus1, running /scratch/pantazis/Me_acetate_Z__AKXWv2/orca/orca copied from /opt/orca on zeussn129 in /scratch/pantazis/Me_acetate_Z__AKXWv2
Job execution start: Thu Jun 27 14:10:51 CEST 2019
Shared library path: /scratch/pantazis/Me_acetate_Z__AKXWv2/orca:/opt/openmpi_1.10.2/lib:/opt/intel/mkl/lib/intel64:/opt/intel/lib/intel64:
PBS Job ID is: 158143.icqc
izeussn129
izeussn129
izeussn129
izeussn129
izeussn129
izeussn129
izeussn129
izeussn129

                                 *****************
                                 * O   R   C   A *
                                 *****************

           --- An Ab Initio, DFT and Semiempirical electronic structure package ---

                  #######################################################
                  #                        -***-                        #
                  #          Department of theory and spectroscopy      #
                  #               Directorship: Frank Neese             #
                  #        Max Planck Institute fuer Kohlenforschung    #
                  #                Kaiser Wilhelm Platz 1               #
                  #                 D-45470 Muelheim/Ruhr               #
                  #                      Germany                        #
                  #                                                     #
                  #                  All rights reserved                #
                  #                        -***-                        #
                  #######################################################


                         Program Version 4.1.x  -  STABLE  -
                                (SVN: $Rev: 14094$)
                ($Date: 2019-06-14 15:01:15 +0200 (Fri, 14 Jun 2019) $)

                         (BUILD: $Sun Jun 23 06:18:31 CEST 2019$)


 With contributions from (in alphabetic order):
   Daniel Aravena         : Magnetic Properties
   Michael Atanasov       : Ab Initio Ligand Field Theory
   Alexander A. Auer      : GIAO ZORA
   Ute Becker             : Parallelization
   Giovanni Bistoni       : ED, Open-shell LED
   Martin Brehm           : Molecular dynamics
   Dmytro Bykov           : SCF Hessian
   Vijay G. Chilkuri      : MRCI spin determinant printing
   Dipayan Datta          : RHF DLPNO-CCSD density
   Achintya Kumar Dutta   : EOM-CC, STEOM-CC
   Dmitry Ganyushin       : Spin-Orbit,Spin-Spin,Magnetic field MRCI
   Miquel Garcia          : C-PCM Hessian
   Yang Guo               : DLPNO-NEVPT2, CIM, IAO-localization
   Andreas Hansen         : Spin unrestricted coupled pair/coupled cluster methods
   Benjamin Helmich-Paris : CASSCF linear response (MC-RPA)
   Lee Huntington         : MR-EOM, pCC
   Robert Izsak           : Overlap fitted RIJCOSX, COSX-SCS-MP3, EOM
   Christian Kollmar      : KDIIS, OOCD, Brueckner-CCSD(T), CCSD density
   Simone Kossmann        : Meta GGA functionals, TD-DFT gradient, OOMP2, MP2 Hessian
   Martin Krupicka        : AUTO-CI
   Lucas Lang             : DCDCAS
   Dagmar Lenk            : GEPOL surface, SMD
   Dimitrios Liakos       : Extrapolation schemes; parallel MDCI
   Dimitrios Manganas     : ROCIS; embedding schemes
   Dimitrios Pantazis     : SARC Basis sets
   Taras Petrenko         : DFT Hessian,TD-DFT gradient, ASA, ECA, R-Raman, ABS, FL, XAS/XES, NRVS
   Peter Pinski           : DLPNO-MP2, DLPNO-MP2 Gradient
   Christoph Reimann      : Effective Core Potentials
   Marius Retegan         : Local ZFS, SOC
   Christoph Riplinger    : Optimizer, TS searches, QM/MM, DLPNO-CCSD(T), (RO)-DLPNO pert. Triples
   Tobias Risthaus        : Range-separated hybrids, TD-DFT gradient, RPA, STAB
   Michael Roemelt        : Restricted open shell CIS
   Masaaki Saitow         : Open-shell DLPNO
   Barbara Sandhoefer     : DKH picture change effects
   Avijit Sen             : IP-ROCIS
   Kantharuban Sivalingam : CASSCF convergence, NEVPT2, FIC-MRCI
   Bernardo de Souza      : ESD, SOC TD-DFT
   Georgi Stoychev        : AutoAux, RI-MP2 NMR
   Willem Van den Heuvel  : Paramagnetic NMR
   Boris Wezisla          : Elementary symmetry handling
   Frank Wennmohs         : Technical directorship


 We gratefully acknowledge several colleagues who have allowed us to
 interface, adapt or use parts of their codes:
   Stefan Grimme, W. Hujo, H. Kruse,             : VdW corrections, initial TS optimization,
                  C. Bannwarth                     DFT functionals, gCP, sTDA/sTD-DF
   Ed Valeev                                     : LibInt (2-el integral package), F12 methods
   Garnet Chan, S. Sharma, J. Yang, R. Olivares  : DMRG
   Ulf Ekstrom                                   : XCFun DFT Library
   Mihaly Kallay                                 : mrcc  (arbitrary order and MRCC methods)
   Andreas Klamt, Michael Diedenhofen            : otool_cosmo (COSMO solvation model)
   Jiri Pittner, Ondrej Demel                    : Mk-CCSD
   Frank Weinhold                                : gennbo (NPA and NBO analysis)
   Christopher J. Cramer and Donald G. Truhlar   : smd solvation model
   Lars Goerigk                                  : TD-DFT with DH, B97 family of functionals
   V. Asgeirsson, H. Jonsson                     : NEB implementation
   FAccTs GmbH                                   : IRC, NEB, NEB-TS, Multilevel


 Your calculation uses the libint2 library for the computation of 2-el integrals
 For citations please refer to: http://libint.valeyev.net

 This ORCA versions uses:
   CBLAS   interface :  Fast vector & matrix operations
   LAPACKE interface :  Fast linear algebra routines
   SCALAPACK package :  Parallel linear algebra routines




***************************************
The coordinates will be read from file: Me_acetate_Z.xyz
***************************************


----- Orbital basis set information -----
Your calculation utilizes the basis: cc-pVTZ 
       H, B-Ne : Obtained from the ccRepo (grant-hill.group.shef.ac.uk/ccrepo) Feb. 2017
                 T. H. Dunning, Jr., J. Chem. Phys. 90, 1007 (1989)
            He : Obtained from the ccRepo (grant-hill.group.shef.ac.uk/ccrepo) Feb. 2017
                 D. E. Woon, T. H. Dunning, Jr., J. Chem. Phys. 100, 2975 (1994)
  Li-Be, Na-Mg : Obtained from the ccRepo (grant-hill.group.shef.ac.uk/ccrepo) Feb. 2017
                 B. P. Prascher, D. E. Woon, K. A. Peterson, T. H. Dunning, Jr., A. K. Wilson, Theor. Chem. Acc. 128, 69 (2011)
         Al-Ar : Obtained from the ccRepo (grant-hill.group.shef.ac.uk/ccrepo) Feb. 2017
                 D. E. Woon, T. H. Dunning, Jr., J. Chem. Phys. 98, 1358 (1993)
            Ca : Obtained from the Peterson Research Group Website (tyr0.chem.wsu.edu/~kipeters) Feb. 2017
                 J. Koput, K. A. Peterson, J. Phys. Chem. 106, 9595 (2002)
         Sc-Zn : Obtained from the ccRepo (grant-hill.group.shef.ac.uk/ccrepo) Feb. 2017
                 N. B. Balabanov, K. A. Peterson, J. Chem. Phys. 123, 064107 (2005)
                 N. B. Balabanov, K. A. Peterson, J. Chem. Phys. 125, 074110 (2006)
         Ga-Kr : Obtained from the ccRepo (grant-hill.group.shef.ac.uk/ccrepo) Feb. 2017
                 A. K. Wilson, D. E. Woon, K. A. Peterson, T. H. Dunning, Jr., J. Chem. Phys. 110, 7667 (1999)
             Y : Obtained from the ccRepo (grant-hill.group.shef.ac.uk/ccrepo) Feb. 2017
                 K. A. Peterson, D. Figgen, M. Dolg, H. Stoll, J. Chem. Phys. 126, 124101 (2007)
        Ag, Au : Obtained from the Peterson Research Group Website (tyr0.chem.wsu.edu/~kipeters) Feb. 2017
                 K. A. Peterson, C. Puzzarini, Theor. Chem. Acc. 114, 283 (2005)

----- AuxC basis set information -----
Your calculation utilizes the auxiliary basis: cc-pVTZ/C 
  Obtained from the EMSL Basis Set Exchange (bse.pnl.gov) Feb. 2017
  H-He, B-F, Al-Ar, Ga-Kr : F. Weigend, A. Kohn, C. Hattig, J. Chem. Phys. 116, 3175 (2002)
             Li-Be, Na-Mg : C. Haettig, Phys. Chem. Chem. Phys. 7, 59 (2005)
                       Ne : C. Haettig, Phys. Chem. Chem. Phys. 7, 59 (2005)
                            F. Weigend, A. Kohn, C. Hattig, J. Chem. Phys. 116, 3175 (2002)
                    Sc-Zn : J. G. Hill, J. A. Platts, J. Chem. Phys. 128, 044104 (2008)

----- AuxJK basis set information -----
Your calculation utilizes the auxiliary basis: cc-pVTZ/JK 
  H, B-F, Al-Cl, Ga-Br : Obtained from the TURBOMOLE 7.0 basis set library

================================================================================
                                        WARNINGS
                       Please study these warnings very carefully!
================================================================================


WARNING: MDCI localization with Augmented Hessian Foster-Boys
  ===> : Switching off randomization!

WARNING: Post HF methods need fully converged wavefunctions
  ===> : Setting SCFConvForced true
         You can overwrite this default with %scf ConvForced false 


INFO   : the flag for use of LIBINT has been found!

================================================================================
                                       INPUT FILE
================================================================================
NAME = Me_acetate_Z.inp
|  1> ! RHF DLPNO-CCSD(T) cc-pVTZ RIJK cc-pVTZ/JK cc-pVTZ/C
|  2> ! KDIIS SOSCF TightSCF TightPNO
|  3> 
|  4> %pal nprocs 8 end
|  5> 
|  6> %maxcore 8000
|  7> 
|  8> %scf maxiter 300
|  9>      shift shift 0.2 erroff 0.1 end
| 10> end
| 11> 
| 12> * xyzfile 0 1 Me_acetate_Z.xyz 
| 13> 
| 14> 
| 15>                          ****END OF INPUT****
================================================================================

                       ****************************
                       * Single Point Calculation *
                       ****************************

---------------------------------
CARTESIAN COORDINATES (ANGSTROEM)
---------------------------------
  C     -1.804670   -0.524770   -0.000040
  C     -0.461980    0.164350    0.000110
  O      0.561040   -0.721740    0.000020
  C      1.885020   -0.152610   -0.000030
  O     -0.299340    1.367970   -0.000020
  H      2.565530   -1.003480   -0.000240
  H      2.034450    0.463430   -0.890010
  H      2.034630    0.463140    0.890130
  H     -1.706150   -1.610660   -0.000400
  H     -2.366070   -0.202310    0.881620
  H     -2.366200   -0.201700   -0.881390

----------------------------
CARTESIAN COORDINATES (A.U.)
----------------------------
  NO LB      ZA    FRAG     MASS         X           Y           Z
   0 C     6.0000    0    12.011   -3.410332   -0.991672   -0.000076
   1 C     6.0000    0    12.011   -0.873016    0.310576    0.000208
   2 O     8.0000    0    15.999    1.060212   -1.363891    0.000038
   3 C     6.0000    0    12.011    3.562172   -0.288391   -0.000057
   4 O     8.0000    0    15.999   -0.565671    2.585089   -0.000038
   5 H     1.0000    0     1.008    4.848149   -1.896302   -0.000454
   6 H     1.0000    0     1.008    3.844553    0.875756   -1.681875
   7 H     1.0000    0     1.008    3.844893    0.875208    1.682102
   8 H     1.0000    0     1.008   -3.224156   -3.043706   -0.000756
   9 H     1.0000    0     1.008   -4.471224   -0.382310    1.666020
  10 H     1.0000    0     1.008   -4.471470   -0.381158   -1.665586

--------------------------------
INTERNAL COORDINATES (ANGSTROEM)
--------------------------------
 C      0   0   0     0.000000000000     0.00000000     0.00000000
 C      1   0   0     1.509206027353     0.00000000     0.00000000
 O      2   1   0     1.353412507922   111.93385261     0.00000000
 C      3   2   1     1.441121785208   115.84140776   179.99196326
 O      2   1   3     1.214558722705   124.86415370   179.98215795
 H      4   3   2     1.089529100621   105.39109112   180.00763631
 H      4   3   2     1.092656856886   110.38502135   299.66387568
 H      4   3   2     1.092664651300   110.38425856    60.35170358
 H      1   2   3     1.090350132801   111.98452929     0.00000000
 H      1   2   3     1.093834890283   108.77935662   121.64413893
 H      1   2   3     1.093831791593   108.78009507   238.32927500

---------------------------
INTERNAL COORDINATES (A.U.)
---------------------------
 C      0   0   0     0.000000000000     0.00000000     0.00000000
 C      1   0   0     2.851986071361     0.00000000     0.00000000
 O      2   1   0     2.557578986196   111.93385261     0.00000000
 C      3   2   1     2.723325499670   115.84140776   179.99196326
 O      2   1   3     2.295183359479   124.86415370   179.98215795
 H      4   3   2     2.058911615111   105.39109112   180.00763631
 H      4   3   2     2.064822217866   110.38502135   299.66387568
 H      4   3   2     2.064836947173   110.38425856    60.35170358
 H      1   2   3     2.060463141079   111.98452929     0.00000000
 H      1   2   3     2.067048378362   108.77935662   121.64413893
 H      1   2   3     2.067042522688   108.78009507   238.32927500

---------------------
BASIS SET INFORMATION
---------------------
There are 3 groups of distinct atoms

 Group   1 Type C   : 18s5p2d1f contracted to 4s3p2d1f pattern {8811/311/11/1}
 Group   2 Type O   : 18s5p2d1f contracted to 4s3p2d1f pattern {8811/311/11/1}
 Group   3 Type H   : 5s2p1d contracted to 3s2p1d pattern {311/11/1}

Atom   0C    basis set group =>   1
Atom   1C    basis set group =>   1
Atom   2O    basis set group =>   2
Atom   3C    basis set group =>   1
Atom   4O    basis set group =>   2
Atom   5H    basis set group =>   3
Atom   6H    basis set group =>   3
Atom   7H    basis set group =>   3
Atom   8H    basis set group =>   3
Atom   9H    basis set group =>   3
Atom  10H    basis set group =>   3
-------------------------------
AUXILIARY BASIS SET INFORMATION
-------------------------------
There are 3 groups of distinct atoms

 Group   1 Type C   : 8s6p5d3f1g contracted to 8s6p5d3f1g pattern {11111111/111111/11111/111/1}
 Group   2 Type O   : 8s6p5d3f1g contracted to 8s6p5d3f1g pattern {11111111/111111/11111/111/1}
 Group   3 Type H   : 4s3p2d1f contracted to 4s3p2d1f pattern {1111/111/11/1}

Atom   0C    basis set group =>   1
Atom   1C    basis set group =>   1
Atom   2O    basis set group =>   2
Atom   3C    basis set group =>   1
Atom   4O    basis set group =>   2
Atom   5H    basis set group =>   3
Atom   6H    basis set group =>   3
Atom   7H    basis set group =>   3
Atom   8H    basis set group =>   3
Atom   9H    basis set group =>   3
Atom  10H    basis set group =>   3
-------------------------------
AUXILIARY BASIS SET INFORMATION
-------------------------------
There are 3 groups of distinct atoms

 Group   1 Type C   : 10s7p5d2f1g contracted to 10s7p5d2f1g pattern {1111111111/1111111/11111/11/1}
 Group   2 Type O   : 10s7p5d2f1g contracted to 10s7p5d2f1g pattern {1111111111/1111111/11111/11/1}
 Group   3 Type H   : 4s3p2d1f contracted to 4s3p2d1f pattern {1111/111/11/1}

Atom   0C    basis set group =>   1
Atom   1C    basis set group =>   1
Atom   2O    basis set group =>   2
Atom   3C    basis set group =>   1
Atom   4O    basis set group =>   2
Atom   5H    basis set group =>   3
Atom   6H    basis set group =>   3
Atom   7H    basis set group =>   3
Atom   8H    basis set group =>   3
Atom   9H    basis set group =>   3
Atom  10H    basis set group =>   3


           ************************************************************
           *        Program running with 8 parallel MPI-processes     *
           *              working on a common directory               *
           ************************************************************
------------------------------------------------------------------------------
                           ORCA GTO INTEGRAL CALCULATION
                           -- RI-GTO INTEGRALS CHOSEN --
------------------------------------------------------------------------------

                         BASIS SET STATISTICS AND STARTUP INFO

Gaussian basis set:
 # of primitive gaussian shells          ...  178
 # of primitive gaussian functions       ...  346
 # of contracted shells                  ...   86
 # of contracted basis functions         ...  234
 Highest angular momentum                ...    3
 Maximum contraction depth               ...    8
Auxiliary gaussian basis set:
 # of primitive gaussian shells          ...  185
 # of primitive gaussian functions       ...  575
 # of contracted shells                  ...  185
 # of contracted aux-basis functions     ...  575
 Highest angular momentum                ...    4
 Maximum contraction depth               ...    1
Ratio of auxiliary to basis functions    ...  2.46
Integral package used                  ... LIBINT
 One Electron integrals                  ... done
 Ordering auxiliary basis shells         ... done
 Integral threshhold             Thresh  ...  2.500e-11
 Primitive cut-off               TCut    ...  2.500e-12
 Pre-screening matrix                    ... done
 Shell pair data                         ... 
 Ordering of the shell pairs             ... done (   0.001 sec) 3601 of 3741 pairs
 Determination of significant pairs      ... done (   0.000 sec)
 Creation of shell pair data             ... done (   0.001 sec)
 Storage of shell pair data              ... done (   0.003 sec)
 Shell pair data done in (   0.004 sec)
 Computing two index integrals           ... done
 Cholesky decomposition of the V-matrix  ... done


Timings:
 Total evaluation time                   ...   0.355 sec (  0.006 min)
 One electron matrix time                ...   0.036 sec (  0.001 min) = 10.2%
 Schwartz matrix evaluation time         ...   0.217 sec (  0.004 min) = 61.2%
 Two index repulsion integral time       ...   0.034 sec (  0.001 min) =  9.7%
 Cholesky decomposition of V             ...   0.036 sec (  0.001 min) = 10.0%
 Three index repulsion integral time     ...   0.000 sec (  0.000 min) =  0.0%



           ************************************************************
           *        Program running with 8 parallel MPI-processes     *
           *              working on a common directory               *
           ************************************************************
-------------------------------------------------------------------------------
                                 ORCA SCF
-------------------------------------------------------------------------------

------------
SCF SETTINGS
------------
Hamiltonian:
 Ab initio Hamiltonian  Method          .... Hartree-Fock(GTOs)
 RI-approximation to the Coulomb term is turned on
   Number of auxiliary basis functions  .... 575
   RI-JK (J+K treated both via RI)      .... on


General Settings:
 Integral files         IntName         .... Me_acetate_Z
 Hartree-Fock type      HFTyp           .... RHF
 Total Charge           Charge          ....    0
 Multiplicity           Mult            ....    1
 Number of Electrons    NEL             ....   40
 Basis Dimension        Dim             ....  234
 Nuclear Repulsion      ENuc            ....    180.7803753861 Eh

Convergence Acceleration:
 DIIS                   CNVDIIS         .... off
 Newton-Raphson         CNVNR           .... off
 SOSCF                  CNVSOSCF        .... on
   Start iteration      SOSCFMaxIt      ....   150
   Startup grad/error   SOSCFStart      ....  0.003300
 Level Shifting         CNVShift        .... on
   Level shift para.    LevelShift      ....    0.2000
   Turn off err/grad.   ShiftErr        ....    0.1000
 Zerner damping         CNVZerner       .... off
 Static damping         CNVDamp         .... off
 Fernandez-Rico         CNVRico         .... off

SCF Procedure:
 Maximum # iterations   MaxIter         ....   300
 SCF integral mode      SCFMode         .... Direct
   Integral package                     .... LIBINT
 Reset frequency        DirectResetFreq ....    20
 Integral Threshold     Thresh          ....  2.500e-11 Eh
 Primitive CutOff       TCut            ....  2.500e-12 Eh

Convergence Tolerance:
 Convergence Check Mode ConvCheckMode   .... Total+1el-Energy
 Convergence forced     ConvForced      .... 1
 Energy Change          TolE            ....  1.000e-08 Eh
 1-El. energy change                    ....  1.000e-05 Eh
 Orbital Gradient       TolG            ....  1.000e-05
 Orbital Rotation angle TolX            ....  1.000e-05


Diagonalization of the overlap matrix:
Smallest eigenvalue                        ... 7.261e-04
Time for diagonalization                   ...    0.015 sec
Threshold for overlap eigenvalues          ... 1.000e-08
Number of eigenvalues below threshold      ... 0
Time for construction of square roots      ...    0.010 sec
Total time needed                          ...    0.025 sec

-------------------
DFT GRID GENERATION
-------------------

General Integration Accuracy     IntAcc      ...  4.340
Radial Grid Type                 RadialGrid  ... Gauss-Chebyshev
Angular Grid (max. acc.)         AngularGrid ... Lebedev-110
Angular grid pruning method      GridPruning ... 3 (G Style)
Weight generation scheme         WeightScheme... Becke
Basis function cutoff            BFCut       ...    1.0000e-11
Integration weight cutoff        WCut        ...    1.0000e-14
Grids for H and He will be reduced by one unit

# of grid points (after initial pruning)     ...  13164 (   0.0 sec)
# of grid points (after weights+screening)   ...  12524 (   0.0 sec)
nearest neighbour list constructed           ...    0.0 sec
Grid point re-assignment to atoms done       ...    0.0 sec
Grid point division into batches done        ...    0.0 sec
Reduced shell lists constructed in    0.1 sec

Total number of grid points                  ...    12524
Total number of batches                      ...      201
Average number of points per batch           ...       62
Average number of grid points per atom       ...     1139
Average number of shells per batch           ...    73.89 (85.92%)
Average number of basis functions per batch  ...   198.48 (84.82%)
Average number of large shells per batch     ...    62.89 (85.11%)
Average number of large basis fcns per batch ...   167.78 (84.53%)
Average number of aux-shells per batch       ...    73.89 (39.94%)
Average number of aux functions per batch    ...   198.48 (34.52%)
Maximum spatial batch extension              ...   2.63,  2.72,  4.12 au
Average spatial batch extension              ...   0.20,  0.19,  0.22 au

Time for grid setup =    0.111 sec

------------------------------
INITIAL GUESS: MODEL POTENTIAL
------------------------------
Loading Hartree-Fock densities                     ... done
Calculating cut-offs                               ... done
Setting up the integral package                    ... done
Initializing the effective Hamiltonian             ... done
Starting the Coulomb interaction                   ... done (   0.0 sec)
Reading the grid                                   ... done
Mapping shells                                     ... done
Starting the XC term evaluation                    ... done (   0.0 sec)
Transforming the Hamiltonian                       ... done (   0.0 sec)
Diagonalizing the Hamiltonian                      ... done (   0.0 sec)
Back transforming the eigenvectors                 ... done (   0.0 sec)
Now organizing SCF variables                       ... done
                      ------------------
                      INITIAL GUESS DONE (   0.3 sec)
                      ------------------
--------------
SCF ITERATIONS
--------------
ITER       Energy         Delta-E        Max-DP      RMS-DP      [F,P]   Gradient Norm
                             ****Turning on KDIIS(Cayley)****
  0   -266.6915578078   0.000000000000 0.01304481  0.00029548  0.1588816   0.160146617
  1   -266.7590862071  -0.067528399261 0.01770878  0.00034309  0.1451006   0.138644145
  2   -266.8176627923  -0.058576585153 0.02899088  0.00056089  0.1173386   0.112494043
  3   -266.8883350827  -0.070672290416 0.04403378  0.00091260  0.0705129   0.069088396
  4   -266.9342042145  -0.045869131859 0.00240723  0.00006938  0.0033341   0.003060743
                      *** Initiating the SOSCF procedure ***
                           *** Shutting down KDIIS ***
                      *** Re-Reading the Fockian *** 
                      *** Removing any level shift *** 
ITER      Energy       Delta-E        Grad      Rot      Max-DP    RMS-DP
  5   -266.93439197  -0.0001877512  0.001658  0.001658  0.001362  0.000040
  6   -266.93441965  -0.0000276870  0.000376  0.000563  0.000544  0.000013
  7   -266.93442195  -0.0000023006  0.000245  0.000272  0.000247  0.000005
  8   -266.93442352  -0.0000015713  0.000106  0.000207  0.000114  0.000003
  9   -266.93442369  -0.0000001632  0.000031  0.000101  0.000081  0.000002
 10   -266.93442372  -0.0000000324  0.000017  0.000025  0.000027  0.000001
 11   -266.93442372  -0.0000000042  0.000008  0.000011  0.000016  0.000000
                  ***Gradient check signals convergence***
              ***Rediagonalizing the Fockian in SOSCF/NRSCF***

               *****************************************************
               *                     SUCCESS                       *
               *           SCF CONVERGED AFTER  12 CYCLES          *
               *****************************************************


----------------
TOTAL SCF ENERGY
----------------

Total Energy       :         -266.93442373 Eh           -7263.65495 eV

Components:
Nuclear Repulsion  :          180.78037539 Eh            4919.28411 eV
Electronic Energy  :         -447.71479911 Eh          -12182.93905 eV
One Electron Energy:         -722.76045331 Eh          -19667.31180 eV
Two Electron Energy:          275.04565420 Eh            7484.37275 eV

Virial components:
Potential Energy   :         -533.36746086 Eh          -14513.66647 eV
Kinetic Energy     :          266.43303713 Eh            7250.01152 eV
Virial Ratio       :            2.00188185


---------------
SCF CONVERGENCE
---------------

  Last Energy change         ...   -8.1633e-10  Tolerance :   1.0000e-08
  Last MAX-Density change    ...    2.4922e-06  Tolerance :   1.0000e-07
  Last RMS-Density change    ...    5.2446e-08  Tolerance :   5.0000e-09
  Last Orbital Gradient      ...    1.3390e-06  Tolerance :   1.0000e-05
  Last Orbital Rotation      ...    1.5059e-06  Tolerance :   1.0000e-05

             **** THE GBW FILE WAS UPDATED (Me_acetate_Z.gbw) ****
             **** DENSITY FILE WAS UPDATED (Me_acetate_Z.scfp.tmp) ****
             **** ENERGY FILE WAS UPDATED (Me_acetate_Z.en.tmp) ****
----------------
ORBITAL ENERGIES
----------------

  NO   OCC          E(Eh)            E(eV) 
   0   2.0000     -20.602811      -560.6310 
   1   2.0000     -20.538427      -558.8790 
   2   2.0000     -11.380519      -309.6797 
   3   2.0000     -11.286089      -307.1101 
   4   2.0000     -11.242175      -305.9151 
   5   2.0000      -1.453200       -39.5436 
   6   2.0000      -1.351270       -36.7699 
   7   2.0000      -1.030750       -28.0481 
   8   2.0000      -0.947155       -25.7734 
   9   2.0000      -0.775445       -21.1009 
  10   2.0000      -0.689893       -18.7729 
  11   2.0000      -0.673295       -18.3213 
  12   2.0000      -0.671604       -18.2753 
  13   2.0000      -0.593374       -16.1465 
  14   2.0000      -0.588807       -16.0222 
  15   2.0000      -0.557093       -15.1593 
  16   2.0000      -0.526665       -14.3313 
  17   2.0000      -0.520390       -14.1605 
  18   2.0000      -0.459079       -12.4922 
  19   2.0000      -0.446538       -12.1509 
  20   0.0000       0.141885         3.8609 
  21   0.0000       0.159105         4.3295 
  22   0.0000       0.168074         4.5735 
  23   0.0000       0.203483         5.5371 
  24   0.0000       0.220115         5.9896 
  25   0.0000       0.221849         6.0368 
  26   0.0000       0.242311         6.5936 
  27   0.0000       0.251050         6.8314 
  28   0.0000       0.291504         7.9322 
  29   0.0000       0.365023         9.9328 
  30   0.0000       0.374232        10.1834 
  31   0.0000       0.381242        10.3741 
  32   0.0000       0.395621        10.7654 
  33   0.0000       0.436694        11.8831 
  34   0.0000       0.469194        12.7674 
  35   0.0000       0.485823        13.2199 
  36   0.0000       0.529597        14.4111 
  37   0.0000       0.549429        14.9507 
  38   0.0000       0.586660        15.9638 
  39   0.0000       0.605502        16.4766 
  40   0.0000       0.613298        16.6887 
  41   0.0000       0.621384        16.9087 
  42   0.0000       0.629349        17.1255 
  43   0.0000       0.631442        17.1824 
  44   0.0000       0.650831        17.7100 
  45   0.0000       0.683868        18.6090 
  46   0.0000       0.692832        18.8529 
  47   0.0000       0.709037        19.2939 
  48   0.0000       0.742106        20.1937 
  49   0.0000       0.776370        21.1261 
  50   0.0000       0.808718        22.0063 
  51   0.0000       0.833550        22.6821 
  52   0.0000       0.852687        23.2028 
  53   0.0000       0.879695        23.9377 
  54   0.0000       0.882971        24.0269 
  55   0.0000       0.928364        25.2621 
  56   0.0000       0.956560        26.0293 
  57   0.0000       0.999238        27.1906 
  58   0.0000       1.027296        27.9541 
  59   0.0000       1.061563        28.8866 
  60   0.0000       1.066198        29.0127 
  61   0.0000       1.134155        30.8619 
  62   0.0000       1.139563        31.0091 
  63   0.0000       1.146674        31.2026 
  64   0.0000       1.173722        31.9386 
  65   0.0000       1.196351        32.5544 
  66   0.0000       1.219465        33.1833 
  67   0.0000       1.226700        33.3802 
  68   0.0000       1.239147        33.7189 
  69   0.0000       1.277017        34.7494 
  70   0.0000       1.287478        35.0340 
  71   0.0000       1.306714        35.5575 
  72   0.0000       1.341303        36.4987 
  73   0.0000       1.414164        38.4813 
  74   0.0000       1.431071        38.9414 
  75   0.0000       1.463632        39.8274 
  76   0.0000       1.481902        40.3246 
  77   0.0000       1.499676        40.8083 
  78   0.0000       1.512313        41.1521 
  79   0.0000       1.524133        41.4738 
  80   0.0000       1.529397        41.6170 
  81   0.0000       1.556698        42.3599 
  82   0.0000       1.575199        42.8633 
  83   0.0000       1.598603        43.5002 
  84   0.0000       1.683193        45.8020 
  85   0.0000       1.711398        46.5695 
  86   0.0000       1.758355        47.8473 
  87   0.0000       1.815017        49.3891 
  88   0.0000       1.834523        49.9199 
  89   0.0000       1.870913        50.9101 
  90   0.0000       1.944509        52.9128 
  91   0.0000       2.008312        54.6489 
  92   0.0000       2.100205        57.1495 
  93   0.0000       2.163432        58.8700 
  94   0.0000       2.199924        59.8630 
  95   0.0000       2.323566        63.2274 
  96   0.0000       2.360299        64.2270 
  97   0.0000       2.374650        64.6175 
  98   0.0000       2.456315        66.8397 
  99   0.0000       2.467411        67.1417 
 100   0.0000       2.504622        68.1542 
 101   0.0000       2.523603        68.6707 
 102   0.0000       2.598189        70.7003 
 103   0.0000       2.610285        71.0295 
 104   0.0000       2.628001        71.5115 
 105   0.0000       2.706371        73.6441 
 106   0.0000       2.728811        74.2547 
 107   0.0000       2.809244        76.4434 
 108   0.0000       2.840029        77.2811 
 109   0.0000       2.891545        78.6829 
 110   0.0000       2.905837        79.0719 
 111   0.0000       2.948739        80.2393 
 112   0.0000       3.020421        82.1898 
 113   0.0000       3.044315        82.8400 
 114   0.0000       3.064006        83.3758 
 115   0.0000       3.098613        84.3175 
 116   0.0000       3.100857        84.3786 
 117   0.0000       3.109063        84.6019 
 118   0.0000       3.154110        85.8277 
 119   0.0000       3.163467        86.0823 
 120   0.0000       3.192778        86.8799 
 121   0.0000       3.224127        87.7330 
 122   0.0000       3.277323        89.1805 
 123   0.0000       3.277611        89.1883 
 124   0.0000       3.280407        89.2644 
 125   0.0000       3.331989        90.6680 
 126   0.0000       3.335829        90.7725 
 127   0.0000       3.344731        91.0148 
 128   0.0000       3.368404        91.6589 
 129   0.0000       3.403309        92.6088 
 130   0.0000       3.441532        93.6488 
 131   0.0000       3.447978        93.8243 
 132   0.0000       3.449300        93.8602 
 133   0.0000       3.542458        96.3952 
 134   0.0000       3.550389        96.6110 
 135   0.0000       3.568676        97.1086 
 136   0.0000       3.593631        97.7877 
 137   0.0000       3.594357        97.8074 
 138   0.0000       3.605542        98.1118 
 139   0.0000       3.669590        99.8546 
 140   0.0000       3.694831       100.5415 
 141   0.0000       3.713590       101.0519 
 142   0.0000       3.718497       101.1854 
 143   0.0000       3.736885       101.6858 
 144   0.0000       3.758263       102.2675 
 145   0.0000       3.787787       103.0709 
 146   0.0000       3.804403       103.5231 
 147   0.0000       3.820228       103.9537 
 148   0.0000       3.822888       104.0261 
 149   0.0000       3.840238       104.4982 
 150   0.0000       3.917135       106.5907 
 151   0.0000       3.994238       108.6887 
 152   0.0000       4.003919       108.9522 
 153   0.0000       4.080365       111.0324 
 154   0.0000       4.090639       111.3119 
 155   0.0000       4.092865       111.3725 
 156   0.0000       4.154697       113.0551 
 157   0.0000       4.157528       113.1321 
 158   0.0000       4.182347       113.8074 
 159   0.0000       4.183923       113.8503 
 160   0.0000       4.203691       114.3882 
 161   0.0000       4.251053       115.6770 
 162   0.0000       4.297200       116.9328 
 163   0.0000       4.329141       117.8019 
 164   0.0000       4.346688       118.2794 
 165   0.0000       4.362044       118.6972 
 166   0.0000       4.381683       119.2317 
 167   0.0000       4.392460       119.5249 
 168   0.0000       4.409747       119.9953 
 169   0.0000       4.497258       122.3766 
 170   0.0000       4.532806       123.3439 
 171   0.0000       4.571352       124.3928 
 172   0.0000       4.589741       124.8932 
 173   0.0000       4.617674       125.6533 
 174   0.0000       4.639314       126.2422 
 175   0.0000       4.668408       127.0338 
 176   0.0000       4.668993       127.0498 
 177   0.0000       4.821529       131.2005 
 178   0.0000       4.845734       131.8591 
 179   0.0000       4.940516       134.4383 
 180   0.0000       5.013373       136.4208 
 181   0.0000       5.042097       137.2024 
 182   0.0000       5.109234       139.0293 
 183   0.0000       5.147213       140.0628 
 184   0.0000       5.207746       141.7100 
 185   0.0000       5.247099       142.7808 
 186   0.0000       5.286282       143.8470 
 187   0.0000       5.295840       144.1071 
 188   0.0000       5.348668       145.5446 
 189   0.0000       5.421842       147.5358 
 190   0.0000       5.448053       148.2491 
 191   0.0000       5.478747       149.0843 
 192   0.0000       5.485858       149.2778 
 193   0.0000       5.531235       150.5126 
 194   0.0000       5.558196       151.2462 
 195   0.0000       5.568808       151.5350 
 196   0.0000       5.590848       152.1347 
 197   0.0000       5.601258       152.4180 
 198   0.0000       5.626305       153.0995 
 199   0.0000       5.655452       153.8927 
 200   0.0000       5.690255       154.8397 
 201   0.0000       5.716550       155.5552 
 202   0.0000       5.797163       157.7488 
 203   0.0000       5.830431       158.6541 
 204   0.0000       5.978276       162.6771 
 205   0.0000       5.986326       162.8962 
 206   0.0000       6.088187       165.6680 
 207   0.0000       6.147942       167.2940 
 208   0.0000       6.189526       168.4256 
 209   0.0000       6.194907       168.5720 
 210   0.0000       6.214644       169.1091 
 211   0.0000       6.285926       171.0487 
 212   0.0000       6.505663       177.0281 
 213   0.0000       6.527194       177.6140 
 214   0.0000       6.620244       180.1460 
 215   0.0000       6.699300       182.2972 
 216   0.0000       6.744766       183.5344 
 217   0.0000       6.805853       185.1967 
 218   0.0000       6.895108       187.6254 
 219   0.0000       7.001081       190.5091 
 220   0.0000       7.209622       196.1838 
 221   0.0000       7.221213       196.4992 
 222   0.0000       7.344864       199.8639 
 223   0.0000       7.383506       200.9154 
 224   0.0000       7.442485       202.5203 
 225   0.0000       7.544025       205.2834 
 226   0.0000       7.618810       207.3184 
 227   0.0000       7.809439       212.5056 
 228   0.0000       7.928957       215.7579 
 229   0.0000       9.726500       264.6715 
 230   0.0000      11.647310       316.9394 
 231   0.0000      13.273962       361.2029 
 232   0.0000      13.939811       379.3215 
 233   0.0000      14.274458       388.4277 

                    ********************************
                    * MULLIKEN POPULATION ANALYSIS *
                    ********************************

-----------------------
MULLIKEN ATOMIC CHARGES
-----------------------
   0 C :   -0.266457
   1 C :    0.405066
   2 O :   -0.311419
   3 C :   -0.055493
   4 O :   -0.418622
   5 H :    0.108844
   6 H :    0.093966
   7 H :    0.093950
   8 H :    0.118480
   9 H :    0.115830
  10 H :    0.115855
Sum of atomic charges:    0.0000000

--------------------------------
MULLIKEN REDUCED ORBITAL CHARGES
--------------------------------
  0 C s       :     3.255694  s :     3.255694
      pz      :     1.035352  p :     2.950607
      px      :     0.916719
      py      :     0.998536
      dz2     :     0.011971  d :     0.055710
      dxz     :     0.012557
      dyz     :     0.005141
      dx2y2   :     0.016877
      dxy     :     0.009165
      f0      :     0.000110  f :     0.004446
      f+1     :     0.001242
      f-1     :     0.000760
      f+2     :     0.000133
      f-2     :     0.000115
      f+3     :     0.000518
      f-3     :     0.001568
  1 C s       :     3.097886  s :     3.097886
      pz      :     0.624423  p :     2.173205
      px      :     0.794617
      py      :     0.754165
      dz2     :     0.012008  d :     0.297584
      dxz     :     0.028054
      dyz     :     0.076985
      dx2y2   :     0.067402
      dxy     :     0.113135
      f0      :     0.003322  f :     0.026259
      f+1     :     0.001288
      f-1     :     0.001207
      f+2     :     0.002844
      f-2     :     0.003174
      f+3     :     0.008519
      f-3     :     0.005906
  2 O s       :     3.706340  s :     3.706340
      pz      :     1.780494  p :     4.566932
      px      :     1.194510
      py      :     1.591928
      dz2     :     0.004390  d :     0.035914
      dxz     :     0.004216
      dyz     :     0.003516
      dx2y2   :     0.006115
      dxy     :     0.017678
      f0      :     0.000243  f :     0.002232
      f+1     :     0.000482
      f-1     :     0.000209
      f+2     :     0.000068
      f-2     :     0.000199
      f+3     :     0.000429
      f-3     :     0.000602
  3 C s       :     3.214141  s :     3.214141
      pz      :     1.027440  p :     2.727931
      px      :     0.715207
      py      :     0.985284
      dz2     :     0.016630  d :     0.104077
      dxz     :     0.017960
      dyz     :     0.016877
      dx2y2   :     0.023326
      dxy     :     0.029284
      f0      :     0.001005  f :     0.009343
      f+1     :     0.000976
      f-1     :     0.001707
      f+2     :     0.000718
      f-2     :     0.000923
      f+3     :     0.002096
      f-3     :     0.001918
  4 O s       :     3.749773  s :     3.749773
      pz      :     1.445414  p :     4.630864
      px      :     1.816549
      py      :     1.368902
      dz2     :     0.003427  d :     0.035566
      dxz     :     0.000213
      dyz     :     0.012409
      dx2y2   :     0.012377
      dxy     :     0.007141
      f0      :     0.000205  f :     0.002418
      f+1     :     0.000025
      f-1     :     0.000339
      f+2     :     0.000478
      f-2     :     0.000041
      f+3     :     0.000561
      f-3     :     0.000768
  5 H s       :     0.864101  s :     0.864101
      pz      :     0.009828  p :     0.025026
      px      :     0.005680
      py      :     0.009519
      dz2     :     0.000220  d :     0.002029
      dxz     :     0.000198
      dyz     :     0.000506
      dx2y2   :     0.000377
      dxy     :     0.000728
  6 H s       :     0.879204  s :     0.879204
      pz      :     0.010115  p :     0.024767
      px      :     0.004291
      py      :     0.010362
      dz2     :     0.000582  d :     0.002063
      dxz     :     0.000342
      dyz     :     0.000746
      dx2y2   :     0.000202
      dxy     :     0.000191
  7 H s       :     0.879220  s :     0.879220
      pz      :     0.010116  p :     0.024767
      px      :     0.004291
      py      :     0.010360
      dz2     :     0.000582  d :     0.002063
      dxz     :     0.000342
      dyz     :     0.000746
      dx2y2   :     0.000201
      dxy     :     0.000191
  8 H s       :     0.850951  s :     0.850951
      pz      :     0.008028  p :     0.028287
      px      :     0.007823
      py      :     0.012436
      dz2     :     0.000210  d :     0.002281
      dxz     :     0.000032
      dyz     :     0.000617
      dx2y2   :     0.000610
      dxy     :     0.000812
  9 H s       :     0.852159  s :     0.852159
      pz      :     0.010133  p :     0.029708
      px      :     0.011165
      py      :     0.008409
      dz2     :     0.000640  d :     0.002304
      dxz     :     0.000657
      dyz     :     0.000424
      dx2y2   :     0.000372
      dxy     :     0.000210
 10 H s       :     0.852136  s :     0.852136
      pz      :     0.010133  p :     0.029705
      px      :     0.011164
      py      :     0.008408
      dz2     :     0.000640  d :     0.002304
      dxz     :     0.000657
      dyz     :     0.000424
      dx2y2   :     0.000372
      dxy     :     0.000210


                     *******************************
                     * LOEWDIN POPULATION ANALYSIS *
                     *******************************

----------------------
LOEWDIN ATOMIC CHARGES
----------------------
   0 C :    0.114946
   1 C :   -0.429475
   2 O :    0.294854
   3 C :    0.058471
   4 O :    0.097144
   5 H :   -0.031688
   6 H :   -0.032106
   7 H :   -0.032104
   8 H :   -0.019139
   9 H :   -0.010455
  10 H :   -0.010449

-------------------------------
LOEWDIN REDUCED ORBITAL CHARGES
-------------------------------
  0 C s       :     2.667892  s :     2.667892
      pz      :     0.993040  p :     2.914711
      px      :     0.943177
      py      :     0.978494
      dz2     :     0.053360  d :     0.274291
      dxz     :     0.063657
      dyz     :     0.021382
      dx2y2   :     0.080224
      dxy     :     0.055668
      f0      :     0.001135  f :     0.028160
      f+1     :     0.005364
      f-1     :     0.004680
      f+2     :     0.001931
      f-2     :     0.003857
      f+3     :     0.003938
      f-3     :     0.007255
  1 C s       :     2.757576  s :     2.757576
      pz      :     0.634932  p :     2.534722
      px      :     0.911753
      py      :     0.988037
      dz2     :     0.063347  d :     0.975522
      dxz     :     0.092551
      dyz     :     0.199696
      dx2y2   :     0.252133
      dxy     :     0.367795
      f0      :     0.011155  f :     0.161655
      f+1     :     0.006657
      f-1     :     0.012270
      f+2     :     0.019095
      f-2     :     0.018798
      f+3     :     0.060642
      f-3     :     0.033037
  2 O s       :     3.232965  s :     3.232965
      pz      :     1.606252  p :     4.367832
      px      :     1.214591
      py      :     1.546989
      dz2     :     0.010219  d :     0.098718
      dxz     :     0.014737
      dyz     :     0.005811
      dx2y2   :     0.027721
      dxy     :     0.040231
      f0      :     0.000475  f :     0.005631
      f+1     :     0.000659
      f-1     :     0.000271
      f+2     :     0.000178
      f-2     :     0.000731
      f+3     :     0.001870
      f-3     :     0.001447
  3 C s       :     2.688067  s :     2.688067
      pz      :     1.023917  p :     2.762631
      px      :     0.752054
      py      :     0.986659
      dz2     :     0.068307  d :     0.429620
      dxz     :     0.068525
      dyz     :     0.086621
      dx2y2   :     0.072039
      dxy     :     0.134128
      f0      :     0.005790  f :     0.061211
      f+1     :     0.008570
      f-1     :     0.005725
      f+2     :     0.008264
      f-2     :     0.005249
      f+3     :     0.013739
      f-3     :     0.013875
  4 O s       :     3.378566  s :     3.378566
      pz      :     1.341888  p :     4.454476
      px      :     1.634931
      py      :     1.477657
      dz2     :     0.008125  d :     0.064704
      dxz     :     0.000243
      dyz     :     0.011756
      dx2y2   :     0.026612
      dxy     :     0.017969
      f0      :     0.000289  f :     0.005110
      f+1     :     0.000115
      f-1     :     0.000761
      f+2     :     0.000578
      f-2     :     0.000049
      f+3     :     0.001671
      f-3     :     0.001647
  5 H s       :     0.860461  s :     0.860461
      pz      :     0.041011  p :     0.144108
      px      :     0.043286
      py      :     0.059811
      dz2     :     0.002509  d :     0.027119
      dxz     :     0.003284
      dyz     :     0.006683
      dx2y2   :     0.007075
      dxy     :     0.007568
  6 H s       :     0.860455  s :     0.860455
      pz      :     0.065678  p :     0.144753
      px      :     0.026721
      py      :     0.052355
      dz2     :     0.008884  d :     0.026898
      dxz     :     0.004477
      dyz     :     0.007826
      dx2y2   :     0.002880
      dxy     :     0.002831
  7 H s       :     0.860458  s :     0.860458
      pz      :     0.065686  p :     0.144749
      px      :     0.026722
      py      :     0.052340
      dz2     :     0.008884  d :     0.026897
      dxz     :     0.004479
      dyz     :     0.007827
      dx2y2   :     0.002878
      dxy     :     0.002829
  8 H s       :     0.840786  s :     0.840786
      pz      :     0.040364  p :     0.150248
      px      :     0.035316
      py      :     0.074569
      dz2     :     0.002343  d :     0.028105
      dxz     :     0.000227
      dyz     :     0.009299
      dx2y2   :     0.007367
      dxy     :     0.008869
  9 H s       :     0.829652  s :     0.829652
      pz      :     0.061827  p :     0.152797
      px      :     0.049307
      py      :     0.041663
      dz2     :     0.008870  d :     0.028006
      dxz     :     0.006949
      dyz     :     0.005638
      dx2y2   :     0.003612
      dxy     :     0.002938
 10 H s       :     0.829651  s :     0.829651
      pz      :     0.061813  p :     0.152792
      px      :     0.049308
      py      :     0.041672
      dz2     :     0.008869  d :     0.028006
      dxz     :     0.006946
      dyz     :     0.005634
      dx2y2   :     0.003616
      dxy     :     0.002941


                      *****************************
                      * MAYER POPULATION ANALYSIS *
                      *****************************

  NA   - Mulliken gross atomic population
  ZA   - Total nuclear charge
  QA   - Mulliken gross atomic charge
  VA   - Mayer's total valence
  BVA  - Mayer's bonded valence
  FA   - Mayer's free valence

  ATOM       NA         ZA         QA         VA         BVA        FA
  0 C      6.2665     6.0000    -0.2665     3.8431     3.8431    -0.0000
  1 C      5.5949     6.0000     0.4051     4.1588     4.1588    -0.0000
  2 O      8.3114     8.0000    -0.3114     2.0917     2.0917    -0.0000
  3 C      6.0555     6.0000    -0.0555     3.8587     3.8587     0.0000
  4 O      8.4186     8.0000    -0.4186     2.0989     2.0989    -0.0000
  5 H      0.8912     1.0000     0.1088     0.9765     0.9765     0.0000
  6 H      0.9060     1.0000     0.0940     0.9777     0.9777     0.0000
  7 H      0.9061     1.0000     0.0939     0.9777     0.9777     0.0000
  8 H      0.8815     1.0000     0.1185     0.9871     0.9871    -0.0000
  9 H      0.8842     1.0000     0.1158     0.9896     0.9896     0.0000
 10 H      0.8841     1.0000     0.1159     0.9896     0.9896    -0.0000

  Mayer bond orders larger than 0.1
B(  0-C ,  1-C ) :   0.9377 B(  0-C ,  8-H ) :   0.9751 B(  0-C ,  9-H ) :   0.9700 
B(  0-C , 10-H ) :   0.9700 B(  1-C ,  2-O ) :   1.1767 B(  1-C ,  4-O ) :   2.0315 
B(  2-O ,  3-C ) :   0.9071 B(  3-C ,  5-H ) :   0.9796 B(  3-C ,  6-H ) :   0.9734 
B(  3-C ,  7-H ) :   0.9734 

-------
TIMINGS
-------

Total SCF time: 0 days 0 hours 0 min 7 sec 

Total time                  ....       7.246 sec
Sum of individual times     ....       7.026 sec  ( 97.0%)

Fock matrix formation       ....       6.578 sec  ( 90.8%)
Diagonalization             ....       0.058 sec  (  0.8%)
Density matrix formation    ....       0.008 sec  (  0.1%)
Population analysis         ....       0.025 sec  (  0.3%)
Initial guess               ....       0.205 sec  (  2.8%)
Orbital Transformation      ....       0.000 sec  (  0.0%)
Orbital Orthonormalization  ....       0.000 sec  (  0.0%)
DIIS solution               ....       0.000 sec  (  0.0%)
SOSCF solution              ....       0.041 sec  (  0.6%)


           ************************************************************
           *        Program running with 8 parallel MPI-processes     *
           *              working on a common directory               *
           ************************************************************


------------------------------------------------------------------------------- 
                              ORCA-MATRIX DRIVEN CI                            
------------------------------------------------------------------------------- 


Wavefunction type
-----------------
Correlation treatment                      ...      CCSD     
Single excitations                         ... ON
Orbital optimization                       ... OFF
Calculation of Z vector                    ... OFF
Calculation of Brueckner orbitals          ... OFF
Perturbative triple excitations            ... ON
Calculation of F12 correction              ... OFF
Frozen core treatment                      ... chemical core (10 el)
Reference Wavefunction                     ... RHF
  Internal Orbitals:     5 ...   19 ( 15 MO's/ 30 electrons)
  Virtual  Orbitals:    20 ...  233 (214 MO's              )
Number of AO's                             ...    234
Number of electrons                        ...     40
Number of correlated electrons             ...     30

Algorithmic settings
--------------------
Integral transformation                    ... All integrals via the RI transformation
K(C) Formation                             ... RI-DLPNO
   PNO-Integral Storage                    ... ON DISK
   PNO occupation number cut-off           ... 1.000e-07
   Singles PNO occupation number cut-off   ... 3.000e-09
   PNO Mulliken prescreening cut-off       ... 1.000e-03
   Domain cut-off (Mulliken population)    ... 1.000e-03
   PNO Normalization                       ...    1
Maximum number of iterations               ...        50
Convergence tolerance (max. residuum)      ... 1.000e-05
Level shift for amplitude update           ... 2.000e-01
Maximum number of DIIS vectors             ...         7
DIIS turned on at iteration                ...         0
Damping before turning on DIIS             ...     0.500
Damping after turning on DIIS              ...     0.000
Pair specific amplitude update             ... OFF
Natural orbital iterations                 ... OFF
Perturbative natural orbital generation    ... OFF
Printlevel                                 ... 2

Singles Fock matrix elements calculated using PNOs.

Memory handling:
----------------
Maximum memory for working arrays          ...   8000 MB
Data storage in matrix containers          ... UNCOMPRESSED
Data type for integral storage             ... DOUBLE
In-Core Storage of quantities:
   Amplitudes+Sigma Vector      ... NO
   J+K operators                ... NO
   DIIS vectors                 ... NO
   3-external integrals         ... NO
   4-external integrals         ... NO

Localization treatment:
-----------------------
Localization option                        ...    6
Localization threshhold                    ... -1.0e+00
Using relative localization threshhold     ... 1.0e-08
Neglect threshold for strong pairs         ... 1.000e-05 Eh
Prescreening threshold for very weak pairs ... 1.000e-07 Eh

Initializing the integral package          ... done
Localizing the valence orbitals
------------------------------------------------------------------------------
                           ORCA ORBITAL LOCALIZATION
------------------------------------------------------------------------------

Input orbitals are from                  ... Me_acetate_Z.proc0.gbw
Output orbitals are to                   ... Me_acetate_Z.proc0.loc
Max. number of iterations                ... 128
Localizations seeded randomly            ... off
Convergence tolerance                    ... 1.000e-06
Using relative localization threshhold   ... 1.000e-08
Treshold for strong local MOs            ... 9.500e-01
Treshold for bond MOs                    ... 8.500e-01
Operator                                 ... 0
Orbital range for localization           ... 5 to 19
Localization criterion                   ... FOSTER-BOYS (AUGMENTED HESSIAN)
Doing the dipole integrals     ... o.k.
Initial value of the localization sum :   117.087459
ITERATION   0 : L=  144.9947245421 DL=  2.79e+01 (AVERGE_DL)=    0.5155419256 
ITERATION   1 : L=  147.4455263787 DL=  2.45e+00 (AVERGE_DL)=    0.1527775176 
ITERATION   2 : L=  147.5974330995 DL=  1.52e-01 (AVERGE_DL)=    0.0380359130 
ITERATION   3 : L=  147.6231588769 DL=  2.57e-02 (AVERGE_DL)=    0.0156527123 
ITERATION   4 : L=  147.6305443079 DL=  7.39e-03 (AVERGE_DL)=    0.0083867418 
ITERATION   5 : L=  147.6325201790 DL=  1.98e-03 (AVERGE_DL)=    0.0043379511 
ITERATION   6 : L=  147.6332220587 DL=  7.02e-04 (AVERGE_DL)=    0.0025854533 
ITERATION   7 : L=  147.6335703936 DL=  3.48e-04 (AVERGE_DL)=    0.0018213936 
ITERATION   8 : L=  147.6337725556 DL=  2.02e-04 (AVERGE_DL)=    0.0013875708 
ITERATION   9 : L=  147.6338949877 DL=  1.22e-04 (AVERGE_DL)=    0.0010798240 
ITERATION  10 : L=  147.6339698462 DL=  7.49e-05 (AVERGE_DL)=    0.0008443567 
ITERATION  11 : L=  147.6340157334 DL=  4.59e-05 (AVERGE_DL)=    0.0006610753 
ITERATION  12 : L=  147.6340438946 DL=  2.82e-05 (AVERGE_DL)=    0.0005178827 
ITERATION  13 : L=  147.6340611905 DL=  1.73e-05 (AVERGE_DL)=    0.0004058608 
ITERATION  14 : L=  147.6340718191 DL=  1.06e-05 (AVERGE_DL)=    0.0003181572 
ITERATION  15 : L=  147.6340783537 DL=  6.53e-06 (AVERGE_DL)=    0.0002494698 
ITERATION  16 : L=  147.6340823720 DL=  4.02e-06 (AVERGE_DL)=    0.0001956242 
ITERATION  17 : L=  147.6340848438 DL=  2.47e-06 (AVERGE_DL)=    0.0001534328 
ITERATION  18 : L=  147.6340863646 DL=  1.52e-06 (AVERGE_DL)=    0.0001203483 
ITERATION  19 : L=  147.6340873001 DL=  9.35e-07 (AVERGE_DL)=    0.0000943900 
LOCALIZATION SUM CONVERGED

------------------------------------------------------
AUGMENTED HESSIAN OPTIMIZATION OF FOSTER-BOYS ORBITALS
------------------------------------------------------

Spin operator:           0
Orbital window:          5 to 19
Number of iterations:    128
Gradient tolerance:      1.000e-06
Number of pairs:         105
Davidson threshold:      2000
Diagonalization method:  LAPACK
Iter:    0   L: 147.6340873001   Grad. norm: 1.144002e-03
   *** Likely close to a maximum now. ***
       Augmented Hessian eigenvalues:  3.00e-06 -2.42e-01 -1.35e+00 -1.87e+00 ... 
Iter:    1   L: 147.6340887998   Grad. norm: 8.977984e-06
Iter:    2   L: 147.6340887998   Grad. norm: 4.572410e-12
LOCALIZATION HAS CONVERGED.

Eigenvalues of the Hessian:
  0 -2.419e-01
  1 -1.350e+00
  2 -1.872e+00
  3 -2.223e+00
  4 -2.924e+00
  5 -4.789e+00
  6 -5.008e+00
  7 -5.191e+00
  8 -5.914e+00
  9 -6.744e+00
    ...


------------------------------------------------------------------------------- 
                    LOCALIZED MOLECULAR ORBITAL COMPOSITIONS                   
------------------------------------------------------------------------------- 

The Mulliken populations for each LMO on each atom are computed
The LMO`s will be ordered according to atom index and type
  (A) Strongly localized MO`s have populations of >=0.950 on one atom
  (B) Two center bond orbitals have populations of >=0.850 on two atoms
  (C) Other MO`s are considered to be `delocalized`

FOUND  -   1 strongly local MO`s
       -  14 two center bond MO`s
       -   0 significantly delocalized MO`s

Rather strongly localized orbitals:
MO   5:   4O  -   0.951877
Bond-like localized orbitals:
MO  19:  10H  -   0.456071  and   0C  -   0.558987
MO  18:   9H  -   0.456087  and   0C  -   0.558958
MO  17:   8H  -   0.454661  and   0C  -   0.571711
MO  16:   7H  -   0.471943  and   3C  -   0.558347
MO  15:   6H  -   0.471933  and   3C  -   0.558357
MO  14:   5H  -   0.463141  and   3C  -   0.561985
MO  13:   4O  -   0.663815  and   1C  -   0.351244
MO  12:   4O  -   0.949844  and   1C  -   0.048849
MO  11:   4O  -   0.663770  and   1C  -   0.351279
MO  10:   3C  -   0.330629  and   2O  -   0.678403
MO   9:   2O  -   0.650855  and   1C  -   0.371075
MO   8:   2O  -   0.946782  and   1C  -   0.045539
MO   7:   2O  -   0.946744  and   1C  -   0.045573
MO   6:   1C  -   0.569113  and   0C  -   0.467296
Localized MO's were stored in: Me_acetate_Z.proc0.loc

Localizing the core orbitals
------------------------------------------------------------------------------
                           ORCA ORBITAL LOCALIZATION
------------------------------------------------------------------------------

Input orbitals are from                  ... Me_acetate_Z.proc0.loc
Output orbitals are to                   ... Me_acetate_Z.proc0.loc
Max. number of iterations                ... 128
Localizations seeded randomly            ... off
Convergence tolerance                    ... 1.000e-06
Using relative localization threshhold   ... 1.000e-08
Treshold for strong local MOs            ... 9.500e-01
Treshold for bond MOs                    ... 8.500e-01
Operator                                 ... 0
Orbital range for localization           ... 0 to 4
Localization criterion                   ... FOSTER-BOYS (AUGMENTED HESSIAN)
Doing the dipole integrals     ... o.k.
Initial value of the localization sum :    36.226728
ITERATION   0 : L=   36.2267345185 DL=  6.38e-06 (AVERGE_DL)=    0.0007988474 
ITERATION   1 : L=   36.2267345185 DL=  0.00e+00 (AVERGE_DL)=    0.0000000000 
LOCALIZATION SUM CONVERGED

------------------------------------------------------
AUGMENTED HESSIAN OPTIMIZATION OF FOSTER-BOYS ORBITALS
------------------------------------------------------

Spin operator:           0
Orbital window:          0 to 4
Number of iterations:    128
Gradient tolerance:      1.000e-06
Number of pairs:         10
Davidson threshold:      2000
Diagonalization method:  LAPACK
Iter:    0   L: 36.2267345185   Grad. norm: 4.683603e-06
   *** Likely close to a maximum now. ***
       Augmented Hessian eigenvalues:  4.98e-13 -2.11e+01 -2.62e+01 -2.97e+01 ... 
Iter:    1   L: 36.2267345185   Grad. norm: 6.904304e-19
LOCALIZATION HAS CONVERGED.

Eigenvalues of the Hessian:
  0 -2.107e+01
  1 -2.616e+01
  2 -2.966e+01
  3 -3.254e+01
  4 -7.293e+01
  5 -8.010e+01
  6 -8.050e+01
  7 -8.353e+01
  8 -1.012e+02
  9 -1.964e+02


------------------------------------------------------------------------------- 
                    LOCALIZED MOLECULAR ORBITAL COMPOSITIONS                   
------------------------------------------------------------------------------- 

The Mulliken populations for each LMO on each atom are computed
The LMO`s will be ordered according to atom index and type
  (A) Strongly localized MO`s have populations of >=0.950 on one atom
  (B) Two center bond orbitals have populations of >=0.850 on two atoms
  (C) Other MO`s are considered to be `delocalized`

FOUND  -   5 strongly local MO`s
       -   0 two center bond MO`s
       -   0 significantly delocalized MO`s

Rather strongly localized orbitals:
MO   4:   4O  -   0.999610
MO   3:   3C  -   1.000709
MO   2:   2O  -   0.999623
MO   1:   1C  -   1.000204
MO   0:   0C  -   1.001103
Localized MO's were stored in: Me_acetate_Z.proc0.loc

Warning: internal orbitals are localized - no re-canonicalization of internal orbitals

--------------------------
CLOSED-SHELL FOCK OPERATOR
--------------------------

RI-JK section for the Fock operator:
  RHF full Fock operator         ... done
  RHF frozen core Fock operator  ... done
Time needed for Fock operator              ...            0.857 sec
Reference energy                           ...   -266.934423725

--------------
DLPNO SETTINGS (2015 fully linear scaling implementation)
--------------

TCutMKN:           1.000e-03
TCutPAO:           1.000e-03
TCutPNO:           1.000e-07
TCutPNOSingles:    3.000e-09
TCutEN:            9.700e-01
TCutPAOExt:        1.000e-01
TCutPairs:         1.000e-05
TCutPre:           1.000e-07
TCutOSV:           1.000e-06
TCutDOij:          1.000e-05
TCutDO:            5.000e-03
TCutC:             1.000e-04
TCutCPAO:          1.000e-03
TCutCMO:           1.000e-03
TScaleDOMP2PreScr: 2.000e+00
TScaleMKNMP2PreScr:1.000e+01
TScalePNOMP2PreScr:1.000e+00
PAO overlap thresh 1.000e-08
Using PNOs for Singles Fock computation
Use new domains
Use fully linear algorithm
TCutTNO:           1.000e-09
TCutMP2Pairs:      1.000e-06
TCutDOStrong:      2.000e-03
TCutMKNStrong:     1.000e-02
TCutMKNWeak:       1.000e-01
TCutDOWeak:        4.000e-03
NTCutTNO:          1

--------------------------
Calculating differential overlap integrals ... ok
--------------------------
ELECTRON PAIR PRESCREENING
--------------------------

Dipole-based pair screening          .... used

   TCutDOij = 1.000000e-05
   TCutPre  = 1.000000e-07
   .... Finished loop over pairs
Total time spent in the prescreening                  ...     0.000 sec
sum of pair energies estimated for screened out pairs ...       0.000000000000 Eh
Thresholds for map construction and integral transformation for crude MP2:
   TCutMKN                    ...     1.0e-02
   TCutDO                     ...     1.0e-02
   TCutPairs                  ...     1.0e-05
   TCutPNO_CrudeMP2           ...     1.0e-07
   TCutPNOSingles_CrudeMP2    ...     3.0e-09
--------------------------------
LOCAL RI TRANSFORMATION (IAVPAO)
--------------------------------

Orbital window:       5 to 19
Number of PAOs:     234
Basis functions:    234 (86 shells)
Aux. functions:     585 (175 shells)

Processing maps (0.0 sec)
Average map sizes:
   Aux shells -> MOs              15.0
   Aux shells -> PAOs            234.0
   MOs        -> AO shells        86.0
   PAOs       -> AO shells        86.0

Calculating integrals (0.4 sec, 15.673 MB)
Sorting integrals (0.0 sec, 15.666 MB)
Total time for the integral transformation: 0.4 sec
--------------------------------
INITIAL GUESS AND PNO GENERATION
--------------------------------

PNO truncation parameters                   .... 
    PAOOverlapThresh   =        1.000e-08

    TCutPairs          =        1.000e-05
    TCutPNO            =        1.000e-07
    TCutPNOSingles     =        3.000e-09
    TCutMP2Pairs       =        1.000e-06
    TCutMKN            =        1.000e-02
    TCutDO             =        1.000e-02

Pair selection                          .... not used
Type of local MP2 treatment                 .... semi-local MP2
Strategy for PNO selection                  .... occupation number selection
Pair density normalization                  .... MP2 norm
Spin component scaling                      .... not used

   .... Finished loop over pairs
Making pair pair interaction lists          ... done

                       ===========================
                        120 OF  120 PAIRS ARE KEPT CCSD PAIRS
                          0 OF  120 PAIRS ARE KEPT MP2 PAIRS FOR (T)
                          0 OF  120 PAIRS ARE SKIPPED
                       ===========================

Total time spent in the initial guess                 ...     0.550 sec
SL-MP2 correlation energy (all non-screened pairs)    ...      -0.937316540599 Eh

Initial PNO correlation energy                        ...      -0.936541556698 Eh
sum of pair energies prescreened and skipped MP2 pairs...       0.000000000000 Eh
sum of pair energies of crude MP2 skipped pairs only  ...       0.000000000000 Eh
sum of MP2 pair energies for pairs that were not kept ...       0.000000000000 Eh
sum of PNO error estimates for the kept pairs         ...      -0.000774983901 Eh
                                                          --------------------
sum of all corrections                                         -0.000774983901
Initial total correlation energy                               -0.937316540599
Thresholds for map construction and integral transformation for fine MP2 and CCSD(T) calculation:
   TCutMKN   ...     1.0e-03
   TCutDO    ...     5.0e-03
   TCutPairs ...     1.0e-05
   TCutCMO   ...     1.0e-03
   TCutCPAO  ...     1.0e-03

Thresholds for map construction and integral transformation for strong Triples:
   TCutMKN   ...     1.0e-02
   TCutDO    ...     1.0e-02
   TCutCMO   ...     1.0e-03
   TCutCPAO  ...     1.0e-03

Thresholds for map construction and integral transformation for weak Triples:
   TCutMKN   ...     1.0e-01
   TCutDO    ...     2.0e-02
   TCutCMO   ...     1.0e-03
   TCutCPAO  ...     1.0e-03

--------------------------------
LOCAL RI TRANSFORMATION (IAVPAO)
--------------------------------

Orbital window:       5 to 19
Number of PAOs:     234
Basis functions:    234 (86 shells)
Aux. functions:     585 (175 shells)

Processing maps (0.0 sec)
Average map sizes:
   Aux shells -> MOs              15.0
   Aux shells -> PAOs            234.0
   MOs        -> AO shells        86.0
   PAOs       -> AO shells        86.0

Calculating integrals (0.4 sec, 15.673 MB)
Sorting integrals (0.0 sec, 15.666 MB)
Total time for the integral transformation: 0.4 sec
--------------------------------
INITIAL GUESS AND PNO GENERATION
--------------------------------

PNO truncation parameters                   .... 
    ScaleTCutPNO       =        1.000e-02
    PAOOverlapThresh   =        1.000e-08

    TCutPairs          =        1.000e-05
    TCutPNO            =        1.000e-07
    TCutPNOSingles     =        3.000e-09
    TCutMP2Pairs       =        1.000e-06
    TCutMKN            =        1.000e-03
    TCutDO             =        5.000e-03

Pair selection                          .... not used
Type of local MP2 treatment                 .... full local PMP2
Strategy for PNO selection                  .... occupation number selection
Pair density normalization                  .... MP2 norm
Spin component scaling                      .... not used

PASS-1: Formation of initial guess LMP2 amplitudes
Initial amplitudes guess done. Entering LMP2 iteration loop:
   Max. no of iterations          ...  50
   Energy convergence tolerance   ...    1.0e-07
   Residual convergence tolerance ...    5.0e-07
   Fock matrix cutoff             ...    1.0e-05 Eh
   DIIS convergence acceleration parameters:
        Max # vectors in DIIS     ... 7
        Start iteration of DIIS   ... 0
        Levelshift                ... 2.000e-01
        Damping factor 1          ... 5.000e-01
        Damping factor 2          ... 1.000e+00
   L-MP2 PNO cut-off              ...   1.0e-09
   L-MP2 PNO cut-off (core)       ...   1.0e-11
                           *** Turning on DIIS ***
LMP2-Iter=   0:  ELMP2= -0.959774876812  DE=   2.2e-02 RMAX=   1.9e-02
LMP2-Iter=   1:  ELMP2= -0.970748303433  DE=   1.1e-02 RMAX=   8.4e-03
LMP2-Iter=   2:  ELMP2= -0.972750524514  DE=   2.0e-03 RMAX=   3.3e-03
LMP2-Iter=   3:  ELMP2= -0.973032824696  DE=   2.8e-04 RMAX=   1.1e-03
LMP2-Iter=   4:  ELMP2= -0.973035772916  DE=   2.9e-06 RMAX=   3.2e-04
LMP2-Iter=   5:  ELMP2= -0.973030217068  DE=   5.6e-06 RMAX=   8.0e-05
LMP2-Iter=   6:  ELMP2= -0.973028867408  DE=   1.3e-06 RMAX=   1.3e-05
LMP2-Iter=   7:  ELMP2= -0.973028810122  DE=   5.7e-08 RMAX=   1.9e-06
LMP2-Iter=   8:  ELMP2= -0.973028840190  DE=   3.0e-08 RMAX=   2.0e-07
LMP2-Iter=   9:  ELMP2= -0.973028840098  DE=   9.2e-11 RMAX=   6.0e-08 => CONVERGED
PASS-2: Formation of Pair natural orbitals
   .... Finished loop over pairs

 PNO Occupation Number Statistics: 
  | Av. % of trace(Dij) retained        ...  99.663552129784
  | sigma^2 in % of trace(Dij) retained ...   2.60e-01
  | Av. % of trace(Di) retained         ...  99.999752354945
  | sigma^2 in % of trace(Di) retained  ...   7.60e-09
 Distributions of % trace(Dij) recovered:
  |       >= 99.9  ...    47 ( 39.2 % of all pairs)
  |   [90.0, 99.0) ...     9 (  7.5 % of all pairs)
  |   [99.0, 99.9) ...    64 ( 53.3 % of all pairs)
 Distributions of % trace(Di) recovered :
  |       >= 99.9  ...    15 (100.0 % of all I-pairs )

Making pair pair interaction lists          ... done

                       ===========================
                        120 OF  120 PAIRS ARE KEPT
                       ===========================

Total time spent in the initial guess                 ...     4.655 sec
L-MP2 correlation energy (all non-screened pairs)     ...      -0.973028840098 Eh
L-MP2 PNO error correction                            ...      -0.000012567470 Eh
                                                          --------------------
Initial total L-MP2 energy (non-screened pairs)       ...      -0.973041407569 Eh

Initial PNO correlation energy                        ...      -0.972296739491 Eh
sum of pair energies estimated for screened out pairs ...       0.000000000000 Eh
sum of MP2 pair energies for pairs that were not kept ...       0.000000000000 Eh
sum of PNO error estimates for the kept pairs         ...      -0.000744668078 Eh
                                                          --------------------
sum of all corrections                                         -0.000744668078
Initial total correlation energy                               -0.973041407569
Thresholds for map construction and integral transformation for fine MP2 and CCSD(T) calculation:
   TCutMKN   ...     1.0e-03
   TCutDO    ...     5.0e-03
   TCutPairs ...     1.0e-05
   TCutCMO   ...     1.0e-03
   TCutCPAO  ...     1.0e-03

Time for aux screen maps:            0.002
Time for maps after fine MP2:            0.006
-----------------------------
LOCAL RI TRANSFORMATION (IJV)
-----------------------------

Orbital window:       5 to 19
Basis functions:    234 (86 shells)
Aux. functions:     585 (175 shells)

Processing maps (0.0 sec)
Average map sizes:
   Aux shells -> MOs(i)           15.0
   Aux shells -> MOs(j)           15.0
   MOs        -> AO shells        86.0

Calculating integrals (0.4 sec, 1.011 MB)
Sorting integrals (0.0 sec, 1.004 MB)
Total time for the integral transformation: 0.4 sec
--------------------------------
LOCAL RI TRANSFORMATION (VABPAO)
--------------------------------

Number of PAOs:     234
Basis functions:    234 (86 shells)
Aux. functions:     585 (175 shells)

Processing maps (0.0 sec)
Average map sizes:
   Aux shells -> PAOs            234.0
   PAOs       -> AO shells        86.0

Calculating integrals (0.7 sec, 459.543 MB)
Finished


-------------------------------------
Pair Pair Term precalculation with     
RI-(ij|mn) and (im|jn) transformation  
ON THE FLY                             
-------------------------------------

   IBatch   1 (of   1)              ... done (   17.431 sec)
Total EXT                           ...          17.431 sec

---------------------
RI-PNO TRANSFORMATION
---------------------

Total Number of PNOs                   ...  5332
Average number of PNOs per pair        ...    44
Maximal number of PNOs per pair        ...    66
   #pairs with  1 -  5 PNOs   :    0
   #pairs with  6 - 10 PNOs   :    0
   #pairs with 11 - 15 PNOs   :    5
   #pairs with 16 - 20 PNOs   :    4
   #pairs with 21 - 25 PNOs   :    1
   #pairs with 26 - 30 PNOs   :    7
   #pairs with 31 - 35 PNOs   :   18
   #pairs with 36 - 40 PNOs   :    6
   #pairs with 41 - 45 PNOs   :   13
   #pairs with 46 - 50 PNOs   :   17
   #pairs with 51 - 55 PNOs   :   22
   #pairs with 56 - 60 PNOs   :   16
   #pairs with 61 - 65 PNOs   :    9
   #pairs with 66 - 70 PNOs   :    2

Generation of (ij|ab)[P] integrals            ... on
Generation of (ia|bc)[P],(ja|bc)[P] integrals ... on
Storage of 3 and 4 external integrals         ... on
Generation of ALL (ka|bc)[P] integrals        ... on
Keep RI integrals in memory                   ... off

Ibatch:  1 (of  1)
Starting 2-4 index PNO integral generation ... done

Timings:
Total PNO integral transformation time     ...          7.908 sec
Size of the 3-external file                ...       102 MB
Size of the 4-external file                ...       696 MB
Size of the IKJL file                      ...         0 MB
Size of the all 3-external file            ...       771 MB
Size of the 1-external file                ...         1 MB

Making pair/pair overlap matrices          ... done (    0.613 sec)
Size of the pair overlap file              ... 161 MB
Redoing the guess amplitudes               ... done (    0.002 sec)

-------------------------
FINAL STARTUP INFORMATION
-------------------------

E(0)                                       ...   -266.934423725
E(L-MP2)                                   ...     -0.973041408
E(L-MP2) including corrections             ...     -0.973041408
Initial E(tot)                             ...   -267.907465133
<T|T>                                      ...      0.237802650
Number of pairs included                   ... 120
Total number of pairs                      ... 120

------------------------------------------------
                  RHF COUPLED CLUSTER ITERATIONS
------------------------------------------------

Number of PNO amplitudes to be optimized   ...       258512
Number of non-PNO amplitudes               ...      5495520
Untruncated number of regular amplitudes   ...      5495520

Iter       E(tot)           E(Corr)          Delta-E          Residual     Time
  0   -267.871720405     -0.936552011      0.036489397      0.017858276    5.11
                           *** Turning on DIIS ***
  1   -267.902058731     -0.966890338     -0.030338327      0.011514370    5.00
  2   -267.926646308     -0.991477915     -0.024587577      0.005975867    5.09
  3   -267.931956194     -0.996787801     -0.005309886      0.003367268    5.07
  4   -267.933599093     -0.998430700     -0.001642899      0.001681789    5.13
  5   -267.934112966     -0.998944573     -0.000513873      0.000710365    8.25
  6   -267.934240666     -0.999072272     -0.000127700      0.000303048    5.06
  7   -267.934266642     -0.999098249     -0.000025977      0.000127596    5.11
  8   -267.934265571     -0.999097177      0.000001072      0.000057950    5.14
  9   -267.934263083     -0.999094689      0.000002488      0.000027344    5.14
 10   -267.934262612     -0.999094218      0.000000471      0.000013400    5.10
 11   -267.934262203     -0.999093810      0.000000408      0.000006934    5.06
               --- The Coupled-Cluster iterations have converged ---

----------------------
COUPLED CLUSTER ENERGY
----------------------

E(0)                                       ...   -266.934423725
E(CORR)(strong-pairs)                      ...     -0.999093810
E(CORR)(weak-pairs)                        ...     -0.000744668
E(CORR)(corrected)                         ...     -0.999838478
E(TOT)                                     ...   -267.934262203
Singles Norm <S|S>**1/2                    ...      0.076676635  
T1 diagnostic                              ...      0.013999174  

------------------
LARGEST AMPLITUDES
------------------
  11-> 20  11-> 20       0.046291
  13-> 20  13-> 20       0.046277
  13-> 20  11-> 20       0.039136
  10-> 20  10-> 20       0.034674
  18-> 27  18-> 27       0.033509
  19-> 27  19-> 27       0.033504
   9-> 22   9-> 22       0.031729
  13-> 20  -1-> -1       0.028003
  11-> 20  -1-> -1       0.028001
  14-> 24  14-> 24       0.026877
  16-> 20  16-> 20       0.026656
  15-> 20  15-> 20       0.026655
  17-> 20  17-> 20       0.026607
  18-> 20  18-> 27       0.026323
  18-> 27  18-> 20       0.026323
  19-> 20  19-> 27       0.026321


-------------------------------------------
DLPNO BASED TRIPLES CORRECTION
-------------------------------------------

Singles multiplier          ...  1.000000
TCutTNO                     ... 1.000e-09
TCutMP2Pairs                ... 1.000e-06
TCutDOStrong                ... 1.000e-02
TCutMKNStrong               ... 1.000e-02
TCutDOWeak                  ... 2.000e-02
TCutMKNWeak                 ... 1.000e-01

Fragment selection                          .... not used
Number of Triples that are to be computed   ...       665

 . . . . . . . . .
10% done  
20% done  
30% done  
40% done  
50% done  
60% done  
70% done  
80% done  
90% done               (     38.588 sec)
Triples timings:
Total time for T0               ...    40.809 sec
Total time for Iterative (T)    ...     0.000 sec
Total time of overall (T)       ...    41.108 sec

Triples List generation         ...     0.000 sec
TNO generation                  ...     2.216 sec
Pair density generation         ...     0.003 sec
Look up tables                  ...     0.000 sec
Generating 3-index integrals    ...    20.770 sec
  Make 4-ind.int. from 3-ind.int...     6.351 sec
  Projecting amplitudes (D + S) ...     2.482 sec
  Downprojecting integrals      ...     0.001 sec
  Energy contr. (sum over a,b,c)...     2.445 sec
Fitting ET(->0)                 ...     0.000 sec

Everything after 3-index        ...    17.818 sec

Timing details:
 TNO integrals                  ...    26.197 sec
   Reading 3-index integrals    ...     0.078 sec
   Sorting integrals            ...     3.940 sec
       Sorting integrals 1      ...     0.000 sec
       Sorting integrals 2      ...     1.320 sec
       Sorting integrals 3      ...     0.182 sec
       Sorting integrals 4      ...     0.007 sec
       Sorting integrals 5      ...     0.036 sec
       Sorting integrals 6      ...     2.394 sec
   Calculating local VM**-1/2   ...     0.119 sec
   Orthogonal. integrals        ...     0.260 sec
   Multipl. 3-index integrals   ...    21.800 sec
   All concerning IRIab (w/TNO) ...     3.402 sec

 Calculate W0/W1                ...     6.535 sec
 W 3-ext contribution           ...     3.672 sec
 W 3-int contribution           ...     0.887 sec
 Sorting W                      ...     1.876 sec

 V exchange contribution        ...     0.837 sec

 Timings for Triples without generation
     of 3-index integrals       ...    17.817 sec
       0 weak pairs             ...    17.817 sec
       1 weak pair              ...     0.000 sec
       2 weak pairs             ...     0.000 sec
       3 weak pairs             ...     0.000 sec
  Extra time for extrapolation  ...     0.000 sec

Number of Triples   (0, 1, 2, 3 weak pairs; overall):    665       0       0       0  (   665)
Number of Atoms     (0, 1, 2, 3 weak pairs; overall):   10.8     0.0     0.0     0.0  (    11)
Number of PAOs      (0, 1, 2, 3 weak pairs; overall):  231.7     0.0     0.0     0.0  (   234)
Number of AuxFcns   (0, 1, 2, 3 weak pairs; overall):  335.7     0.0     0.0     0.0  (   585)
Number of TNOs      (0, 1, 2, 3 weak pairs         ):   97.8     0.0     0.0     0.0
Aver. Number of NTNO, Atoms, PAOs, AuxFcns / Triples:    665    97.8    10.8   231.7   335.7

Triples Correction (T)                     ...     -0.039519385
Final correlation energy                   ...     -1.039357863
E(CCSD)                                    ...   -267.934262203
E(CCSD(T))                                 ...   -267.973781588


Maximum memory used throughout the entire calculation: 3640.0 MB


------------------------------------------------------------------------------- 
                                     TIMINGS                                   
------------------------------------------------------------------------------- 


Total execution time                   ...      153.003 sec

Localization of occupied MO's          ...        0.451 sec (  0.3%)
Fock Matrix Formation                  ...        0.857 sec (  0.6%)
Global overlap, Fock, MKN matrices     ...        0.144 sec (  0.1%)
Differential overlap integrals         ...        0.058 sec (  0.0%)
Organizing maps                        ...        0.018 sec (  0.0%)
RI 3-index integral generations        ...        1.960 sec (  1.3%)
RI-PNO integral transformation         ...       38.453 sec ( 25.1%)
Initial Guess                          ...        5.240 sec (  3.4%)
DIIS Solver                            ...        0.948 sec (  0.6%)
State Vector Update                    ...        0.023 sec (  0.0%)
Sigma-vector construction              ...       64.043 sec ( 41.9%)
  <D|H|D>(0-ext)                       ...        1.292 sec (  2.0% of sigma)
  <D|H|D>(2-ext Fock)                  ...        0.010 sec (  0.0% of sigma)
  <D|H|D>(2-ext)                       ...        4.722 sec (  7.4% of sigma)
  <D|H|D>(4-ext)                       ...        8.963 sec ( 14.0% of sigma)
  <D|H|D>(4-ext-corr)                  ...       36.684 sec ( 57.3% of sigma)
  CCSD doubles correction              ...        0.100 sec (  0.2% of sigma)
  <S|H|S>                              ...        0.319 sec (  0.5% of sigma)
  <S|H|D>(1-ext)                       ...        0.186 sec (  0.3% of sigma)
  <D|H|S>(1-ext)                       ...        0.006 sec (  0.0% of sigma)
  <S|H|D>(3-ext)                       ...        0.318 sec (  0.5% of sigma)
  Fock-dressing                        ...        8.948 sec ( 14.0% of sigma)
  Singles amplitudes                   ...        0.242 sec (  0.4% of sigma)
  (ik|jl)-dressing                     ...        0.918 sec (  1.4% of sigma)
  (ij|ab),(ia|jb)-dressing             ...        1.219 sec (  1.9% of sigma)
  Pair energies                        ...        0.005 sec (  0.0% of sigma)
Total Time for computing (T)           ...       41.135 sec ( 26.9% of ALL)


-------------------------   --------------------
FINAL SINGLE POINT ENERGY      -267.973781587892
-------------------------   --------------------


                            ***************************************
                            *     ORCA property calculations      *
                            ***************************************

                                    ---------------------
                                    Active property flags
                                    ---------------------
   (+) Dipole Moment


------------------------------------------------------------------------------
                       ORCA ELECTRIC PROPERTIES CALCULATION
------------------------------------------------------------------------------

Dipole Moment Calculation                       ... on
Quadrupole Moment Calculation                   ... off
Polarizability Calculation                      ... off
GBWName                                         ... Me_acetate_Z.gbw
Electron density file                           ... Me_acetate_Z.scfp.tmp
The origin for moment calculation is the CENTER OF MASS  = (-0.005078,  0.052772  0.000005)

-------------
DIPOLE MOMENT
-------------
                                X             Y             Z
Electronic contribution:     -0.11549       1.31643       0.00034
Nuclear contribution   :      0.20314      -2.11074      -0.00029
                        -----------------------------------------
Total Dipole Moment    :      0.08765      -0.79431       0.00006
                        -----------------------------------------
Magnitude (a.u.)       :      0.79913
Magnitude (Debye)      :      2.03122



--------------------
Rotational spectrum 
--------------------
 
Rotational constants in cm-1:     0.341827     0.136706     0.101368 
Rotational constants in MHz : 10247.728336  4098.340891  3038.923998 

 Dipole components along the rotational axes: 
x,y,z [a.u.] :     0.119571     0.790131     0.000056 
x,y,z [Debye]:     0.303925     2.008354     0.000141 

 

Timings for individual modules:

Sum of individual times         ...      161.086 sec (=   2.685 min)
GTO integral calculation        ...        0.504 sec (=   0.008 min)   0.3 %
SCF iterations                  ...        7.370 sec (=   0.123 min)   4.6 %
MDCI module                     ...      153.212 sec (=   2.554 min)  95.1 %
                             ****ORCA TERMINATED NORMALLY****
TOTAL RUN TIME: 0 days 0 hours 2 minutes 41 seconds 368 msec
Me_acetate_Z.gbw -> /home1/pantazis/klk/xyz_1/Oxygen_compounds/Me_acetate_Z.gbw
Me_acetate_Z.job -> /home1/pantazis/klk/xyz_1/Oxygen_compounds/Me_acetate_Z.job
Me_acetate_Z.loc -> /home1/pantazis/klk/xyz_1/Oxygen_compounds/Me_acetate_Z.loc
Me_acetate_Z.nodes -> /home1/pantazis/klk/xyz_1/Oxygen_compounds/Me_acetate_Z.nodes
Me_acetate_Z.prop -> /home1/pantazis/klk/xyz_1/Oxygen_compounds/Me_acetate_Z.prop
Me_acetate_Z_property.txt -> /home1/pantazis/klk/xyz_1/Oxygen_compounds/Me_acetate_Z_property.txt
Me_acetate_Z.xyz -> /home1/pantazis/klk/xyz_1/Oxygen_compounds/Me_acetate_Z.xyz
cp: cannot stat Me_acetate_Z.asa.inp: No such file or directory
