! Job execution by suborca V 6.07 on ZEUS !
Job started from zeus1, running /scratch/pantazis/me_cyclohexanecarboxylate_ax__9BUUEc/orca/orca copied from /opt/orca on zeussn149 in /scratch/pantazis/me_cyclohexanecarboxylate_ax__9BUUEc
Job execution start: Fri Jun 28 10:06:24 CEST 2019
Shared library path: /scratch/pantazis/me_cyclohexanecarboxylate_ax__9BUUEc/orca:/opt/openmpi_1.10.2/lib:/opt/intel/mkl/lib/intel64:/opt/intel/lib/intel64:
PBS Job ID is: 158377.icqc
izeussn149
izeussn149
izeussn149
izeussn149
izeussn149
izeussn149
izeussn149
izeussn149

                                 *****************
                                 * O   R   C   A *
                                 *****************

           --- An Ab Initio, DFT and Semiempirical electronic structure package ---

                  #######################################################
                  #                        -***-                        #
                  #          Department of theory and spectroscopy      #
                  #               Directorship: Frank Neese             #
                  #        Max Planck Institute fuer Kohlenforschung    #
                  #                Kaiser Wilhelm Platz 1               #
                  #                 D-45470 Muelheim/Ruhr               #
                  #                      Germany                        #
                  #                                                     #
                  #                  All rights reserved                #
                  #                        -***-                        #
                  #######################################################


                         Program Version 4.1.x  -  STABLE  -
                                (SVN: $Rev: 14094$)
                ($Date: 2019-06-14 15:01:15 +0200 (Fri, 14 Jun 2019) $)

                         (BUILD: $Sun Jun 23 06:18:31 CEST 2019$)


 With contributions from (in alphabetic order):
   Daniel Aravena         : Magnetic Properties
   Michael Atanasov       : Ab Initio Ligand Field Theory
   Alexander A. Auer      : GIAO ZORA
   Ute Becker             : Parallelization
   Giovanni Bistoni       : ED, Open-shell LED
   Martin Brehm           : Molecular dynamics
   Dmytro Bykov           : SCF Hessian
   Vijay G. Chilkuri      : MRCI spin determinant printing
   Dipayan Datta          : RHF DLPNO-CCSD density
   Achintya Kumar Dutta   : EOM-CC, STEOM-CC
   Dmitry Ganyushin       : Spin-Orbit,Spin-Spin,Magnetic field MRCI
   Miquel Garcia          : C-PCM Hessian
   Yang Guo               : DLPNO-NEVPT2, CIM, IAO-localization
   Andreas Hansen         : Spin unrestricted coupled pair/coupled cluster methods
   Benjamin Helmich-Paris : CASSCF linear response (MC-RPA)
   Lee Huntington         : MR-EOM, pCC
   Robert Izsak           : Overlap fitted RIJCOSX, COSX-SCS-MP3, EOM
   Christian Kollmar      : KDIIS, OOCD, Brueckner-CCSD(T), CCSD density
   Simone Kossmann        : Meta GGA functionals, TD-DFT gradient, OOMP2, MP2 Hessian
   Martin Krupicka        : AUTO-CI
   Lucas Lang             : DCDCAS
   Dagmar Lenk            : GEPOL surface, SMD
   Dimitrios Liakos       : Extrapolation schemes; parallel MDCI
   Dimitrios Manganas     : ROCIS; embedding schemes
   Dimitrios Pantazis     : SARC Basis sets
   Taras Petrenko         : DFT Hessian,TD-DFT gradient, ASA, ECA, R-Raman, ABS, FL, XAS/XES, NRVS
   Peter Pinski           : DLPNO-MP2, DLPNO-MP2 Gradient
   Christoph Reimann      : Effective Core Potentials
   Marius Retegan         : Local ZFS, SOC
   Christoph Riplinger    : Optimizer, TS searches, QM/MM, DLPNO-CCSD(T), (RO)-DLPNO pert. Triples
   Tobias Risthaus        : Range-separated hybrids, TD-DFT gradient, RPA, STAB
   Michael Roemelt        : Restricted open shell CIS
   Masaaki Saitow         : Open-shell DLPNO
   Barbara Sandhoefer     : DKH picture change effects
   Avijit Sen             : IP-ROCIS
   Kantharuban Sivalingam : CASSCF convergence, NEVPT2, FIC-MRCI
   Bernardo de Souza      : ESD, SOC TD-DFT
   Georgi Stoychev        : AutoAux, RI-MP2 NMR
   Willem Van den Heuvel  : Paramagnetic NMR
   Boris Wezisla          : Elementary symmetry handling
   Frank Wennmohs         : Technical directorship


 We gratefully acknowledge several colleagues who have allowed us to
 interface, adapt or use parts of their codes:
   Stefan Grimme, W. Hujo, H. Kruse,             : VdW corrections, initial TS optimization,
                  C. Bannwarth                     DFT functionals, gCP, sTDA/sTD-DF
   Ed Valeev                                     : LibInt (2-el integral package), F12 methods
   Garnet Chan, S. Sharma, J. Yang, R. Olivares  : DMRG
   Ulf Ekstrom                                   : XCFun DFT Library
   Mihaly Kallay                                 : mrcc  (arbitrary order and MRCC methods)
   Andreas Klamt, Michael Diedenhofen            : otool_cosmo (COSMO solvation model)
   Jiri Pittner, Ondrej Demel                    : Mk-CCSD
   Frank Weinhold                                : gennbo (NPA and NBO analysis)
   Christopher J. Cramer and Donald G. Truhlar   : smd solvation model
   Lars Goerigk                                  : TD-DFT with DH, B97 family of functionals
   V. Asgeirsson, H. Jonsson                     : NEB implementation
   FAccTs GmbH                                   : IRC, NEB, NEB-TS, Multilevel


 Your calculation uses the libint2 library for the computation of 2-el integrals
 For citations please refer to: http://libint.valeyev.net

 This ORCA versions uses:
   CBLAS   interface :  Fast vector & matrix operations
   LAPACKE interface :  Fast linear algebra routines
   SCALAPACK package :  Parallel linear algebra routines




***************************************
The coordinates will be read from file: me_cyclohexanecarboxylate_ax.xyz
***************************************


----- Orbital basis set information -----
Your calculation utilizes the basis: cc-pVTZ 
       H, B-Ne : Obtained from the ccRepo (grant-hill.group.shef.ac.uk/ccrepo) Feb. 2017
                 T. H. Dunning, Jr., J. Chem. Phys. 90, 1007 (1989)
            He : Obtained from the ccRepo (grant-hill.group.shef.ac.uk/ccrepo) Feb. 2017
                 D. E. Woon, T. H. Dunning, Jr., J. Chem. Phys. 100, 2975 (1994)
  Li-Be, Na-Mg : Obtained from the ccRepo (grant-hill.group.shef.ac.uk/ccrepo) Feb. 2017
                 B. P. Prascher, D. E. Woon, K. A. Peterson, T. H. Dunning, Jr., A. K. Wilson, Theor. Chem. Acc. 128, 69 (2011)
         Al-Ar : Obtained from the ccRepo (grant-hill.group.shef.ac.uk/ccrepo) Feb. 2017
                 D. E. Woon, T. H. Dunning, Jr., J. Chem. Phys. 98, 1358 (1993)
            Ca : Obtained from the Peterson Research Group Website (tyr0.chem.wsu.edu/~kipeters) Feb. 2017
                 J. Koput, K. A. Peterson, J. Phys. Chem. 106, 9595 (2002)
         Sc-Zn : Obtained from the ccRepo (grant-hill.group.shef.ac.uk/ccrepo) Feb. 2017
                 N. B. Balabanov, K. A. Peterson, J. Chem. Phys. 123, 064107 (2005)
                 N. B. Balabanov, K. A. Peterson, J. Chem. Phys. 125, 074110 (2006)
         Ga-Kr : Obtained from the ccRepo (grant-hill.group.shef.ac.uk/ccrepo) Feb. 2017
                 A. K. Wilson, D. E. Woon, K. A. Peterson, T. H. Dunning, Jr., J. Chem. Phys. 110, 7667 (1999)
             Y : Obtained from the ccRepo (grant-hill.group.shef.ac.uk/ccrepo) Feb. 2017
                 K. A. Peterson, D. Figgen, M. Dolg, H. Stoll, J. Chem. Phys. 126, 124101 (2007)
        Ag, Au : Obtained from the Peterson Research Group Website (tyr0.chem.wsu.edu/~kipeters) Feb. 2017
                 K. A. Peterson, C. Puzzarini, Theor. Chem. Acc. 114, 283 (2005)

----- AuxC basis set information -----
Your calculation utilizes the auxiliary basis: cc-pVTZ/C 
  Obtained from the EMSL Basis Set Exchange (bse.pnl.gov) Feb. 2017
  H-He, B-F, Al-Ar, Ga-Kr : F. Weigend, A. Kohn, C. Hattig, J. Chem. Phys. 116, 3175 (2002)
             Li-Be, Na-Mg : C. Haettig, Phys. Chem. Chem. Phys. 7, 59 (2005)
                       Ne : C. Haettig, Phys. Chem. Chem. Phys. 7, 59 (2005)
                            F. Weigend, A. Kohn, C. Hattig, J. Chem. Phys. 116, 3175 (2002)
                    Sc-Zn : J. G. Hill, J. A. Platts, J. Chem. Phys. 128, 044104 (2008)

----- AuxJK basis set information -----
Your calculation utilizes the auxiliary basis: cc-pVTZ/JK 
  H, B-F, Al-Cl, Ga-Br : Obtained from the TURBOMOLE 7.0 basis set library

================================================================================
                                        WARNINGS
                       Please study these warnings very carefully!
================================================================================


WARNING: MDCI localization with Augmented Hessian Foster-Boys
  ===> : Switching off randomization!

WARNING: Post HF methods need fully converged wavefunctions
  ===> : Setting SCFConvForced true
         You can overwrite this default with %scf ConvForced false 


INFO   : the flag for use of LIBINT has been found!

================================================================================
                                       INPUT FILE
================================================================================
NAME = me_cyclohexanecarboxylate_ax.inp
|  1> ! RHF DLPNO-CCSD(T) cc-pVTZ RIJK cc-pVTZ/JK cc-pVTZ/C
|  2> ! KDIIS SOSCF TightSCF TightPNO
|  3> 
|  4> %pal nprocs 8 end
|  5> 
|  6> %maxcore 8000
|  7> 
|  8> %scf maxiter 300
|  9>      shift shift 0.2 erroff 0.1 end
| 10> end
| 11> 
| 12> * xyzfile 0 1 me_cyclohexanecarboxylate_ax.xyz 
| 13> 
| 14> 
| 15>                          ****END OF INPUT****
================================================================================

                       ****************************
                       * Single Point Calculation *
                       ****************************

---------------------------------
CARTESIAN COORDINATES (ANGSTROEM)
---------------------------------
  C      1.201600   -1.176770    0.843510
  C      0.102850   -0.108170    1.002820
  C      0.668420    1.313520    0.757750
  C      1.408530    1.420900   -0.584820
  C      2.519670    0.365360   -0.698020
  C      1.968270   -1.053340   -0.484720
  C     -1.112880   -0.411060    0.131850
  O     -2.068460    0.540780    0.267110
  C     -3.281710    0.327340   -0.478500
  O     -1.260810   -1.387690   -0.576360
  H     -0.135730    2.052230    0.822180
  H      1.372490    1.534060    1.571580
  H      1.825900    2.429440   -0.694130
  H      0.695140    1.289970   -1.411610
  H      3.291640    0.575910    0.057340
  H      3.012450    0.436620   -1.675460
  H     -0.280960   -0.139120    2.032600
  H      2.786700   -1.783520   -0.502630
  H      1.296260   -1.314330   -1.310960
  H      1.904860   -1.054690    1.678870
  H      0.764780   -2.176200    0.934150
  H     -3.922100    1.176310   -0.240070
  H     -3.755070   -0.610260   -0.176950
  H     -3.070760    0.292210   -1.550090

----------------------------
CARTESIAN COORDINATES (A.U.)
----------------------------
  NO LB      ZA    FRAG     MASS         X           Y           Z
   0 C     6.0000    0    12.011    2.270695   -2.223773    1.594003
   1 C     6.0000    0    12.011    0.194358   -0.204412    1.895055
   2 C     6.0000    0    12.011    1.263131    2.482193    1.431940
   3 C     6.0000    0    12.011    2.661736    2.685112   -1.105150
   4 C     6.0000    0    12.011    4.761486    0.690430   -1.319067
   5 C     6.0000    0    12.011    3.719491   -1.990524   -0.915988
   6 C     6.0000    0    12.011   -2.103038   -0.776791    0.249160
   7 O     8.0000    0    15.999   -3.908823    1.021926    0.504765
   8 C     6.0000    0    12.011   -6.201533    0.618583   -0.904234
   9 O     8.0000    0    15.999   -2.382586   -2.622354   -1.089163
  10 H     1.0000    0     1.008   -0.256493    3.878153    1.553695
  11 H     1.0000    0     1.008    2.593630    2.898953    2.969856
  12 H     1.0000    0     1.008    3.450451    4.590976   -1.311716
  13 H     1.0000    0     1.008    1.313624    2.437690   -2.667556
  14 H     1.0000    0     1.008    6.220298    1.088312    0.108357
  15 H     1.0000    0     1.008    5.692705    0.825092   -3.166161
  16 H     1.0000    0     1.008   -0.530937   -0.262899    3.841057
  17 H     1.0000    0     1.008    5.266100   -3.370364   -0.949833
  18 H     1.0000    0     1.008    2.449576   -2.483724   -2.477355
  19 H     1.0000    0     1.008    3.599664   -1.993075    3.172605
  20 H     1.0000    0     1.008    1.445225   -4.112422    1.765288
  21 H     1.0000    0     1.008   -7.411695    2.222904   -0.453667
  22 H     1.0000    0     1.008   -7.096054   -1.153224   -0.334387
  23 H     1.0000    0     1.008   -5.802895    0.552197   -2.929246

--------------------------------
INTERNAL COORDINATES (ANGSTROEM)
--------------------------------
 C      0   0   0     0.000000000000     0.00000000     0.00000000
 C      1   0   0     1.540953340825     0.00000000     0.00000000
 C      2   1   0     1.549558384153   111.07830540     0.00000000
 C      3   2   1     1.536810815097   112.21265448    52.88867383
 C      4   3   2     1.536753406113   111.38102231   304.83720302
 C      5   4   3     1.536960812773   111.37012147    55.48446784
 C      2   1   3     1.525886799831   111.80409678   126.57519777
 O      7   2   1     1.355517535704   111.42732116   180.64977963
 C      8   7   2     1.439953634045   115.99009056   182.07507373
 O      7   2   1     1.215422085491   126.09092155     2.63461509
 H      3   2   1     1.093846840970   109.99663652   176.97681761
 H      3   2   1     1.098486106148   107.51564184   293.12272459
 H      4   3   2     1.096950010073   109.54399020   182.37406150
 H      4   3   2     1.099840743517   109.63530497    66.03936664
 H      5   4   3     1.100380712754   108.98121651   294.63503112
 H      5   4   3     1.096949893842   110.23232607   178.08718716
 H      2   1   3     1.099415693448   109.04048019   241.65950754
 H      6   5   4     1.096955452787   110.15071932   183.78603821
 H      6   5   4     1.096533518776   109.57219892    66.76170712
 H      1   2   3     1.098774082148   107.50099798    68.68612080
 H      1   2   3     1.094480537470   109.88302599   184.90389389
 H      9   8   7     1.089815708228   105.44697338   179.50975686
 H      9   8   7     1.092746929577   110.44300606    59.88079648
 H      9   8   7     1.092720983371   110.48100380   299.12595142

---------------------------
INTERNAL COORDINATES (A.U.)
---------------------------
 C      0   0   0     0.000000000000     0.00000000     0.00000000
 C      1   0   0     2.911979799310     0.00000000     0.00000000
 C      2   1   0     2.928240974571   111.07830540     0.00000000
 C      3   2   1     2.904151560182   112.21265448    52.88867383
 C      4   3   2     2.904043072924   111.38102231   304.83720302
 C      5   4   3     2.904435014710   111.37012147    55.48446784
 C      2   1   3     2.883508163047   111.80409678   126.57519777
 O      7   2   1     2.561556912208   111.42732116   180.64977963
 C      8   7   2     2.721118013890   115.99009056   182.07507373
 O      7   2   1     2.296814878698   126.09092155     2.63461509
 H      3   2   1     2.067070961888   109.99663652   176.97681761
 H      3   2   1     2.075837902537   107.51564184   293.12272459
 H      4   3   2     2.072935101641   109.54399020   182.37406150
 H      4   3   2     2.078397796175   109.63530497    66.03936664
 H      5   4   3     2.079418190153   108.98121651   294.63503112
 H      5   4   3     2.072934881995   110.23232607   178.08718716
 H      2   1   3     2.077594567952   109.04048019   241.65950754
 H      6   5   4     2.072945386880   110.15071932   183.78603821
 H      6   5   4     2.072148047152   109.57219892    66.76170712
 H      1   2   3     2.076382098310   107.50099798    68.68612080
 H      1   2   3     2.068268474725   109.88302599   184.90389389
 H      9   8   7     2.059453224996   105.44697338   179.50975686
 H      9   8   7     2.064992430584   110.44300606    59.88079648
 H      9   8   7     2.064943399361   110.48100380   299.12595142

---------------------
BASIS SET INFORMATION
---------------------
There are 3 groups of distinct atoms

 Group   1 Type C   : 18s5p2d1f contracted to 4s3p2d1f pattern {8811/311/11/1}
 Group   2 Type O   : 18s5p2d1f contracted to 4s3p2d1f pattern {8811/311/11/1}
 Group   3 Type H   : 5s2p1d contracted to 3s2p1d pattern {311/11/1}

Atom   0C    basis set group =>   1
Atom   1C    basis set group =>   1
Atom   2C    basis set group =>   1
Atom   3C    basis set group =>   1
Atom   4C    basis set group =>   1
Atom   5C    basis set group =>   1
Atom   6C    basis set group =>   1
Atom   7O    basis set group =>   2
Atom   8C    basis set group =>   1
Atom   9O    basis set group =>   2
Atom  10H    basis set group =>   3
Atom  11H    basis set group =>   3
Atom  12H    basis set group =>   3
Atom  13H    basis set group =>   3
Atom  14H    basis set group =>   3
Atom  15H    basis set group =>   3
Atom  16H    basis set group =>   3
Atom  17H    basis set group =>   3
Atom  18H    basis set group =>   3
Atom  19H    basis set group =>   3
Atom  20H    basis set group =>   3
Atom  21H    basis set group =>   3
Atom  22H    basis set group =>   3
Atom  23H    basis set group =>   3
-------------------------------
AUXILIARY BASIS SET INFORMATION
-------------------------------
There are 3 groups of distinct atoms

 Group   1 Type C   : 8s6p5d3f1g contracted to 8s6p5d3f1g pattern {11111111/111111/11111/111/1}
 Group   2 Type O   : 8s6p5d3f1g contracted to 8s6p5d3f1g pattern {11111111/111111/11111/111/1}
 Group   3 Type H   : 4s3p2d1f contracted to 4s3p2d1f pattern {1111/111/11/1}

Atom   0C    basis set group =>   1
Atom   1C    basis set group =>   1
Atom   2C    basis set group =>   1
Atom   3C    basis set group =>   1
Atom   4C    basis set group =>   1
Atom   5C    basis set group =>   1
Atom   6C    basis set group =>   1
Atom   7O    basis set group =>   2
Atom   8C    basis set group =>   1
Atom   9O    basis set group =>   2
Atom  10H    basis set group =>   3
Atom  11H    basis set group =>   3
Atom  12H    basis set group =>   3
Atom  13H    basis set group =>   3
Atom  14H    basis set group =>   3
Atom  15H    basis set group =>   3
Atom  16H    basis set group =>   3
Atom  17H    basis set group =>   3
Atom  18H    basis set group =>   3
Atom  19H    basis set group =>   3
Atom  20H    basis set group =>   3
Atom  21H    basis set group =>   3
Atom  22H    basis set group =>   3
Atom  23H    basis set group =>   3
-------------------------------
AUXILIARY BASIS SET INFORMATION
-------------------------------
There are 3 groups of distinct atoms

 Group   1 Type C   : 10s7p5d2f1g contracted to 10s7p5d2f1g pattern {1111111111/1111111/11111/11/1}
 Group   2 Type O   : 10s7p5d2f1g contracted to 10s7p5d2f1g pattern {1111111111/1111111/11111/11/1}
 Group   3 Type H   : 4s3p2d1f contracted to 4s3p2d1f pattern {1111/111/11/1}

Atom   0C    basis set group =>   1
Atom   1C    basis set group =>   1
Atom   2C    basis set group =>   1
Atom   3C    basis set group =>   1
Atom   4C    basis set group =>   1
Atom   5C    basis set group =>   1
Atom   6C    basis set group =>   1
Atom   7O    basis set group =>   2
Atom   8C    basis set group =>   1
Atom   9O    basis set group =>   2
Atom  10H    basis set group =>   3
Atom  11H    basis set group =>   3
Atom  12H    basis set group =>   3
Atom  13H    basis set group =>   3
Atom  14H    basis set group =>   3
Atom  15H    basis set group =>   3
Atom  16H    basis set group =>   3
Atom  17H    basis set group =>   3
Atom  18H    basis set group =>   3
Atom  19H    basis set group =>   3
Atom  20H    basis set group =>   3
Atom  21H    basis set group =>   3
Atom  22H    basis set group =>   3
Atom  23H    basis set group =>   3


           ************************************************************
           *        Program running with 8 parallel MPI-processes     *
           *              working on a common directory               *
           ************************************************************
------------------------------------------------------------------------------
                           ORCA GTO INTEGRAL CALCULATION
                           -- RI-GTO INTEGRALS CHOSEN --
------------------------------------------------------------------------------

                         BASIS SET STATISTICS AND STARTUP INFO

Gaussian basis set:
 # of primitive gaussian shells          ...  372
 # of primitive gaussian functions       ...  724
 # of contracted shells                  ...  184
 # of contracted basis functions         ...  496
 Highest angular momentum                ...    3
 Maximum contraction depth               ...    8
Auxiliary gaussian basis set:
 # of primitive gaussian shells          ...  390
 # of primitive gaussian functions       ... 1210
 # of contracted shells                  ...  390
 # of contracted aux-basis functions     ... 1210
 Highest angular momentum                ...    4
 Maximum contraction depth               ...    1
Ratio of auxiliary to basis functions    ...  2.44
Integral package used                  ... LIBINT
 One Electron integrals                  ... done
 Ordering auxiliary basis shells         ... done
 Integral threshhold             Thresh  ...  2.500e-11
 Primitive cut-off               TCut    ...  2.500e-12
 Pre-screening matrix                    ... done
 Shell pair data                         ... 
 Ordering of the shell pairs             ... done (   0.003 sec) 15172 of 17020 pairs
 Determination of significant pairs      ... done (   0.000 sec)
 Creation of shell pair data             ... done (   0.003 sec)
 Storage of shell pair data              ... done (   0.006 sec)
 Shell pair data done in (   0.012 sec)
 Computing two index integrals           ... done
 Cholesky decomposition of the V-matrix  ... done


Timings:
 Total evaluation time                   ...   0.876 sec (  0.015 min)
 One electron matrix time                ...   0.225 sec (  0.004 min) = 25.7%
 Schwartz matrix evaluation time         ...   0.347 sec (  0.006 min) = 39.6%
 Two index repulsion integral time       ...   0.123 sec (  0.002 min) = 14.1%
 Cholesky decomposition of V             ...   0.142 sec (  0.002 min) = 16.3%
 Three index repulsion integral time     ...   0.000 sec (  0.000 min) =  0.0%



           ************************************************************
           *        Program running with 8 parallel MPI-processes     *
           *              working on a common directory               *
           ************************************************************
-------------------------------------------------------------------------------
                                 ORCA SCF
-------------------------------------------------------------------------------

------------
SCF SETTINGS
------------
Hamiltonian:
 Ab initio Hamiltonian  Method          .... Hartree-Fock(GTOs)
 RI-approximation to the Coulomb term is turned on
   Number of auxiliary basis functions  .... 1210
   RI-JK (J+K treated both via RI)      .... on


General Settings:
 Integral files         IntName         .... me_cyclohexanecarboxylate_ax
 Hartree-Fock type      HFTyp           .... RHF
 Total Charge           Charge          ....    0
 Multiplicity           Mult            ....    1
 Number of Electrons    NEL             ....   78
 Basis Dimension        Dim             ....  496
 Nuclear Repulsion      ENuc            ....    573.3066783601 Eh

Convergence Acceleration:
 DIIS                   CNVDIIS         .... off
 Newton-Raphson         CNVNR           .... off
 SOSCF                  CNVSOSCF        .... on
   Start iteration      SOSCFMaxIt      ....   150
   Startup grad/error   SOSCFStart      ....  0.003300
 Level Shifting         CNVShift        .... on
   Level shift para.    LevelShift      ....    0.2000
   Turn off err/grad.   ShiftErr        ....    0.1000
 Zerner damping         CNVZerner       .... off
 Static damping         CNVDamp         .... off
 Fernandez-Rico         CNVRico         .... off

SCF Procedure:
 Maximum # iterations   MaxIter         ....   300
 SCF integral mode      SCFMode         .... Direct
   Integral package                     .... LIBINT
 Reset frequency        DirectResetFreq ....    20
 Integral Threshold     Thresh          ....  2.500e-11 Eh
 Primitive CutOff       TCut            ....  2.500e-12 Eh

Convergence Tolerance:
 Convergence Check Mode ConvCheckMode   .... Total+1el-Energy
 Convergence forced     ConvForced      .... 1
 Energy Change          TolE            ....  1.000e-08 Eh
 1-El. energy change                    ....  1.000e-05 Eh
 Orbital Gradient       TolG            ....  1.000e-05
 Orbital Rotation angle TolX            ....  1.000e-05


Diagonalization of the overlap matrix:
Smallest eigenvalue                        ... 2.329e-04
Time for diagonalization                   ...    0.050 sec
Threshold for overlap eigenvalues          ... 1.000e-08
Number of eigenvalues below threshold      ... 0
Time for construction of square roots      ...    0.066 sec
Total time needed                          ...    0.117 sec

-------------------
DFT GRID GENERATION
-------------------

General Integration Accuracy     IntAcc      ...  4.340
Radial Grid Type                 RadialGrid  ... Gauss-Chebyshev
Angular Grid (max. acc.)         AngularGrid ... Lebedev-110
Angular grid pruning method      GridPruning ... 3 (G Style)
Weight generation scheme         WeightScheme... Becke
Basis function cutoff            BFCut       ...    1.0000e-11
Integration weight cutoff        WCut        ...    1.0000e-14
Grids for H and He will be reduced by one unit

# of grid points (after initial pruning)     ...  27796 (   0.0 sec)
# of grid points (after weights+screening)   ...  25121 (   0.0 sec)
nearest neighbour list constructed           ...    0.0 sec
Grid point re-assignment to atoms done       ...    0.0 sec
Grid point division into batches done        ...    0.0 sec
Reduced shell lists constructed in    0.2 sec

Total number of grid points                  ...    25121
Total number of batches                      ...      404
Average number of points per batch           ...       62
Average number of grid points per atom       ...     1047
Average number of shells per batch           ...   146.87 (79.82%)
Average number of basis functions per batch  ...   384.94 (77.61%)
Average number of large shells per batch     ...   114.38 (77.88%)
Average number of large basis fcns per batch ...   295.96 (76.88%)
Average number of aux-shells per batch       ...   146.87 (37.66%)
Average number of aux functions per batch    ...   384.94 (31.81%)
Maximum spatial batch extension              ...   2.70,  2.51,  2.98 au
Average spatial batch extension              ...   0.21,  0.21,  0.20 au

Time for grid setup =    0.249 sec

------------------------------
INITIAL GUESS: MODEL POTENTIAL
------------------------------
Loading Hartree-Fock densities                     ... done
Calculating cut-offs                               ... done
Setting up the integral package                    ... done
Initializing the effective Hamiltonian             ... done
Starting the Coulomb interaction                   ... done (   0.1 sec)
Reading the grid                                   ... done
Mapping shells                                     ... done
Starting the XC term evaluation                    ... done (   0.1 sec)
Transforming the Hamiltonian                       ... done (   0.0 sec)
Diagonalizing the Hamiltonian                      ... done (   0.1 sec)
Back transforming the eigenvectors                 ... done (   0.0 sec)
Now organizing SCF variables                       ... done
                      ------------------
                      INITIAL GUESS DONE (   0.7 sec)
                      ------------------
--------------
SCF ITERATIONS
--------------
ITER       Energy         Delta-E        Max-DP      RMS-DP      [F,P]   Gradient Norm
                             ****Turning on KDIIS(Cayley)****
  0   -460.5147495486   0.000000000000 0.01151208  0.00020329  0.1601297   0.152265711
  1   -460.6506814017  -0.135931853065 0.01823016  0.00024794  0.1461759   0.132300807
  2   -460.7690223347  -0.118340933030 0.03004921  0.00041522  0.1182477   0.107333947
  3   -460.9129229662  -0.143900631425 0.04568726  0.00066786  0.0707196   0.065899872
  4   -461.0055712780  -0.092648311842 0.00241416  0.00004797  0.0035774   0.003544909
                      *** Initiating the SOSCF procedure ***
                           *** Shutting down KDIIS ***
                      *** Re-Reading the Fockian *** 
                      *** Removing any level shift *** 
ITER      Energy       Delta-E        Grad      Rot      Max-DP    RMS-DP
  5   -461.00605246  -0.0004811869  0.001010  0.001010  0.002008  0.000038
  6   -461.00611832  -0.0000658532  0.000422  0.000640  0.000620  0.000010
  7   -461.00612244  -0.0000041232  0.000244  0.000185  0.000278  0.000004
  8   -461.00612641  -0.0000039719  0.000106  0.000184  0.000088  0.000002
  9   -461.00612664  -0.0000002268  0.000036  0.000148  0.000100  0.000002
 10   -461.00612671  -0.0000000725  0.000017  0.000016  0.000028  0.000000
 11   -461.00612672  -0.0000000071  0.000005  0.000008  0.000012  0.000000
 12   -461.00612672  -0.0000000006  0.000003  0.000003  0.000002  0.000000
                  ***Gradient check signals convergence***
              ***Rediagonalizing the Fockian in SOSCF/NRSCF***

               *****************************************************
               *                     SUCCESS                       *
               *           SCF CONVERGED AFTER  13 CYCLES          *
               *****************************************************


----------------
TOTAL SCF ENERGY
----------------

Total Energy       :         -461.00612672 Eh          -12544.61446 eV

Components:
Nuclear Repulsion  :          573.30667836 Eh           15600.46783 eV
Electronic Energy  :        -1034.31280508 Eh          -28145.08229 eV
One Electron Energy:        -1765.44229150 Eh          -48040.12706 eV
Two Electron Energy:          731.12948642 Eh           19895.04477 eV

Virial components:
Potential Energy   :         -921.16477434 Eh          -25066.16785 eV
Kinetic Energy     :          460.15864762 Eh           12521.55339 eV
Virial Ratio       :            2.00184171


---------------
SCF CONVERGENCE
---------------

  Last Energy change         ...   -2.2101e-10  Tolerance :   1.0000e-08
  Last MAX-Density change    ...    9.8661e-07  Tolerance :   1.0000e-07
  Last RMS-Density change    ...    1.6577e-08  Tolerance :   5.0000e-09
  Last Orbital Gradient      ...    4.1032e-07  Tolerance :   1.0000e-05
  Last Orbital Rotation      ...    1.0679e-06  Tolerance :   1.0000e-05

             **** THE GBW FILE WAS UPDATED (me_cyclohexanecarboxylate_ax.gbw) ****
             **** DENSITY FILE WAS UPDATED (me_cyclohexanecarboxylate_ax.scfp.tmp) ****
             **** ENERGY FILE WAS UPDATED (me_cyclohexanecarboxylate_ax.en.tmp) ****
----------------
ORBITAL ENERGIES
----------------

  NO   OCC          E(Eh)            E(eV) 
   0   2.0000     -20.598251      -560.5069 
   1   2.0000     -20.538524      -558.8816 
   2   2.0000     -11.373563      -309.4904 
   3   2.0000     -11.284633      -307.0705 
   4   2.0000     -11.245201      -305.9975 
   5   2.0000     -11.227376      -305.5124 
   6   2.0000     -11.220873      -305.3355 
   7   2.0000     -11.220321      -305.3205 
   8   2.0000     -11.216979      -305.2295 
   9   2.0000     -11.212534      -305.1086 
  10   2.0000      -1.450540       -39.4712 
  11   2.0000      -1.349060       -36.7098 
  12   2.0000      -1.121028       -30.5047 
  13   2.0000      -1.028061       -27.9750 
  14   2.0000      -1.003322       -27.3018 
  15   2.0000      -0.963548       -26.2195 
  16   2.0000      -0.858071       -23.3493 
  17   2.0000      -0.832844       -22.6628 
  18   2.0000      -0.784353       -21.3433 
  19   2.0000      -0.745882       -20.2965 
  20   2.0000      -0.678757       -18.4699 
  21   2.0000      -0.670271       -18.2390 
  22   2.0000      -0.667861       -18.1734 
  23   2.0000      -0.641850       -17.4656 
  24   2.0000      -0.610533       -16.6135 
  25   2.0000      -0.601848       -16.3771 
  26   2.0000      -0.586158       -15.9502 
  27   2.0000      -0.552483       -15.0338 
  28   2.0000      -0.534487       -14.5441 
  29   2.0000      -0.527506       -14.3542 
  30   2.0000      -0.522414       -14.2156 
  31   2.0000      -0.513030       -13.9602 
  32   2.0000      -0.509855       -13.8739 
  33   2.0000      -0.483683       -13.1617 
  34   2.0000      -0.466787       -12.7019 
  35   2.0000      -0.455506       -12.3950 
  36   2.0000      -0.433439       -11.7945 
  37   2.0000      -0.431557       -11.7433 
  38   2.0000      -0.428660       -11.6644 
  39   0.0000       0.131145         3.5686 
  40   0.0000       0.146641         3.9903 
  41   0.0000       0.158198         4.3048 
  42   0.0000       0.170073         4.6279 
  43   0.0000       0.179135         4.8745 
  44   0.0000       0.186689         5.0801 
  45   0.0000       0.200323         5.4511 
  46   0.0000       0.204600         5.5674 
  47   0.0000       0.212996         5.7959 
  48   0.0000       0.219675         5.9777 
  49   0.0000       0.229297         6.2395 
  50   0.0000       0.235623         6.4116 
  51   0.0000       0.239823         6.5259 
  52   0.0000       0.246790         6.7155 
  53   0.0000       0.258857         7.0438 
  54   0.0000       0.274843         7.4789 
  55   0.0000       0.311124         8.4661 
  56   0.0000       0.331666         9.0251 
  57   0.0000       0.336581         9.1588 
  58   0.0000       0.360557         9.8113 
  59   0.0000       0.378206        10.2915 
  60   0.0000       0.384530        10.4636 
  61   0.0000       0.390205        10.6180 
  62   0.0000       0.394203        10.7268 
  63   0.0000       0.404118        10.9966 
  64   0.0000       0.409286        11.1372 
  65   0.0000       0.421882        11.4800 
  66   0.0000       0.424716        11.5571 
  67   0.0000       0.443643        12.0722 
  68   0.0000       0.456652        12.4261 
  69   0.0000       0.463730        12.6187 
  70   0.0000       0.472653        12.8615 
  71   0.0000       0.505262        13.7489 
  72   0.0000       0.523976        14.2581 
  73   0.0000       0.544782        14.8243 
  74   0.0000       0.552521        15.0349 
  75   0.0000       0.564699        15.3663 
  76   0.0000       0.577778        15.7221 
  77   0.0000       0.587222        15.9791 
  78   0.0000       0.593640        16.1538 
  79   0.0000       0.596214        16.2238 
  80   0.0000       0.604305        16.4440 
  81   0.0000       0.607733        16.5373 
  82   0.0000       0.611151        16.6303 
  83   0.0000       0.616725        16.7819 
  84   0.0000       0.622872        16.9492 
  85   0.0000       0.625502        17.0208 
  86   0.0000       0.630637        17.1605 
  87   0.0000       0.634354        17.2617 
  88   0.0000       0.637947        17.3594 
  89   0.0000       0.650932        17.7128 
  90   0.0000       0.655022        17.8240 
  91   0.0000       0.666730        18.1427 
  92   0.0000       0.678478        18.4623 
  93   0.0000       0.683948        18.6112 
  94   0.0000       0.693890        18.8817 
  95   0.0000       0.696705        18.9583 
  96   0.0000       0.704729        19.1767 
  97   0.0000       0.707530        19.2529 
  98   0.0000       0.714609        19.4455 
  99   0.0000       0.734322        19.9819 
 100   0.0000       0.762611        20.7517 
 101   0.0000       0.777900        21.1677 
 102   0.0000       0.792331        21.5604 
 103   0.0000       0.807114        21.9627 
 104   0.0000       0.822251        22.3746 
 105   0.0000       0.841592        22.9009 
 106   0.0000       0.852858        23.2075 
 107   0.0000       0.859247        23.3813 
 108   0.0000       0.877695        23.8833 
 109   0.0000       0.889029        24.1917 
 110   0.0000       0.908855        24.7312 
 111   0.0000       0.914923        24.8963 
 112   0.0000       0.947982        25.7959 
 113   0.0000       0.970775        26.4161 
 114   0.0000       0.973873        26.5004 
 115   0.0000       0.977285        26.5933 
 116   0.0000       1.005144        27.3514 
 117   0.0000       1.020560        27.7708 
 118   0.0000       1.041013        28.3274 
 119   0.0000       1.060621        28.8610 
 120   0.0000       1.069879        29.1129 
 121   0.0000       1.080272        29.3957 
 122   0.0000       1.092213        29.7206 
 123   0.0000       1.108932        30.1756 
 124   0.0000       1.122134        30.5348 
 125   0.0000       1.133015        30.8309 
 126   0.0000       1.141726        31.0679 
 127   0.0000       1.149969        31.2922 
 128   0.0000       1.159905        31.5626 
 129   0.0000       1.173091        31.9214 
 130   0.0000       1.184270        32.2256 
 131   0.0000       1.201059        32.6825 
 132   0.0000       1.209924        32.9237 
 133   0.0000       1.217264        33.1234 
 134   0.0000       1.232622        33.5414 
 135   0.0000       1.238255        33.6946 
 136   0.0000       1.243814        33.8459 
 137   0.0000       1.254185        34.1281 
 138   0.0000       1.258166        34.2364 
 139   0.0000       1.278014        34.7765 
 140   0.0000       1.297634        35.3104 
 141   0.0000       1.310357        35.6566 
 142   0.0000       1.315697        35.8019 
 143   0.0000       1.322290        35.9814 
 144   0.0000       1.331908        36.2431 
 145   0.0000       1.338140        36.4126 
 146   0.0000       1.357733        36.9458 
 147   0.0000       1.368256        37.2321 
 148   0.0000       1.377256        37.4770 
 149   0.0000       1.387273        37.7496 
 150   0.0000       1.395409        37.9710 
 151   0.0000       1.402545        38.1652 
 152   0.0000       1.428623        38.8748 
 153   0.0000       1.434675        39.0395 
 154   0.0000       1.440041        39.1855 
 155   0.0000       1.451562        39.4990 
 156   0.0000       1.461333        39.7649 
 157   0.0000       1.474015        40.1100 
 158   0.0000       1.487493        40.4767 
 159   0.0000       1.492088        40.6018 
 160   0.0000       1.502276        40.8790 
 161   0.0000       1.503299        40.9069 
 162   0.0000       1.514661        41.2160 
 163   0.0000       1.528452        41.5913 
 164   0.0000       1.532893        41.7121 
 165   0.0000       1.537568        41.8394 
 166   0.0000       1.549726        42.1702 
 167   0.0000       1.562208        42.5098 
 168   0.0000       1.580961        43.0201 
 169   0.0000       1.585063        43.1318 
 170   0.0000       1.615083        43.9486 
 171   0.0000       1.620040        44.0835 
 172   0.0000       1.628998        44.3273 
 173   0.0000       1.639877        44.6233 
 174   0.0000       1.653057        44.9820 
 175   0.0000       1.670491        45.4564 
 176   0.0000       1.687006        45.9058 
 177   0.0000       1.700244        46.2660 
 178   0.0000       1.703228        46.3472 
 179   0.0000       1.718194        46.7544 
 180   0.0000       1.721442        46.8428 
 181   0.0000       1.733386        47.1678 
 182   0.0000       1.750331        47.6289 
 183   0.0000       1.761024        47.9199 
 184   0.0000       1.765572        48.0437 
 185   0.0000       1.797074        48.9009 
 186   0.0000       1.827469        49.7280 
 187   0.0000       1.828956        49.7684 
 188   0.0000       1.839275        50.0492 
 189   0.0000       1.867584        50.8195 
 190   0.0000       1.883002        51.2391 
 191   0.0000       1.888230        51.3814 
 192   0.0000       1.916656        52.1549 
 193   0.0000       1.940499        52.8037 
 194   0.0000       1.956773        53.2465 
 195   0.0000       1.973070        53.6900 
 196   0.0000       1.979225        53.8574 
 197   0.0000       2.035505        55.3889 
 198   0.0000       2.050715        55.8028 
 199   0.0000       2.101931        57.1965 
 200   0.0000       2.118348        57.6432 
 201   0.0000       2.132275        58.0222 
 202   0.0000       2.164369        58.8955 
 203   0.0000       2.267913        61.7130 
 204   0.0000       2.311772        62.9065 
 205   0.0000       2.365525        64.3692 
 206   0.0000       2.403677        65.4074 
 207   0.0000       2.451615        66.7118 
 208   0.0000       2.486629        67.6646 
 209   0.0000       2.508719        68.2657 
 210   0.0000       2.565456        69.8096 
 211   0.0000       2.623738        71.3955 
 212   0.0000       2.626724        71.4768 
 213   0.0000       2.629869        71.5624 
 214   0.0000       2.666753        72.5660 
 215   0.0000       2.687786        73.1384 
 216   0.0000       2.695264        73.3419 
 217   0.0000       2.708945        73.7142 
 218   0.0000       2.745068        74.6971 
 219   0.0000       2.753948        74.9387 
 220   0.0000       2.771151        75.4068 
 221   0.0000       2.795907        76.0805 
 222   0.0000       2.813112        76.5487 
 223   0.0000       2.821717        76.7828 
 224   0.0000       2.826546        76.9142 
 225   0.0000       2.848934        77.5234 
 226   0.0000       2.864949        77.9592 
 227   0.0000       2.866432        77.9996 
 228   0.0000       2.886534        78.5466 
 229   0.0000       2.895335        78.7861 
 230   0.0000       2.907790        79.1250 
 231   0.0000       2.924718        79.5856 
 232   0.0000       2.928716        79.6944 
 233   0.0000       2.941237        80.0351 
 234   0.0000       2.961791        80.5944 
 235   0.0000       2.966438        80.7209 
 236   0.0000       2.969351        80.8001 
 237   0.0000       2.981647        81.1347 
 238   0.0000       3.005674        81.7886 
 239   0.0000       3.014336        82.0242 
 240   0.0000       3.020585        82.1943 
 241   0.0000       3.028388        82.4066 
 242   0.0000       3.033308        82.5405 
 243   0.0000       3.048774        82.9614 
 244   0.0000       3.053600        83.0927 
 245   0.0000       3.067529        83.4717 
 246   0.0000       3.077246        83.7361 
 247   0.0000       3.087903        84.0261 
 248   0.0000       3.103160        84.4413 
 249   0.0000       3.110214        84.6332 
 250   0.0000       3.121616        84.9435 
 251   0.0000       3.147087        85.6366 
 252   0.0000       3.186237        86.7019 
 253   0.0000       3.188856        86.7732 
 254   0.0000       3.196468        86.9803 
 255   0.0000       3.225531        87.7711 
 256   0.0000       3.241015        88.1925 
 257   0.0000       3.258972        88.6811 
 258   0.0000       3.260369        88.7191 
 259   0.0000       3.277182        89.1766 
 260   0.0000       3.285994        89.4164 
 261   0.0000       3.291527        89.5670 
 262   0.0000       3.314557        90.1937 
 263   0.0000       3.325830        90.5004 
 264   0.0000       3.332121        90.6716 
 265   0.0000       3.339950        90.8847 
 266   0.0000       3.350609        91.1747 
 267   0.0000       3.366088        91.5959 
 268   0.0000       3.380446        91.9866 
 269   0.0000       3.394728        92.3752 
 270   0.0000       3.410074        92.7928 
 271   0.0000       3.422526        93.1317 
 272   0.0000       3.430779        93.3562 
 273   0.0000       3.441671        93.6526 
 274   0.0000       3.444480        93.7291 
 275   0.0000       3.447992        93.8246 
 276   0.0000       3.453687        93.9796 
 277   0.0000       3.468936        94.3946 
 278   0.0000       3.482468        94.7628 
 279   0.0000       3.488267        94.9206 
 280   0.0000       3.494431        95.0883 
 281   0.0000       3.499628        95.2297 
 282   0.0000       3.514633        95.6380 
 283   0.0000       3.521077        95.8134 
 284   0.0000       3.537978        96.2733 
 285   0.0000       3.542181        96.3876 
 286   0.0000       3.555844        96.7594 
 287   0.0000       3.559273        96.8527 
 288   0.0000       3.574227        97.2597 
 289   0.0000       3.591790        97.7376 
 290   0.0000       3.598578        97.9223 
 291   0.0000       3.606984        98.1510 
 292   0.0000       3.611844        98.2833 
 293   0.0000       3.619921        98.5031 
 294   0.0000       3.638279        99.0026 
 295   0.0000       3.663432        99.6871 
 296   0.0000       3.666501        99.7706 
 297   0.0000       3.681640       100.1825 
 298   0.0000       3.691790       100.4587 
 299   0.0000       3.702508       100.7504 
 300   0.0000       3.709464       100.9397 
 301   0.0000       3.717876       101.1685 
 302   0.0000       3.728953       101.4700 
 303   0.0000       3.743224       101.8583 
 304   0.0000       3.752593       102.1132 
 305   0.0000       3.764206       102.4293 
 306   0.0000       3.775167       102.7275 
 307   0.0000       3.810972       103.7018 
 308   0.0000       3.814713       103.8036 
 309   0.0000       3.824381       104.0667 
 310   0.0000       3.836155       104.3871 
 311   0.0000       3.840051       104.4931 
 312   0.0000       3.845856       104.6511 
 313   0.0000       3.848379       104.7197 
 314   0.0000       3.860688       105.0547 
 315   0.0000       3.882980       105.6613 
 316   0.0000       3.892188       105.9118 
 317   0.0000       3.924523       106.7917 
 318   0.0000       3.938620       107.1753 
 319   0.0000       3.946242       107.3827 
 320   0.0000       3.962438       107.8234 
 321   0.0000       3.981383       108.3389 
 322   0.0000       4.001323       108.8815 
 323   0.0000       4.006595       109.0250 
 324   0.0000       4.014021       109.2271 
 325   0.0000       4.023653       109.4892 
 326   0.0000       4.035559       109.8131 
 327   0.0000       4.038103       109.8824 
 328   0.0000       4.045266       110.0773 
 329   0.0000       4.065665       110.6324 
 330   0.0000       4.076105       110.9165 
 331   0.0000       4.086790       111.2072 
 332   0.0000       4.097359       111.4948 
 333   0.0000       4.105656       111.7206 
 334   0.0000       4.117783       112.0506 
 335   0.0000       4.128821       112.3509 
 336   0.0000       4.143177       112.7416 
 337   0.0000       4.160574       113.2150 
 338   0.0000       4.168611       113.4337 
 339   0.0000       4.182409       113.8091 
 340   0.0000       4.191776       114.0640 
 341   0.0000       4.199294       114.2686 
 342   0.0000       4.221680       114.8778 
 343   0.0000       4.231434       115.1432 
 344   0.0000       4.248941       115.6196 
 345   0.0000       4.253818       115.7523 
 346   0.0000       4.271116       116.2230 
 347   0.0000       4.278309       116.4187 
 348   0.0000       4.299306       116.9901 
 349   0.0000       4.321361       117.5902 
 350   0.0000       4.332061       117.8814 
 351   0.0000       4.341161       118.1290 
 352   0.0000       4.346432       118.2724 
 353   0.0000       4.353562       118.4665 
 354   0.0000       4.362815       118.7182 
 355   0.0000       4.365124       118.7811 
 356   0.0000       4.368639       118.8767 
 357   0.0000       4.386756       119.3697 
 358   0.0000       4.393873       119.5634 
 359   0.0000       4.407250       119.9274 
 360   0.0000       4.417110       120.1957 
 361   0.0000       4.427053       120.4662 
 362   0.0000       4.453683       121.1909 
 363   0.0000       4.462933       121.4426 
 364   0.0000       4.475964       121.7972 
 365   0.0000       4.479285       121.8875 
 366   0.0000       4.497052       122.3710 
 367   0.0000       4.506337       122.6237 
 368   0.0000       4.518740       122.9612 
 369   0.0000       4.526567       123.1741 
 370   0.0000       4.547165       123.7346 
 371   0.0000       4.564636       124.2101 
 372   0.0000       4.568861       124.3250 
 373   0.0000       4.592998       124.9818 
 374   0.0000       4.595077       125.0384 
 375   0.0000       4.600893       125.1967 
 376   0.0000       4.613762       125.5468 
 377   0.0000       4.628593       125.9504 
 378   0.0000       4.645619       126.4137 
 379   0.0000       4.655195       126.6743 
 380   0.0000       4.660696       126.8240 
 381   0.0000       4.668211       127.0285 
 382   0.0000       4.682764       127.4245 
 383   0.0000       4.707212       128.0897 
 384   0.0000       4.715483       128.3148 
 385   0.0000       4.721663       128.4830 
 386   0.0000       4.739636       128.9720 
 387   0.0000       4.762910       129.6054 
 388   0.0000       4.774973       129.9336 
 389   0.0000       4.797069       130.5349 
 390   0.0000       4.831548       131.4731 
 391   0.0000       4.838624       131.6657 
 392   0.0000       4.848544       131.9356 
 393   0.0000       4.875920       132.6805 
 394   0.0000       4.895703       133.2188 
 395   0.0000       4.902749       133.4106 
 396   0.0000       4.946479       134.6005 
 397   0.0000       4.992702       135.8583 
 398   0.0000       5.013041       136.4118 
 399   0.0000       5.025785       136.7586 
 400   0.0000       5.042364       137.2097 
 401   0.0000       5.057728       137.6278 
 402   0.0000       5.065000       137.8257 
 403   0.0000       5.098712       138.7430 
 404   0.0000       5.110084       139.0525 
 405   0.0000       5.122425       139.3883 
 406   0.0000       5.142104       139.9237 
 407   0.0000       5.176297       140.8542 
 408   0.0000       5.185040       141.0921 
 409   0.0000       5.201221       141.5324 
 410   0.0000       5.215612       141.9240 
 411   0.0000       5.231974       142.3692 
 412   0.0000       5.261437       143.1710 
 413   0.0000       5.292145       144.0066 
 414   0.0000       5.299394       144.2038 
 415   0.0000       5.314904       144.6259 
 416   0.0000       5.331315       145.0725 
 417   0.0000       5.339092       145.2841 
 418   0.0000       5.349729       145.5735 
 419   0.0000       5.371608       146.1689 
 420   0.0000       5.386280       146.5681 
 421   0.0000       5.392207       146.7294 
 422   0.0000       5.419966       147.4848 
 423   0.0000       5.430517       147.7719 
 424   0.0000       5.432064       147.8140 
 425   0.0000       5.442464       148.0970 
 426   0.0000       5.457003       148.4926 
 427   0.0000       5.482459       149.1853 
 428   0.0000       5.497603       149.5974 
 429   0.0000       5.538807       150.7186 
 430   0.0000       5.550516       151.0372 
 431   0.0000       5.565657       151.4492 
 432   0.0000       5.577038       151.7589 
 433   0.0000       5.595755       152.2682 
 434   0.0000       5.632202       153.2600 
 435   0.0000       5.644896       153.6054 
 436   0.0000       5.655233       153.8867 
 437   0.0000       5.664651       154.1430 
 438   0.0000       5.673612       154.3868 
 439   0.0000       5.680564       154.5760 
 440   0.0000       5.698486       155.0637 
 441   0.0000       5.751938       156.5182 
 442   0.0000       5.769688       157.0012 
 443   0.0000       5.780704       157.3010 
 444   0.0000       5.808522       158.0579 
 445   0.0000       5.815804       158.2561 
 446   0.0000       5.829061       158.6168 
 447   0.0000       5.835136       158.7821 
 448   0.0000       5.844012       159.0237 
 449   0.0000       5.859748       159.4518 
 450   0.0000       5.868791       159.6979 
 451   0.0000       5.922370       161.1559 
 452   0.0000       5.946596       161.8151 
 453   0.0000       5.970172       162.4566 
 454   0.0000       5.987075       162.9166 
 455   0.0000       6.005081       163.4066 
 456   0.0000       6.006345       163.4409 
 457   0.0000       6.098640       165.9524 
 458   0.0000       6.113583       166.3590 
 459   0.0000       6.139235       167.0571 
 460   0.0000       6.169814       167.8892 
 461   0.0000       6.199628       168.7005 
 462   0.0000       6.265219       170.4853 
 463   0.0000       6.316891       171.8913 
 464   0.0000       6.387053       173.8005 
 465   0.0000       6.417309       174.6239 
 466   0.0000       6.457817       175.7261 
 467   0.0000       6.480312       176.3383 
 468   0.0000       6.484019       176.4391 
 469   0.0000       6.520283       177.4259 
 470   0.0000       6.564751       178.6360 
 471   0.0000       6.681338       181.8085 
 472   0.0000       6.719785       182.8546 
 473   0.0000       6.787158       184.6880 
 474   0.0000       6.836180       186.0219 
 475   0.0000       6.923268       188.3917 
 476   0.0000       7.039576       191.5566 
 477   0.0000       7.234782       196.8684 
 478   0.0000       7.267454       197.7575 
 479   0.0000       7.373814       200.6517 
 480   0.0000       7.414742       201.7654 
 481   0.0000       7.467371       203.1975 
 482   0.0000       7.585614       206.4151 
 483   0.0000       7.655012       208.3035 
 484   0.0000       7.830593       213.0813 
 485   0.0000       7.980173       217.1515 
 486   0.0000       9.952841       270.8306 
 487   0.0000      11.923514       324.4553 
 488   0.0000      12.528260       340.9113 
 489   0.0000      12.931971       351.8968 
 490   0.0000      13.272461       361.1620 
 491   0.0000      13.480137       366.8132 
 492   0.0000      13.548642       368.6773 
 493   0.0000      13.624363       370.7378 
 494   0.0000      13.663871       371.8128 
 495   0.0000      14.165821       385.4716 

                    ********************************
                    * MULLIKEN POPULATION ANALYSIS *
                    ********************************

-----------------------
MULLIKEN ATOMIC CHARGES
-----------------------
   0 C :   -0.191545
   1 C :   -0.105519
   2 C :   -0.211522
   3 C :   -0.201536
   4 C :   -0.192025
   5 C :   -0.206831
   6 C :    0.410773
   7 O :   -0.324540
   8 C :   -0.068439
   9 O :   -0.416110
  10 H :    0.127986
  11 H :    0.102977
  12 H :    0.114231
  13 H :    0.091650
  14 H :    0.082924
  15 H :    0.109685
  16 H :    0.135950
  17 H :    0.109283
  18 H :    0.113534
  19 H :    0.102420
  20 H :    0.118534
  21 H :    0.109060
  22 H :    0.096666
  23 H :    0.092396
Sum of atomic charges:   -0.0000000

--------------------------------
MULLIKEN REDUCED ORBITAL CHARGES
--------------------------------
  0 C s       :     3.206364  s :     3.206364
      pz      :     0.952057  p :     2.863097
      px      :     0.927215
      py      :     0.983824
      dz2     :     0.025245  d :     0.115241
      dxz     :     0.030864
      dyz     :     0.012217
      dx2y2   :     0.022017
      dxy     :     0.024898
      f0      :     0.000874  f :     0.006844
      f+1     :     0.001732
      f-1     :     0.000727
      f+2     :     0.000458
      f-2     :     0.000842
      f+3     :     0.001256
      f-3     :     0.000954
  1 C s       :     3.162557  s :     3.162557
      pz      :     1.017492  p :     2.817611
      px      :     0.869615
      py      :     0.930504
      dz2     :     0.020799  d :     0.117383
      dxz     :     0.032886
      dyz     :     0.014366
      dx2y2   :     0.027505
      dxy     :     0.021827
      f0      :     0.001094  f :     0.007969
      f+1     :     0.001021
      f-1     :     0.000636
      f+2     :     0.001163
      f-2     :     0.001028
      f+3     :     0.001539
      f-3     :     0.001487
  2 C s       :     3.218348  s :     3.218348
      pz      :     0.948772  p :     2.870601
      px      :     0.997848
      py      :     0.923980
      dz2     :     0.024983  d :     0.115798
      dxz     :     0.028170
      dyz     :     0.015357
      dx2y2   :     0.015427
      dxy     :     0.031861
      f0      :     0.000929  f :     0.006776
      f+1     :     0.001674
      f-1     :     0.000758
      f+2     :     0.000579
      f-2     :     0.000705
      f+3     :     0.001044
      f-3     :     0.001088
  3 C s       :     3.216581  s :     3.216581
      pz      :     0.932520  p :     2.864606
      px      :     0.940417
      py      :     0.991668
      dz2     :     0.023656  d :     0.113696
      dxz     :     0.033474
      dyz     :     0.010823
      dx2y2   :     0.023698
      dxy     :     0.022045
      f0      :     0.000927  f :     0.006652
      f+1     :     0.001706
      f-1     :     0.000689
      f+2     :     0.000418
      f-2     :     0.000787
      f+3     :     0.001194
      f-3     :     0.000929
  4 C s       :     3.214705  s :     3.214705
      pz      :     1.023504  p :     2.856655
      px      :     0.944585
      py      :     0.888566
      dz2     :     0.018094  d :     0.113988
      dxz     :     0.033233
      dyz     :     0.015307
      dx2y2   :     0.022876
      dxy     :     0.024477
      f0      :     0.000751  f :     0.006677
      f+1     :     0.001294
      f-1     :     0.000695
      f+2     :     0.000356
      f-2     :     0.000831
      f+3     :     0.001401
      f-3     :     0.001350
  5 C s       :     3.221332  s :     3.221332
      pz      :     0.946225  p :     2.866741
      px      :     0.988645
      py      :     0.931870
      dz2     :     0.023156  d :     0.112137
      dxz     :     0.027921
      dyz     :     0.015853
      dx2y2   :     0.015234
      dxy     :     0.029973
      f0      :     0.000860  f :     0.006621
      f+1     :     0.001681
      f-1     :     0.000705
      f+2     :     0.000578
      f-2     :     0.000708
      f+3     :     0.001007
      f-3     :     0.001083
  6 C s       :     3.097539  s :     3.097539
      pz      :     0.709040  p :     2.165120
      px      :     0.771107
      py      :     0.684973
      dz2     :     0.055529  d :     0.300211
      dxz     :     0.048996
      dyz     :     0.044748
      dx2y2   :     0.065716
      dxy     :     0.085222
      f0      :     0.002611  f :     0.026358
      f+1     :     0.001668
      f-1     :     0.004370
      f+2     :     0.002318
      f-2     :     0.005625
      f+3     :     0.005097
      f-3     :     0.004669
  7 O s       :     3.716745  s :     3.716745
      pz      :     1.689420  p :     4.569522
      px      :     1.284569
      py      :     1.595533
      dz2     :     0.004838  d :     0.036042
      dxz     :     0.008507
      dyz     :     0.003760
      dx2y2   :     0.006717
      dxy     :     0.012221
      f0      :     0.000261  f :     0.002231
      f+1     :     0.000309
      f-1     :     0.000167
      f+2     :     0.000286
      f-2     :     0.000297
      f+3     :     0.000472
      f-3     :     0.000438
  8 C s       :     3.220137  s :     3.220137
      pz      :     0.928552  p :     2.731916
      px      :     0.767870
      py      :     1.035494
      dz2     :     0.025019  d :     0.106976
      dxz     :     0.024904
      dyz     :     0.009476
      dx2y2   :     0.021012
      dxy     :     0.026566
      f0      :     0.001522  f :     0.009411
      f+1     :     0.002370
      f-1     :     0.000125
      f+2     :     0.001474
      f-2     :     0.001061
      f+3     :     0.001670
      f-3     :     0.001188
  9 O s       :     3.758101  s :     3.758101
      pz      :     1.431966  p :     4.620381
      px      :     1.761000
      py      :     1.427415
      dz2     :     0.008007  d :     0.035227
      dxz     :     0.002572
      dyz     :     0.011308
      dx2y2   :     0.007717
      dxy     :     0.005623
      f0      :     0.000226  f :     0.002402
      f+1     :     0.000031
      f-1     :     0.000604
      f+2     :     0.000602
      f-2     :     0.000310
      f+3     :     0.000295
      f-3     :     0.000333
 10 H s       :     0.840274  s :     0.840274
      pz      :     0.008177  p :     0.029276
      px      :     0.010031
      py      :     0.011068
      dz2     :     0.000209  d :     0.002465
      dxz     :     0.000540
      dyz     :     0.000305
      dx2y2   :     0.000875
      dxy     :     0.000536
 11 H s       :     0.866577  s :     0.866577
      pz      :     0.010912  p :     0.027978
      px      :     0.008075
      py      :     0.008991
      dz2     :     0.000877  d :     0.002468
      dxz     :     0.000479
      dyz     :     0.000404
      dx2y2   :     0.000245
      dxy     :     0.000461
 12 H s       :     0.855150  s :     0.855150
      pz      :     0.008719  p :     0.028181
      px      :     0.008148
      py      :     0.011314
      dz2     :     0.000211  d :     0.002437
      dxz     :     0.000207
      dyz     :     0.000627
      dx2y2   :     0.000711
      dxy     :     0.000682
 13 H s       :     0.877631  s :     0.877631
      pz      :     0.011558  p :     0.028296
      px      :     0.009305
      py      :     0.007434
      dz2     :     0.000867  d :     0.002423
      dxz     :     0.000535
      dyz     :     0.000358
      dx2y2   :     0.000301
      dxy     :     0.000362
 14 H s       :     0.886991  s :     0.886991
      pz      :     0.007484  p :     0.027662
      px      :     0.011234
      py      :     0.008944
      dz2     :     0.000578  d :     0.002423
      dxz     :     0.000502
      dyz     :     0.000360
      dx2y2   :     0.000394
      dxy     :     0.000590
 15 H s       :     0.859254  s :     0.859254
      pz      :     0.008926  p :     0.028619
      px      :     0.010486
      py      :     0.009207
      dz2     :     0.000571  d :     0.002442
      dxz     :     0.000709
      dyz     :     0.000710
      dx2y2   :     0.000150
      dxy     :     0.000301
 16 H s       :     0.827592  s :     0.827592
      pz      :     0.013217  p :     0.033566
      px      :     0.010068
      py      :     0.010281
      dz2     :     0.000813  d :     0.002892
      dxz     :     0.000851
      dyz     :     0.000883
      dx2y2   :     0.000103
      dxy     :     0.000241
 17 H s       :     0.860172  s :     0.860172
      pz      :     0.008371  p :     0.028104
      px      :     0.008573
      py      :     0.011160
      dz2     :     0.000198  d :     0.002440
      dxz     :     0.000535
      dyz     :     0.000302
      dx2y2   :     0.000887
      dxy     :     0.000518
 18 H s       :     0.855525  s :     0.855525
      pz      :     0.010626  p :     0.028493
      px      :     0.009090
      py      :     0.008776
      dz2     :     0.000859  d :     0.002448
      dxz     :     0.000500
      dyz     :     0.000421
      dx2y2   :     0.000244
      dxy     :     0.000423
 19 H s       :     0.866096  s :     0.866096
      pz      :     0.011535  p :     0.029021
      px      :     0.009914
      py      :     0.007572
      dz2     :     0.000877  d :     0.002463
      dxz     :     0.000550
      dyz     :     0.000364
      dx2y2   :     0.000289
      dxy     :     0.000383
 20 H s       :     0.848945  s :     0.848945
      pz      :     0.008436  p :     0.030000
      px      :     0.008843
      py      :     0.012721
      dz2     :     0.000235  d :     0.002522
      dxz     :     0.000224
      dyz     :     0.000624
      dx2y2   :     0.000738
      dxy     :     0.000702
 21 H s       :     0.864099  s :     0.864099
      pz      :     0.007456  p :     0.024820
      px      :     0.006345
      py      :     0.011019
      dz2     :     0.000315  d :     0.002021
      dxz     :     0.000224
      dyz     :     0.000315
      dx2y2   :     0.000471
      dxy     :     0.000695
 22 H s       :     0.876682  s :     0.876682
      pz      :     0.006660  p :     0.024605
      px      :     0.005822
      py      :     0.012123
      dz2     :     0.000345  d :     0.002047
      dxz     :     0.000123
      dyz     :     0.000394
      dx2y2   :     0.000529
      dxy     :     0.000656
 23 H s       :     0.881256  s :     0.881256
      pz      :     0.011524  p :     0.024300
      px      :     0.004286
      py      :     0.008490
      dz2     :     0.000960  d :     0.002048
      dxz     :     0.000431
      dyz     :     0.000596
      dx2y2   :    -0.000003
      dxy     :     0.000063


                     *******************************
                     * LOEWDIN POPULATION ANALYSIS *
                     *******************************

----------------------
LOEWDIN ATOMIC CHARGES
----------------------
   0 C :    0.071084
   1 C :   -0.015546
   2 C :    0.069562
   3 C :    0.057805
   4 C :    0.056147
   5 C :    0.062128
   6 C :   -0.408370
   7 O :    0.300388
   8 C :    0.054846
   9 O :    0.106509
  10 H :   -0.025307
  11 H :   -0.022080
  12 H :   -0.025591
  13 H :   -0.026560
  14 H :   -0.028192
  15 H :   -0.026622
  16 H :   -0.008259
  17 H :   -0.026623
  18 H :   -0.023877
  19 H :   -0.023999
  20 H :   -0.020394
  21 H :   -0.031979
  22 H :   -0.032110
  23 H :   -0.032963

-------------------------------
LOEWDIN REDUCED ORBITAL CHARGES
-------------------------------
  0 C s       :     2.656451  s :     2.656451
      pz      :     0.940018  p :     2.815192
      px      :     0.930599
      py      :     0.944576
      dz2     :     0.091673  d :     0.417558
      dxz     :     0.117714
      dyz     :     0.044074
      dx2y2   :     0.074399
      dxy     :     0.089699
      f0      :     0.005711  f :     0.039715
      f+1     :     0.005996
      f-1     :     0.006051
      f+2     :     0.005152
      f-2     :     0.005768
      f+3     :     0.006254
      f-3     :     0.004783
  1 C s       :     2.665598  s :     2.665598
      pz      :     0.952764  p :     2.812324
      px      :     0.924378
      py      :     0.935182
      dz2     :     0.084873  d :     0.489210
      dxz     :     0.116083
      dyz     :     0.058974
      dx2y2   :     0.115220
      dxy     :     0.114060
      f0      :     0.006039  f :     0.048414
      f+1     :     0.005263
      f-1     :     0.004417
      f+2     :     0.007642
      f-2     :     0.007552
      f+3     :     0.008179
      f-3     :     0.009322
  2 C s       :     2.658145  s :     2.658145
      pz      :     0.940443  p :     2.814247
      px      :     0.959373
      py      :     0.914431
      dz2     :     0.091419  d :     0.418604
      dxz     :     0.101716
      dyz     :     0.062965
      dx2y2   :     0.056200
      dxy     :     0.106303
      f0      :     0.005671  f :     0.039441
      f+1     :     0.005763
      f-1     :     0.006455
      f+2     :     0.005861
      f-2     :     0.005013
      f+3     :     0.004876
      f-3     :     0.005802
  3 C s       :     2.659553  s :     2.659553
      pz      :     0.933609  p :     2.820712
      px      :     0.938287
      py      :     0.948816
      dz2     :     0.090849  d :     0.422168
      dxz     :     0.123215
      dyz     :     0.043359
      dx2y2   :     0.081371
      dxy     :     0.083374
      f0      :     0.006168  f :     0.039762
      f+1     :     0.005912
      f-1     :     0.005923
      f+2     :     0.005089
      f-2     :     0.005815
      f+3     :     0.006260
      f-3     :     0.004594
  4 C s       :     2.660260  s :     2.660260
      pz      :     0.969734  p :     2.820362
      px      :     0.935051
      py      :     0.915576
      dz2     :     0.065087  d :     0.423438
      dxz     :     0.110156
      dyz     :     0.053623
      dx2y2   :     0.094441
      dxy     :     0.100131
      f0      :     0.004081  f :     0.039793
      f+1     :     0.004745
      f-1     :     0.004640
      f+2     :     0.005040
      f-2     :     0.005818
      f+3     :     0.007324
      f-3     :     0.008146
  5 C s       :     2.658528  s :     2.658528
      pz      :     0.937695  p :     2.821419
      px      :     0.956409
      py      :     0.927315
      dz2     :     0.091652  d :     0.418326
      dxz     :     0.098126
      dyz     :     0.064560
      dx2y2   :     0.055684
      dxy     :     0.108304
      f0      :     0.005782  f :     0.039599
      f+1     :     0.005970
      f-1     :     0.006164
      f+2     :     0.005636
      f-2     :     0.005138
      f+3     :     0.004633
      f-3     :     0.006277
  6 C s       :     2.756114  s :     2.756114
      pz      :     0.793854  p :     2.522152
      px      :     0.861879
      py      :     0.866418
      dz2     :     0.161503  d :     0.969283
      dxz     :     0.157242
      dyz     :     0.172654
      dx2y2   :     0.217659
      dxy     :     0.260224
      f0      :     0.017186  f :     0.160821
      f+1     :     0.011202
      f-1     :     0.021498
      f+2     :     0.014706
      f-2     :     0.034462
      f+3     :     0.033631
      f-3     :     0.028136
  7 O s       :     3.228941  s :     3.228941
      pz      :     1.558587  p :     4.366463
      px      :     1.269204
      py      :     1.538673
      dz2     :     0.015053  d :     0.098567
      dxz     :     0.020126
      dyz     :     0.007806
      dx2y2   :     0.022138
      dxy     :     0.033445
      f0      :     0.000430  f :     0.005641
      f+1     :     0.000933
      f-1     :     0.000359
      f+2     :     0.000514
      f-2     :     0.001025
      f+3     :     0.001090
      f-3     :     0.001290
  8 C s       :     2.687649  s :     2.687649
      pz      :     0.947609  p :     2.763234
      px      :     0.795907
      py      :     1.019719
      dz2     :     0.123106  d :     0.432728
      dxz     :     0.093804
      dyz     :     0.028681
      dx2y2   :     0.064711
      dxy     :     0.122427
      f0      :     0.006230  f :     0.061543
      f+1     :     0.013140
      f-1     :     0.002174
      f+2     :     0.013355
      f-2     :     0.009821
      f+3     :     0.009283
      f-3     :     0.007540
  9 O s       :     3.375107  s :     3.375107
      pz      :     1.402490  p :     4.448335
      px      :     1.588062
      py      :     1.457783
      dz2     :     0.008437  d :     0.064920
      dxz     :     0.006116
      dyz     :     0.023883
      dx2y2   :     0.014754
      dxy     :     0.011730
      f0      :     0.000421  f :     0.005128
      f+1     :     0.000081
      f-1     :     0.000948
      f+2     :     0.001299
      f-2     :     0.000951
      f+3     :     0.000711
      f-3     :     0.000719
 10 H s       :     0.841051  s :     0.841051
      pz      :     0.040112  p :     0.155779
      px      :     0.060425
      py      :     0.055241
      dz2     :     0.002547  d :     0.028477
      dxz     :     0.005772
      dyz     :     0.003642
      dx2y2   :     0.009147
      dxy     :     0.007370
 11 H s       :     0.841783  s :     0.841783
      pz      :     0.058791  p :     0.152059
      px      :     0.053654
      py      :     0.039614
      dz2     :     0.008460  d :     0.028237
      dxz     :     0.006934
      dyz     :     0.004656
      dx2y2   :     0.003601
      dxy     :     0.004585
 12 H s       :     0.844665  s :     0.844665
      pz      :     0.039877  p :     0.152921
      px      :     0.044249
      py      :     0.068795
      dz2     :     0.002569  d :     0.028004
      dxz     :     0.001971
      dyz     :     0.007312
      dx2y2   :     0.007849
      dxy     :     0.008304
 13 H s       :     0.846120  s :     0.846120
      pz      :     0.059259  p :     0.152470
      px      :     0.054230
      py      :     0.038981
      dz2     :     0.008426  d :     0.027970
      dxz     :     0.007143
      dyz     :     0.004537
      dx2y2   :     0.003325
      dxy     :     0.004539
 14 H s       :     0.848513  s :     0.848513
      pz      :     0.055365  p :     0.151702
      px      :     0.055887
      py      :     0.040450
      dz2     :     0.007833  d :     0.027977
      dxz     :     0.006776
      dyz     :     0.003921
      dx2y2   :     0.004228
      dxy     :     0.005219
 15 H s       :     0.845902  s :     0.845902
      pz      :     0.066143  p :     0.152763
      px      :     0.046549
      py      :     0.040071
      dz2     :     0.008985  d :     0.027957
      dxz     :     0.008332
      dyz     :     0.006789
      dx2y2   :     0.001538
      dxy     :     0.002313
 16 H s       :     0.822006  s :     0.822006
      pz      :     0.072251  p :     0.157151
      px      :     0.042990
      py      :     0.041910
      dz2     :     0.009705  d :     0.029102
      dxz     :     0.008880
      dyz     :     0.008109
      dx2y2   :     0.000817
      dxy     :     0.001591
 17 H s       :     0.845404  s :     0.845404
      pz      :     0.039865  p :     0.153183
      px      :     0.058121
      py      :     0.055197
      dz2     :     0.002427  d :     0.028035
      dxz     :     0.005902
      dyz     :     0.003423
      dx2y2   :     0.009187
      dxy     :     0.007096
 18 H s       :     0.840129  s :     0.840129
      pz      :     0.059799  p :     0.155357
      px      :     0.054935
      py      :     0.040623
      dz2     :     0.008521  d :     0.028391
      dxz     :     0.006976
      dyz     :     0.005034
      dx2y2   :     0.003512
      dxy     :     0.004348
 19 H s       :     0.843733  s :     0.843733
      pz      :     0.059664  p :     0.152065
      px      :     0.052975
      py      :     0.039426
      dz2     :     0.008655  d :     0.028201
      dxz     :     0.007210
      dyz     :     0.004616
      dx2y2   :     0.003194
      dxy     :     0.004526
 20 H s       :     0.838081  s :     0.838081
      pz      :     0.040042  p :     0.153922
      px      :     0.044639
      py      :     0.069241
      dz2     :     0.002590  d :     0.028391
      dxz     :     0.002155
      dyz     :     0.007304
      dx2y2   :     0.008124
      dxy     :     0.008218
 21 H s       :     0.860896  s :     0.860896
      pz      :     0.037829  p :     0.143994
      px      :     0.043593
      py      :     0.062571
      dz2     :     0.003496  d :     0.027089
      dxz     :     0.003624
      dyz     :     0.004818
      dx2y2   :     0.007889
      dxy     :     0.007261
 22 H s       :     0.860485  s :     0.860485
      pz      :     0.037743  p :     0.144726
      px      :     0.036645
      py      :     0.070337
      dz2     :     0.003801  d :     0.026899
      dxz     :     0.002407
      dyz     :     0.005918
      dx2y2   :     0.007346
      dxy     :     0.007426
 23 H s       :     0.861390  s :     0.861390
      pz      :     0.076525  p :     0.144684
      px      :     0.028465
      py      :     0.039694
      dz2     :     0.010009  d :     0.026890
      dxz     :     0.006842
      dyz     :     0.009196
      dx2y2   :     0.000098
      dxy     :     0.000745


                      *****************************
                      * MAYER POPULATION ANALYSIS *
                      *****************************

  NA   - Mulliken gross atomic population
  ZA   - Total nuclear charge
  QA   - Mulliken gross atomic charge
  VA   - Mayer's total valence
  BVA  - Mayer's bonded valence
  FA   - Mayer's free valence

  ATOM       NA         ZA         QA         VA         BVA        FA
  0 C      6.1915     6.0000    -0.1915     3.8478     3.8478    -0.0000
  1 C      6.1055     6.0000    -0.1055     3.7974     3.7974     0.0000
  2 C      6.2115     6.0000    -0.2115     3.8621     3.8621     0.0000
  3 C      6.2015     6.0000    -0.2015     3.8594     3.8594    -0.0000
  4 C      6.1920     6.0000    -0.1920     3.8603     3.8603    -0.0000
  5 C      6.2068     6.0000    -0.2068     3.8541     3.8541    -0.0000
  6 C      5.5892     6.0000     0.4108     4.1540     4.1540     0.0000
  7 O      8.3245     8.0000    -0.3245     2.0932     2.0932    -0.0000
  8 C      6.0684     6.0000    -0.0684     3.8734     3.8734     0.0000
  9 O      8.4161     8.0000    -0.4161     2.0903     2.0903    -0.0000
 10 H      0.8720     1.0000     0.1280     0.9899     0.9899     0.0000
 11 H      0.8970     1.0000     0.1030     0.9824     0.9824    -0.0000
 12 H      0.8858     1.0000     0.1142     0.9775     0.9775     0.0000
 13 H      0.9084     1.0000     0.0916     0.9857     0.9857    -0.0000
 14 H      0.9171     1.0000     0.0829     0.9846     0.9846     0.0000
 15 H      0.8903     1.0000     0.1097     0.9789     0.9789     0.0000
 16 H      0.8641     1.0000     0.1359     0.9857     0.9857     0.0000
 17 H      0.8907     1.0000     0.1093     0.9782     0.9782     0.0000
 18 H      0.8865     1.0000     0.1135     0.9922     0.9922    -0.0000
 19 H      0.8976     1.0000     0.1024     0.9846     0.9846    -0.0000
 20 H      0.8815     1.0000     0.1185     0.9916     0.9916    -0.0000
 21 H      0.8909     1.0000     0.1091     0.9755     0.9755    -0.0000
 22 H      0.9033     1.0000     0.0967     0.9770     0.9770     0.0000
 23 H      0.9076     1.0000     0.0924     0.9759     0.9759     0.0000

  Mayer bond orders larger than 0.1
B(  0-C ,  1-C ) :   0.9494 B(  0-C ,  5-C ) :   0.9449 B(  0-C , 19-H ) :   0.9923 
B(  0-C , 20-H ) :   0.9857 B(  1-C ,  2-C ) :   0.9449 B(  1-C ,  6-C ) :   0.9536 
B(  1-C , 16-H ) :   0.9789 B(  2-C ,  3-C ) :   0.9471 B(  2-C , 10-H ) :   0.9858 
B(  2-C , 11-H ) :   0.9848 B(  3-C ,  4-C ) :   0.9461 B(  3-C , 12-H ) :   0.9926 
B(  3-C , 13-H ) :   0.9814 B(  4-C ,  5-C ) :   0.9472 B(  4-C , 14-H ) :   0.9848 
B(  4-C , 15-H ) :   0.9949 B(  5-C , 17-H ) :   0.9924 B(  5-C , 18-H ) :   0.9783 
B(  6-C ,  7-O ) :   1.1764 B(  6-C ,  9-O ) :   2.0094 B(  7-O ,  8-C ) :   0.9167 
B(  8-C , 21-H ) :   0.9801 B(  8-C , 22-H ) :   0.9747 B(  8-C , 23-H ) :   0.9724 


-------
TIMINGS
-------

Total SCF time: 0 days 0 hours 0 min 46 sec 

Total time                  ....      46.735 sec
Sum of individual times     ....      46.252 sec  ( 99.0%)

Fock matrix formation       ....      44.778 sec  ( 95.8%)
Diagonalization             ....       0.299 sec  (  0.6%)
Density matrix formation    ....       0.038 sec  (  0.1%)
Population analysis         ....       0.099 sec  (  0.2%)
Initial guess               ....       0.444 sec  (  1.0%)
Orbital Transformation      ....       0.000 sec  (  0.0%)
Orbital Orthonormalization  ....       0.000 sec  (  0.0%)
DIIS solution               ....       0.000 sec  (  0.0%)
SOSCF solution              ....       0.345 sec  (  0.7%)


           ************************************************************
           *        Program running with 8 parallel MPI-processes     *
           *              working on a common directory               *
           ************************************************************


------------------------------------------------------------------------------- 
                              ORCA-MATRIX DRIVEN CI                            
------------------------------------------------------------------------------- 


Wavefunction type
-----------------
Correlation treatment                      ...      CCSD     
Single excitations                         ... ON
Orbital optimization                       ... OFF
Calculation of Z vector                    ... OFF
Calculation of Brueckner orbitals          ... OFF
Perturbative triple excitations            ... ON
Calculation of F12 correction              ... OFF
Frozen core treatment                      ... chemical core (20 el)
Reference Wavefunction                     ... RHF
  Internal Orbitals:    10 ...   38 ( 29 MO's/ 58 electrons)
  Virtual  Orbitals:    39 ...  495 (457 MO's              )
Number of AO's                             ...    496
Number of electrons                        ...     78
[...]
Sorting integrals (0.2 sec, 134.982 MB)
Total time for the integral transformation: 1.7 sec
--------------------------------
INITIAL GUESS AND PNO GENERATION
--------------------------------

PNO truncation parameters                   .... 
    ScaleTCutPNO       =        1.000e-02
    PAOOverlapThresh   =        1.000e-08

    TCutPairs          =        1.000e-05
    TCutPNO            =        1.000e-07
    TCutPNOSingles     =        3.000e-09
    TCutMP2Pairs       =        1.000e-06
    TCutMKN            =        1.000e-03
    TCutDO             =        5.000e-03

Pair selection                          .... not used
Type of local MP2 treatment                 .... full local PMP2
Strategy for PNO selection                  .... occupation number selection
Pair density normalization                  .... MP2 norm
Spin component scaling                      .... not used

PASS-1: Formation of initial guess LMP2 amplitudes
Initial amplitudes guess done. Entering LMP2 iteration loop:
   Max. no of iterations          ...  50
   Energy convergence tolerance   ...    1.0e-07
   Residual convergence tolerance ...    5.0e-07
   Fock matrix cutoff             ...    1.0e-05 Eh
   DIIS convergence acceleration parameters:
        Max # vectors in DIIS     ... 7
        Start iteration of DIIS   ... 0
        Levelshift                ... 2.000e-01
        Damping factor 1          ... 5.000e-01
        Damping factor 2          ... 1.000e+00
   L-MP2 PNO cut-off              ...   1.0e-09
   L-MP2 PNO cut-off (core)       ...   1.0e-11
                           *** Turning on DIIS ***
LMP2-Iter=   0:  ELMP2= -1.802639728763  DE=   3.8e-02 RMAX=   1.9e-02
LMP2-Iter=   1:  ELMP2= -1.821369410291  DE=   1.9e-02 RMAX=   8.5e-03
LMP2-Iter=   2:  ELMP2= -1.824547058452  DE=   3.2e-03 RMAX=   3.4e-03
LMP2-Iter=   3:  ELMP2= -1.824934878727  DE=   3.9e-04 RMAX=   1.2e-03
LMP2-Iter=   4:  ELMP2= -1.824938833850  DE=   4.0e-06 RMAX=   3.6e-04
LMP2-Iter=   5:  ELMP2= -1.824929298140  DE=   9.5e-06 RMAX=   9.3e-05
LMP2-Iter=   6:  ELMP2= -1.824927233386  DE=   2.1e-06 RMAX=   1.5e-05
LMP2-Iter=   7:  ELMP2= -1.824927192452  DE=   4.1e-08 RMAX=   2.4e-06
LMP2-Iter=   8:  ELMP2= -1.824927249081  DE=   5.7e-08 RMAX=   2.3e-07
LMP2-Iter=   9:  ELMP2= -1.824927251590  DE=   2.5e-09 RMAX=   6.2e-08 => CONVERGED
PASS-2: Formation of Pair natural orbitals
   .... Finished loop over pairs

 PNO Occupation Number Statistics: 
  | Av. % of trace(Dij) retained        ...  99.109326849387
  | sigma^2 in % of trace(Dij) retained ...   9.26e-01
  | Av. % of trace(Di) retained         ...  99.999698645272
  | sigma^2 in % of trace(Di) retained  ...   6.78e-09
 Distributions of % trace(Dij) recovered:
  |       >= 99.9  ...    91 ( 20.9 % of all pairs)
  |   [90.0, 99.0) ...   143 ( 32.9 % of all pairs)
  |   [99.0, 99.9) ...   201 ( 46.2 % of all pairs)
 Distributions of % trace(Di) recovered :
  |       >= 99.9  ...    29 (100.0 % of all I-pairs )

Making pair pair interaction lists          ... done

                       ===========================
                        400 OF  435 PAIRS ARE KEPT
                       ===========================

Total time spent in the initial guess                 ...    53.036 sec
L-MP2 correlation energy (all non-screened pairs)     ...      -1.824927251590 Eh
L-MP2 PNO error correction                            ...      -0.000053595117 Eh
                                                          --------------------
Initial total L-MP2 energy (non-screened pairs)       ...      -1.824980846707 Eh

Initial PNO correlation energy                        ...      -1.822749238551 Eh
sum of pair energies estimated for screened out pairs ...       0.000000000000 Eh
sum of MP2 pair energies for pairs that were not kept ...      -0.000234041609 Eh
sum of PNO error estimates for the kept pairs         ...      -0.002037773293 Eh
                                                          --------------------
sum of all corrections                                         -0.002271814902
Initial total correlation energy                               -1.825021053453
Thresholds for map construction and integral transformation for fine MP2 and CCSD(T) calculation:
   TCutMKN   ...     1.0e-03
   TCutDO    ...     5.0e-03
   TCutPairs ...     1.0e-05
   TCutCMO   ...     1.0e-03
   TCutCPAO  ...     1.0e-03

Time for aux screen maps:            0.010
Time for maps after fine MP2:            0.035
-----------------------------
LOCAL RI TRANSFORMATION (IJV)
-----------------------------

Orbital window:      10 to 38
Basis functions:    496 (184 shells)
Aux. functions:    1230 (370 shells)

Processing maps (0.0 sec)
Average map sizes:
   Aux shells -> MOs(i)           29.0
   Aux shells -> MOs(j)           29.0
   MOs        -> AO shells       172.3

Calculating integrals (1.3 sec, 7.906 MB)
Sorting integrals (0.0 sec, 7.892 MB)
Total time for the integral transformation: 1.4 sec
--------------------------------
LOCAL RI TRANSFORMATION (VABPAO)
--------------------------------

Number of PAOs:     496
Basis functions:    496 (184 shells)
Aux. functions:    1230 (370 shells)

Processing maps (0.0 sec)
Average map sizes:
   Aux shells -> PAOs            496.0
   PAOs       -> AO shells       182.4

Calculating integrals (6.2 sec, 4345.173 MB)
Finished


-------------------------------------
Pair Pair Term precalculation with     
RI-(ij|mn) and (im|jn) transformation  
ON THE FLY                             
-------------------------------------

   IBatch   1 (of   3)              ... done (   96.626 sec)
   IBatch   2 (of   3)              ... done (  115.551 sec)
   IBatch   3 (of   3)              ... done (   26.088 sec)
Total EXT                           ...         238.271 sec

---------------------
RI-PNO TRANSFORMATION
---------------------

Total Number of PNOs                   ... 14168
Average number of PNOs per pair        ...    35
Maximal number of PNOs per pair        ...    72
   #pairs with  1 -  5 PNOs   :    0
   #pairs with  6 - 10 PNOs   :   56
   #pairs with 11 - 15 PNOs   :   30
   #pairs with 16 - 20 PNOs   :   30
   #pairs with 21 - 25 PNOs   :   31
   #pairs with 26 - 30 PNOs   :   40
   #pairs with 31 - 35 PNOs   :   26
   #pairs with 36 - 40 PNOs   :   12
   #pairs with 41 - 45 PNOs   :   13
   #pairs with 46 - 50 PNOs   :   50
   #pairs with 51 - 55 PNOs   :   49
   #pairs with 56 - 60 PNOs   :   16
   #pairs with 61 - 65 PNOs   :   10
   #pairs with 66 - 70 PNOs   :   31
   #pairs with 71 - 75 PNOs   :    6

Generation of (ij|ab)[P] integrals            ... on
Generation of (ia|bc)[P],(ja|bc)[P] integrals ... on
Storage of 3 and 4 external integrals         ... on
Generation of ALL (ka|bc)[P] integrals        ... on
Keep RI integrals in memory                   ... off

Ibatch:  1 (of  1)
Starting 2-4 index PNO integral generation ... done

Timings:
Total PNO integral transformation time     ...        144.493 sec
Size of the 3-external file                ...       267 MB
Size of the 4-external file                ...      1907 MB
Size of the IKJL file                      ...         0 MB
Size of the all 3-external file            ...      3871 MB
Size of the 1-external file                ...         9 MB

Making pair/pair overlap matrices          ... done (   21.280 sec)
Size of the pair overlap file              ... 1070 MB
Redoing the guess amplitudes               ... done (    5.223 sec)

-------------------------
FINAL STARTUP INFORMATION
-------------------------

E(0)                                       ...   -461.006126721
E(L-MP2)                                   ...     -1.824980847
E(L-MP2) including corrections             ...     -1.825021053
Initial E(tot)                             ...   -462.831147774
<T|T>                                      ...      0.484169471
Number of pairs included                   ... 400
Total number of pairs                      ... 435

------------------------------------------------
                  RHF COUPLED CLUSTER ITERATIONS
------------------------------------------------

Number of PNO amplitudes to be optimized   ...       654576
Number of non-PNO amplitudes               ...     83539600
Untruncated number of regular amplitudes   ...     90849315

Iter       E(tot)           E(Corr)          Delta-E          Residual     Time
  0   -462.770641207     -1.762242672      0.062738175      0.018507692   25.19
                           *** Turning on DIIS ***
  1   -462.838674338     -1.830275802     -0.068033131      0.011662734   27.12
  2   -462.884472997     -1.876074462     -0.045798659      0.005865280   23.36
  3   -462.893695962     -1.885297427     -0.009222965      0.003401856   24.10
  4   -462.896085052     -1.887686517     -0.002389090      0.001712952   24.12
  5   -462.896716230     -1.888317694     -0.000631178      0.000760471   24.22
  6   -462.896881076     -1.888482540     -0.000164846      0.000351090   24.19
  7   -462.896912918     -1.888514383     -0.000031842      0.000145555   24.15
  8   -462.896909942     -1.888511406      0.000002977      0.000061024   24.16
  9   -462.896905534     -1.888506998      0.000004408      0.000028283   24.08
 10   -462.896904538     -1.888506003      0.000000996      0.000013840   24.10
 11   -462.896903948     -1.888505413      0.000000590      0.000007674   24.11
               --- The Coupled-Cluster iterations have converged ---

----------------------
COUPLED CLUSTER ENERGY
----------------------

E(0)                                       ...   -461.006126721
E(CORR)(strong-pairs)                      ...     -1.888505413
E(CORR)(weak-pairs)                        ...     -0.002271815
E(CORR)(corrected)                         ...     -1.890777228
E(TOT)                                     ...   -462.896903948
Singles Norm <S|S>**1/2                    ...      0.089310730  
T1 diagnostic                              ...      0.011727073  

------------------
LARGEST AMPLITUDES
------------------
  24-> 39  24-> 39       0.046901
  23-> 39  23-> 39       0.046546
  24-> 39  23-> 39       0.039030
  21-> 39  21-> 39       0.034908
  20-> 41  20-> 41       0.032938
  15-> 49  15-> 49       0.031433
  28-> 45  28-> 45       0.031348
  17-> 49  17-> 49       0.030946
  34-> 45  34-> 45       0.030889
  16-> 49  16-> 49       0.030443
  26-> 45  26-> 45       0.030075
  35-> 45  35-> 45       0.029518
  33-> 46  33-> 46       0.029002
  28-> 39  28-> 39       0.028772
  29-> 39  29-> 39       0.028486
  23-> 39  -1-> -1       0.028279


-------------------------------------------
DLPNO BASED TRIPLES CORRECTION
-------------------------------------------

Singles multiplier          ...  1.000000
TCutTNO                     ... 1.000e-09
TCutMP2Pairs                ... 1.000e-06
TCutDOStrong                ... 1.000e-02
TCutMKNStrong               ... 1.000e-02
TCutDOWeak                  ... 2.000e-02
TCutMKNWeak                 ... 1.000e-01

Fragment selection                          .... not used
Number of Triples that are to be computed   ...      4226

 . . . . . . . . .
10% done  
20% done  
30% done  
40% done  
50% done  
60% done  
70% done  
80% done               (    838.296 sec)
 . . . . . . . . .
90% done               (    141.606 sec)
Triples timings:
Total time for T0               ...  1052.115 sec
Total time for Iterative (T)    ...     0.000 sec
Total time of overall (T)       ...  1210.823 sec

Triples List generation         ...     0.013 sec
TNO generation                  ...    72.136 sec
Pair density generation         ...     0.007 sec
Look up tables                  ...     0.000 sec
Generating 3-index integrals    ...   807.388 sec
  Make 4-ind.int. from 3-ind.int...    42.303 sec
  Projecting amplitudes (D + S) ...    83.112 sec
  Downprojecting integrals      ...     0.008 sec
  Energy contr. (sum over a,b,c)...    11.999 sec
Fitting ET(->0)                 ...     0.000 sec

Everything after 3-index        ...   172.514 sec

Timing details:
 TNO integrals                  ...   843.523 sec
   Reading 3-index integrals    ...    26.713 sec
   Sorting integrals            ...    66.450 sec
       Sorting integrals 1      ...     0.026 sec
       Sorting integrals 2      ...    48.964 sec
       Sorting integrals 3      ...     1.833 sec
       Sorting integrals 4      ...     0.153 sec
       Sorting integrals 5      ...     0.740 sec
       Sorting integrals 6      ...    14.736 sec
   Calculating local VM**-1/2   ...     1.937 sec
   Orthogonal. integrals        ...     2.726 sec
   Multipl. 3-index integrals   ...   745.697 sec
   All concerning IRIab (w/TNO) ...    21.547 sec

 Calculate W0/W1                ...    35.039 sec
 W 3-ext contribution           ...    18.578 sec
 W 3-int contribution           ...     6.220 sec
 Sorting W                      ...     9.717 sec

 V exchange contribution        ...     4.190 sec

 Timings for Triples without generation
     of 3-index integrals       ...   172.472 sec
       0 weak pairs             ...   160.027 sec
       1 weak pair              ...    12.445 sec
       2 weak pairs             ...     0.000 sec
       3 weak pairs             ...     0.000 sec
  Extra time for extrapolation  ...     0.000 sec

Number of Triples   (0, 1, 2, 3 weak pairs; overall):   3621     605       0       0  (  4226)
Number of Atoms     (0, 1, 2, 3 weak pairs; overall):   20.9    20.3     0.0     0.0  (    24)
Number of PAOs      (0, 1, 2, 3 weak pairs; overall):  443.0   436.0     0.0     0.0  (   496)
Number of AuxFcns   (0, 1, 2, 3 weak pairs; overall):  464.8   359.8     0.0     0.0  (  1230)
Number of TNOs      (0, 1, 2, 3 weak pairs         ):   91.1    59.1     0.0     0.0
Aver. Number of NTNO, Atoms, PAOs, AuxFcns / Triples:   4226    86.6    20.8   442.0   449.8

Triples Correction (T)                     ...     -0.077949675
Final correlation energy                   ...     -1.968726903
E(CCSD)                                    ...   -462.896903948
E(CCSD(T))                                 ...   -462.974853624


Maximum memory used throughout the entire calculation: 8028.1 MB


------------------------------------------------------------------------------- 
                                     TIMINGS                                   
------------------------------------------------------------------------------- 


Total execution time                   ...     2022.866 sec

Localization of occupied MO's          ...        0.890 sec (  0.0%)
Fock Matrix Formation                  ...        5.559 sec (  0.3%)
Global overlap, Fock, MKN matrices     ...        0.275 sec (  0.0%)
Differential overlap integrals         ...        0.234 sec (  0.0%)
Organizing maps                        ...        0.106 sec (  0.0%)
RI 3-index integral generations        ...       10.972 sec (  0.5%)
RI-PNO integral transformation         ...      431.689 sec ( 21.3%)
Initial Guess                          ...       61.820 sec (  3.1%)
DIIS Solver                            ...        6.490 sec (  0.3%)
State Vector Update                    ...        0.089 sec (  0.0%)
Sigma-vector construction              ...      289.059 sec ( 14.3%)
  <0|H|D>                              ...        0.001 sec (  0.0% of sigma)
  <D|H|D>(0-ext)                       ...        9.124 sec (  3.2% of sigma)
  <D|H|D>(2-ext Fock)                  ...        0.025 sec (  0.0% of sigma)
  <D|H|D>(2-ext)                       ...       59.786 sec ( 20.7% of sigma)
  <D|H|D>(4-ext)                       ...       24.152 sec (  8.4% of sigma)
  <D|H|D>(4-ext-corr)                  ...      124.536 sec ( 43.1% of sigma)
  CCSD doubles correction              ...        0.510 sec (  0.2% of sigma)
  <S|H|S>                              ...        1.991 sec (  0.7% of sigma)
  <S|H|D>(1-ext)                       ...        1.034 sec (  0.4% of sigma)
  <D|H|S>(1-ext)                       ...        0.029 sec (  0.0% of sigma)
  <S|H|D>(3-ext)                       ...        0.874 sec (  0.3% of sigma)
  Fock-dressing                        ...       42.427 sec ( 14.7% of sigma)
  Singles amplitudes                   ...        1.499 sec (  0.5% of sigma)
  (ik|jl)-dressing                     ...        7.212 sec (  2.5% of sigma)
  (ij|ab),(ia|jb)-dressing             ...        5.160 sec (  1.8% of sigma)
  Pair energies                        ...        0.016 sec (  0.0% of sigma)
Total Time for computing (T)           ...     1211.434 sec ( 59.9% of ALL)


-------------------------   --------------------
FINAL SINGLE POINT ENERGY      -462.974853623615
-------------------------   --------------------


                            ***************************************
                            *     ORCA property calculations      *
                            ***************************************

                                    ---------------------
                                    Active property flags
                                    ---------------------
   (+) Dipole Moment


------------------------------------------------------------------------------
                       ORCA ELECTRIC PROPERTIES CALCULATION
------------------------------------------------------------------------------

Dipole Moment Calculation                       ... on
Quadrupole Moment Calculation                   ... off
Polarizability Calculation                      ... off
GBWName                                         ... me_cyclohexanecarboxylate_ax.gbw
Electron density file                           ... me_cyclohexanecarboxylate_ax.scfp.tmp
The origin for moment calculation is the CENTER OF MASS  = (-0.075721, -0.035597  0.006209)

-------------
DIPOLE MOMENT
-------------
                                X             Y             Z
Electronic contribution:     -5.97117      -2.12230       0.81940
Nuclear contribution   :      5.90616       2.77662      -0.48425
                        -----------------------------------------
Total Dipole Moment    :     -0.06501       0.65432       0.33515
                        -----------------------------------------
Magnitude (a.u.)       :      0.73802
Magnitude (Debye)      :      1.87591



--------------------
Rotational spectrum 
--------------------
 
Rotational constants in cm-1:     0.078964     0.030276     0.026791 
Rotational constants in MHz :  2367.273485   907.645451   803.165635 

 Dipole components along the rotational axes: 
x,y,z [a.u.] :    -0.060477     0.664717     0.314919 
x,y,z [Debye]:    -0.153720     1.689577     0.800461 

 

Timings for individual modules:

Sum of individual times         ...     2082.222 sec (=  34.704 min)
GTO integral calculation        ...        1.032 sec (=   0.017 min)   0.0 %
SCF iterations                  ...       46.878 sec (=   0.781 min)   2.3 %
MDCI module                     ...     2034.313 sec (=  33.905 min)  97.7 %
                             ****ORCA TERMINATED NORMALLY****
TOTAL RUN TIME: 0 days 0 hours 34 minutes 43 seconds 511 msec
me_cyclohexanecarboxylate_ax.gbw -> /home1/pantazis/klk/xyz/Cyclohexanes/me_cyclohexanecarboxylate_ax.gbw
me_cyclohexanecarboxylate_ax.job -> /home1/pantazis/klk/xyz/Cyclohexanes/me_cyclohexanecarboxylate_ax.job
me_cyclohexanecarboxylate_ax.loc -> /home1/pantazis/klk/xyz/Cyclohexanes/me_cyclohexanecarboxylate_ax.loc
me_cyclohexanecarboxylate_ax.nodes -> /home1/pantazis/klk/xyz/Cyclohexanes/me_cyclohexanecarboxylate_ax.nodes
me_cyclohexanecarboxylate_ax.prop -> /home1/pantazis/klk/xyz/Cyclohexanes/me_cyclohexanecarboxylate_ax.prop
me_cyclohexanecarboxylate_ax_property.txt -> /home1/pantazis/klk/xyz/Cyclohexanes/me_cyclohexanecarboxylate_ax_property.txt
me_cyclohexanecarboxylate_ax.xyz -> /home1/pantazis/klk/xyz/Cyclohexanes/me_cyclohexanecarboxylate_ax.xyz
cp: cannot stat me_cyclohexanecarboxylate_ax.asa.inp: No such file or directory
