! Job execution by suborca V 6.07 on ZEUS !
Job started from zeus1, running /scratch/pantazis/Me_NH2_ecl__kcG3wv/orca/orca copied from /opt/orca on zeussn124 in /scratch/pantazis/Me_NH2_ecl__kcG3wv
Job execution start: Fri Jun 28 02:00:13 CEST 2019
Shared library path: /scratch/pantazis/Me_NH2_ecl__kcG3wv/orca:/opt/openmpi_1.10.2/lib:/opt/intel/mkl/lib/intel64:/opt/intel/lib/intel64:
PBS Job ID is: 158317.icqc
izeussn124
izeussn124
izeussn124
izeussn124
izeussn124
izeussn124
izeussn124
izeussn124

                                 *****************
                                 * O   R   C   A *
                                 *****************

           --- An Ab Initio, DFT and Semiempirical electronic structure package ---

                  #######################################################
                  #                        -***-                        #
                  #          Department of theory and spectroscopy      #
                  #               Directorship: Frank Neese             #
                  #        Max Planck Institute fuer Kohlenforschung    #
                  #                Kaiser Wilhelm Platz 1               #
                  #                 D-45470 Muelheim/Ruhr               #
                  #                      Germany                        #
                  #                                                     #
                  #                  All rights reserved                #
                  #                        -***-                        #
                  #######################################################


                         Program Version 4.1.x  -  STABLE  -
                                (SVN: $Rev: 14094$)
                ($Date: 2019-06-14 15:01:15 +0200 (Fri, 14 Jun 2019) $)

                         (BUILD: $Sun Jun 23 06:18:31 CEST 2019$)


 With contributions from (in alphabetic order):
   Daniel Aravena         : Magnetic Properties
   Michael Atanasov       : Ab Initio Ligand Field Theory
   Alexander A. Auer      : GIAO ZORA
   Ute Becker             : Parallelization
   Giovanni Bistoni       : ED, Open-shell LED
   Martin Brehm           : Molecular dynamics
   Dmytro Bykov           : SCF Hessian
   Vijay G. Chilkuri      : MRCI spin determinant printing
   Dipayan Datta          : RHF DLPNO-CCSD density
   Achintya Kumar Dutta   : EOM-CC, STEOM-CC
   Dmitry Ganyushin       : Spin-Orbit,Spin-Spin,Magnetic field MRCI
   Miquel Garcia          : C-PCM Hessian
   Yang Guo               : DLPNO-NEVPT2, CIM, IAO-localization
   Andreas Hansen         : Spin unrestricted coupled pair/coupled cluster methods
   Benjamin Helmich-Paris : CASSCF linear response (MC-RPA)
   Lee Huntington         : MR-EOM, pCC
   Robert Izsak           : Overlap fitted RIJCOSX, COSX-SCS-MP3, EOM
   Christian Kollmar      : KDIIS, OOCD, Brueckner-CCSD(T), CCSD density
   Simone Kossmann        : Meta GGA functionals, TD-DFT gradient, OOMP2, MP2 Hessian
   Martin Krupicka        : AUTO-CI
   Lucas Lang             : DCDCAS
   Dagmar Lenk            : GEPOL surface, SMD
   Dimitrios Liakos       : Extrapolation schemes; parallel MDCI
   Dimitrios Manganas     : ROCIS; embedding schemes
   Dimitrios Pantazis     : SARC Basis sets
   Taras Petrenko         : DFT Hessian,TD-DFT gradient, ASA, ECA, R-Raman, ABS, FL, XAS/XES, NRVS
   Peter Pinski           : DLPNO-MP2, DLPNO-MP2 Gradient
   Christoph Reimann      : Effective Core Potentials
   Marius Retegan         : Local ZFS, SOC
   Christoph Riplinger    : Optimizer, TS searches, QM/MM, DLPNO-CCSD(T), (RO)-DLPNO pert. Triples
   Tobias Risthaus        : Range-separated hybrids, TD-DFT gradient, RPA, STAB
   Michael Roemelt        : Restricted open shell CIS
   Masaaki Saitow         : Open-shell DLPNO
   Barbara Sandhoefer     : DKH picture change effects
   Avijit Sen             : IP-ROCIS
   Kantharuban Sivalingam : CASSCF convergence, NEVPT2, FIC-MRCI
   Bernardo de Souza      : ESD, SOC TD-DFT
   Georgi Stoychev        : AutoAux, RI-MP2 NMR
   Willem Van den Heuvel  : Paramagnetic NMR
   Boris Wezisla          : Elementary symmetry handling
   Frank Wennmohs         : Technical directorship


 We gratefully acknowledge several colleagues who have allowed us to
 interface, adapt or use parts of their codes:
   Stefan Grimme, W. Hujo, H. Kruse,             : VdW corrections, initial TS optimization,
                  C. Bannwarth                     DFT functionals, gCP, sTDA/sTD-DF
   Ed Valeev                                     : LibInt (2-el integral package), F12 methods
   Garnet Chan, S. Sharma, J. Yang, R. Olivares  : DMRG
   Ulf Ekstrom                                   : XCFun DFT Library
   Mihaly Kallay                                 : mrcc  (arbitrary order and MRCC methods)
   Andreas Klamt, Michael Diedenhofen            : otool_cosmo (COSMO solvation model)
   Jiri Pittner, Ondrej Demel                    : Mk-CCSD
   Frank Weinhold                                : gennbo (NPA and NBO analysis)
   Christopher J. Cramer and Donald G. Truhlar   : smd solvation model
   Lars Goerigk                                  : TD-DFT with DH, B97 family of functionals
   V. Asgeirsson, H. Jonsson                     : NEB implementation
   FAccTs GmbH                                   : IRC, NEB, NEB-TS, Multilevel


 Your calculation uses the libint2 library for the computation of 2-el integrals
 For citations please refer to: http://libint.valeyev.net

 This ORCA versions uses:
   CBLAS   interface :  Fast vector & matrix operations
   LAPACKE interface :  Fast linear algebra routines
   SCALAPACK package :  Parallel linear algebra routines




***************************************
The coordinates will be read from file: Me_NH2_ecl.xyz
***************************************


----- Orbital basis set information -----
Your calculation utilizes the basis: cc-pVTZ 
       H, B-Ne : Obtained from the ccRepo (grant-hill.group.shef.ac.uk/ccrepo) Feb. 2017
                 T. H. Dunning, Jr., J. Chem. Phys. 90, 1007 (1989)
            He : Obtained from the ccRepo (grant-hill.group.shef.ac.uk/ccrepo) Feb. 2017
                 D. E. Woon, T. H. Dunning, Jr., J. Chem. Phys. 100, 2975 (1994)
  Li-Be, Na-Mg : Obtained from the ccRepo (grant-hill.group.shef.ac.uk/ccrepo) Feb. 2017
                 B. P. Prascher, D. E. Woon, K. A. Peterson, T. H. Dunning, Jr., A. K. Wilson, Theor. Chem. Acc. 128, 69 (2011)
         Al-Ar : Obtained from the ccRepo (grant-hill.group.shef.ac.uk/ccrepo) Feb. 2017
                 D. E. Woon, T. H. Dunning, Jr., J. Chem. Phys. 98, 1358 (1993)
            Ca : Obtained from the Peterson Research Group Website (tyr0.chem.wsu.edu/~kipeters) Feb. 2017
                 J. Koput, K. A. Peterson, J. Phys. Chem. 106, 9595 (2002)
         Sc-Zn : Obtained from the ccRepo (grant-hill.group.shef.ac.uk/ccrepo) Feb. 2017
                 N. B. Balabanov, K. A. Peterson, J. Chem. Phys. 123, 064107 (2005)
                 N. B. Balabanov, K. A. Peterson, J. Chem. Phys. 125, 074110 (2006)
         Ga-Kr : Obtained from the ccRepo (grant-hill.group.shef.ac.uk/ccrepo) Feb. 2017
                 A. K. Wilson, D. E. Woon, K. A. Peterson, T. H. Dunning, Jr., J. Chem. Phys. 110, 7667 (1999)
             Y : Obtained from the ccRepo (grant-hill.group.shef.ac.uk/ccrepo) Feb. 2017
                 K. A. Peterson, D. Figgen, M. Dolg, H. Stoll, J. Chem. Phys. 126, 124101 (2007)
        Ag, Au : Obtained from the Peterson Research Group Website (tyr0.chem.wsu.edu/~kipeters) Feb. 2017
                 K. A. Peterson, C. Puzzarini, Theor. Chem. Acc. 114, 283 (2005)

----- AuxC basis set information -----
Your calculation utilizes the auxiliary basis: cc-pVTZ/C 
  Obtained from the EMSL Basis Set Exchange (bse.pnl.gov) Feb. 2017
  H-He, B-F, Al-Ar, Ga-Kr : F. Weigend, A. Kohn, C. Hattig, J. Chem. Phys. 116, 3175 (2002)
             Li-Be, Na-Mg : C. Haettig, Phys. Chem. Chem. Phys. 7, 59 (2005)
                       Ne : C. Haettig, Phys. Chem. Chem. Phys. 7, 59 (2005)
                            F. Weigend, A. Kohn, C. Hattig, J. Chem. Phys. 116, 3175 (2002)
                    Sc-Zn : J. G. Hill, J. A. Platts, J. Chem. Phys. 128, 044104 (2008)

----- AuxJK basis set information -----
Your calculation utilizes the auxiliary basis: cc-pVTZ/JK 
  H, B-F, Al-Cl, Ga-Br : Obtained from the TURBOMOLE 7.0 basis set library

================================================================================
                                        WARNINGS
                       Please study these warnings very carefully!
================================================================================


WARNING: MDCI localization with Augmented Hessian Foster-Boys
  ===> : Switching off randomization!

WARNING: Post HF methods need fully converged wavefunctions
  ===> : Setting SCFConvForced true
         You can overwrite this default with %scf ConvForced false 


INFO   : the flag for use of LIBINT has been found!

================================================================================
                                       INPUT FILE
================================================================================
NAME = Me_NH2_ecl.inp
|  1> ! RHF DLPNO-CCSD(T) cc-pVTZ RIJK cc-pVTZ/JK cc-pVTZ/C
|  2> ! KDIIS SOSCF TightSCF TightPNO
|  3> 
|  4> %pal nprocs 8 end
|  5> 
|  6> %maxcore 8000
|  7> 
|  8> %scf maxiter 300
|  9>      shift shift 0.2 erroff 0.1 end
| 10> end
| 11> 
| 12> * xyzfile 0 1 Me_NH2_ecl.xyz 
| 13> 
| 14> 
| 15>                          ****END OF INPUT****
================================================================================

                       ****************************
                       * Single Point Calculation *
                       ****************************

---------------------------------
CARTESIAN COORDINATES (ANGSTROEM)
---------------------------------
  C      0.700250    0.000230   -0.016440
  N     -0.733030   -0.000210    0.131910
  H      1.014950   -0.891680   -0.604260
  H      1.020780    0.923300   -0.550560
  H      1.188860   -0.032370    0.984430
  H     -1.147470    0.810860   -0.326030
  H     -1.147400   -0.810000   -0.328360

----------------------------
CARTESIAN COORDINATES (A.U.)
----------------------------
  NO LB      ZA    FRAG     MASS         X           Y           Z
   0 C     6.0000    0    12.011    1.323281    0.000435   -0.031067
   1 N     7.0000    0    14.007   -1.385226   -0.000397    0.249274
   2 H     1.0000    0     1.008    1.917978   -1.685031   -1.141886
   3 H     1.0000    0     1.008    1.928995    1.744784   -1.040408
   4 H     1.0000    0     1.008    2.246620   -0.061170    1.860303
   5 H     1.0000    0     1.008   -2.168404    1.532303   -0.616107
   6 H     1.0000    0     1.008   -2.168272   -1.530678   -0.620510

--------------------------------
INTERNAL COORDINATES (ANGSTROEM)
--------------------------------
 C      0   0   0     0.000000000000     0.00000000     0.00000000
 N      1   0   0     1.440937012676     0.00000000     0.00000000
 H      1   2   0     1.113585151886   109.58469729     0.00000000
 H      1   2   3     1.113589637254   109.62965438   119.87271376
 H      1   2   3     1.114245596357   110.10213017   240.02804069
 H      2   1   3     1.019462653607   110.96993976   243.31926175
 H      2   1   3     1.019465945434   110.98102996     0.04234702

---------------------------
INTERNAL COORDINATES (A.U.)
---------------------------
 C      0   0   0     0.000000000000     0.00000000     0.00000000
 N      1   0   0     2.722976330188     0.00000000     0.00000000
 H      1   2   0     2.104370963865   109.58469729     0.00000000
 H      1   2   3     2.104379439983   109.62965438   119.87271376
 H      1   2   3     2.105619023042   110.10213017   240.02804069
 H      2   1   3     1.926505219078   110.96993976   243.31926175
 H      2   1   3     1.926511439730   110.98102996     0.04234702

---------------------
BASIS SET INFORMATION
---------------------
There are 3 groups of distinct atoms

 Group   1 Type C   : 18s5p2d1f contracted to 4s3p2d1f pattern {8811/311/11/1}
 Group   2 Type N   : 18s5p2d1f contracted to 4s3p2d1f pattern {8811/311/11/1}
 Group   3 Type H   : 5s2p1d contracted to 3s2p1d pattern {311/11/1}

Atom   0C    basis set group =>   1
Atom   1N    basis set group =>   2
Atom   2H    basis set group =>   3
Atom   3H    basis set group =>   3
Atom   4H    basis set group =>   3
Atom   5H    basis set group =>   3
Atom   6H    basis set group =>   3
-------------------------------
AUXILIARY BASIS SET INFORMATION
-------------------------------
There are 3 groups of distinct atoms

 Group   1 Type C   : 8s6p5d3f1g contracted to 8s6p5d3f1g pattern {11111111/111111/11111/111/1}
 Group   2 Type N   : 8s6p5d3f1g contracted to 8s6p5d3f1g pattern {11111111/111111/11111/111/1}
 Group   3 Type H   : 4s3p2d1f contracted to 4s3p2d1f pattern {1111/111/11/1}

Atom   0C    basis set group =>   1
Atom   1N    basis set group =>   2
Atom   2H    basis set group =>   3
Atom   3H    basis set group =>   3
Atom   4H    basis set group =>   3
Atom   5H    basis set group =>   3
Atom   6H    basis set group =>   3
-------------------------------
AUXILIARY BASIS SET INFORMATION
-------------------------------
There are 3 groups of distinct atoms

 Group   1 Type C   : 10s7p5d2f1g contracted to 10s7p5d2f1g pattern {1111111111/1111111/11111/11/1}
 Group   2 Type N   : 10s7p5d2f1g contracted to 10s7p5d2f1g pattern {1111111111/1111111/11111/11/1}
 Group   3 Type H   : 4s3p2d1f contracted to 4s3p2d1f pattern {1111/111/11/1}

Atom   0C    basis set group =>   1
Atom   1N    basis set group =>   2
Atom   2H    basis set group =>   3
Atom   3H    basis set group =>   3
Atom   4H    basis set group =>   3
Atom   5H    basis set group =>   3
Atom   6H    basis set group =>   3


           ************************************************************
           *        Program running with 8 parallel MPI-processes     *
           *              working on a common directory               *
           ************************************************************
------------------------------------------------------------------------------
                           ORCA GTO INTEGRAL CALCULATION
                           -- RI-GTO INTEGRALS CHOSEN --
------------------------------------------------------------------------------

                         BASIS SET STATISTICS AND STARTUP INFO

Gaussian basis set:
 # of primitive gaussian shells          ...   92
 # of primitive gaussian functions       ...  180
 # of contracted shells                  ...   50
 # of contracted basis functions         ...  130
 Highest angular momentum                ...    3
 Maximum contraction depth               ...    8
Auxiliary gaussian basis set:
 # of primitive gaussian shells          ...  100
 # of primitive gaussian functions       ...  308
 # of contracted shells                  ...  100
 # of contracted aux-basis functions     ...  308
 Highest angular momentum                ...    4
 Maximum contraction depth               ...    1
Ratio of auxiliary to basis functions    ...  2.37
Integral package used                  ... LIBINT
 One Electron integrals                  ... done
 Ordering auxiliary basis shells         ... done
 Integral threshhold             Thresh  ...  2.500e-11
 Primitive cut-off               TCut    ...  2.500e-12
 Pre-screening matrix                    ... done
 Shell pair data                         ... 
 Ordering of the shell pairs             ... done (   0.000 sec) 1275 of 1275 pairs
 Determination of significant pairs      ... done (   0.000 sec)
 Creation of shell pair data             ... done (   0.000 sec)
 Storage of shell pair data              ... done (   0.002 sec)
 Shell pair data done in (   0.003 sec)
 Computing two index integrals           ... done
 Cholesky decomposition of the V-matrix  ... done


Timings:
 Total evaluation time                   ...   0.211 sec (  0.004 min)
 One electron matrix time                ...   0.014 sec (  0.000 min) =  6.5%
 Schwartz matrix evaluation time         ...   0.144 sec (  0.002 min) = 67.9%
 Two index repulsion integral time       ...   0.004 sec (  0.000 min) =  2.1%
 Cholesky decomposition of V             ...   0.020 sec (  0.000 min) =  9.7%
 Three index repulsion integral time     ...   0.000 sec (  0.000 min) =  0.0%



           ************************************************************
           *        Program running with 8 parallel MPI-processes     *
           *              working on a common directory               *
           ************************************************************
-------------------------------------------------------------------------------
                                 ORCA SCF
-------------------------------------------------------------------------------

------------
SCF SETTINGS
------------
Hamiltonian:
 Ab initio Hamiltonian  Method          .... Hartree-Fock(GTOs)
 RI-approximation to the Coulomb term is turned on
   Number of auxiliary basis functions  .... 308
   RI-JK (J+K treated both via RI)      .... on


General Settings:
 Integral files         IntName         .... Me_NH2_ecl
 Hartree-Fock type      HFTyp           .... RHF
 Total Charge           Charge          ....    0
 Multiplicity           Mult            ....    1
 Number of Electrons    NEL             ....   18
 Basis Dimension        Dim             ....  130
 Nuclear Repulsion      ENuc            ....     42.0954761610 Eh

Convergence Acceleration:
 DIIS                   CNVDIIS         .... off
 Newton-Raphson         CNVNR           .... off
 SOSCF                  CNVSOSCF        .... on
   Start iteration      SOSCFMaxIt      ....   150
   Startup grad/error   SOSCFStart      ....  0.003300
 Level Shifting         CNVShift        .... on
   Level shift para.    LevelShift      ....    0.2000
   Turn off err/grad.   ShiftErr        ....    0.1000
 Zerner damping         CNVZerner       .... off
 Static damping         CNVDamp         .... off
 Fernandez-Rico         CNVRico         .... off

SCF Procedure:
 Maximum # iterations   MaxIter         ....   300
 SCF integral mode      SCFMode         .... Direct
   Integral package                     .... LIBINT
 Reset frequency        DirectResetFreq ....    20
 Integral Threshold     Thresh          ....  2.500e-11 Eh
 Primitive CutOff       TCut            ....  2.500e-12 Eh

Convergence Tolerance:
 Convergence Check Mode ConvCheckMode   .... Total+1el-Energy
 Convergence forced     ConvForced      .... 1
 Energy Change          TolE            ....  1.000e-08 Eh
 1-El. energy change                    ....  1.000e-05 Eh
 Orbital Gradient       TolG            ....  1.000e-05
 Orbital Rotation angle TolX            ....  1.000e-05


Diagonalization of the overlap matrix:
Smallest eigenvalue                        ... 1.122e-03
Time for diagonalization                   ...    0.006 sec
Threshold for overlap eigenvalues          ... 1.000e-08
Number of eigenvalues below threshold      ... 0
Time for construction of square roots      ...    0.006 sec
Total time needed                          ...    0.012 sec

-------------------
DFT GRID GENERATION
-------------------

General Integration Accuracy     IntAcc      ...  4.340
Radial Grid Type                 RadialGrid  ... Gauss-Chebyshev
Angular Grid (max. acc.)         AngularGrid ... Lebedev-110
Angular grid pruning method      GridPruning ... 3 (G Style)
Weight generation scheme         WeightScheme... Becke
Basis function cutoff            BFCut       ...    1.0000e-11
Integration weight cutoff        WCut        ...    1.0000e-14
Grids for H and He will be reduced by one unit

# of grid points (after initial pruning)     ...   7328 (   0.0 sec)
# of grid points (after weights+screening)   ...   7082 (   0.0 sec)
nearest neighbour list constructed           ...    0.0 sec
Grid point re-assignment to atoms done       ...    0.0 sec
Grid point division into batches done        ...    0.0 sec
Reduced shell lists constructed in    0.0 sec

Total number of grid points                  ...     7082
Total number of batches                      ...      113
Average number of points per batch           ...       62
Average number of grid points per atom       ...     1012
Average number of shells per batch           ...    46.25 (92.50%)
Average number of basis functions per batch  ...   120.00 (92.31%)
Average number of large shells per batch     ...    43.56 (94.19%)
Average number of large basis fcns per batch ...   112.94 (94.11%)
Average number of aux-shells per batch       ...    46.25 (46.25%)
Average number of aux functions per batch    ...   120.00 (38.96%)
Maximum spatial batch extension              ...  12.36, 10.94, 14.80 au
Average spatial batch extension              ...   0.32,  0.31,  0.34 au

Time for grid setup =    0.028 sec

------------------------------
INITIAL GUESS: MODEL POTENTIAL
------------------------------
Loading Hartree-Fock densities                     ... done
Calculating cut-offs                               ... done
Setting up the integral package                    ... done
Initializing the effective Hamiltonian             ... done
Starting the Coulomb interaction                   ... done (   0.0 sec)
Reading the grid                                   ... done
Mapping shells                                     ... done
Starting the XC term evaluation                    ... done (   0.0 sec)
Transforming the Hamiltonian                       ... done (   0.0 sec)
Diagonalizing the Hamiltonian                      ... done (   0.0 sec)
Back transforming the eigenvectors                 ... done (   0.0 sec)
Now organizing SCF variables                       ... done
                      ------------------
                      INITIAL GUESS DONE (   0.2 sec)
                      ------------------
--------------
SCF ITERATIONS
--------------
ITER       Energy         Delta-E        Max-DP      RMS-DP      [F,P]   Gradient Norm
                             ****Turning on KDIIS(Cayley)****
  0    -95.0719752550   0.000000000000 0.01784339  0.00049065  0.1045866   0.173394590
  1    -95.1272545257  -0.055279270738 0.01787511  0.00047190  0.0913840   0.146242694
  2    -95.1661004104  -0.038845884676 0.03004583  0.00080459  0.0732218   0.119251272
  3    -95.2141257855  -0.048025375105 0.05086817  0.00131713  0.0471487   0.074251525
  4    -95.2463717353  -0.032245949829 0.00338072  0.00013128  0.0050686   0.005455258
                      *** Initiating the SOSCF procedure ***
                           *** Shutting down KDIIS ***
                      *** Re-Reading the Fockian *** 
                      *** Removing any level shift *** 
ITER      Energy       Delta-E        Grad      Rot      Max-DP    RMS-DP
  5    -95.24664842  -0.0002766808  0.001505  0.001505  0.002278  0.000100
  6    -95.24666862  -0.0000202063  0.000574  0.000643  0.000961  0.000024
  7    -95.24667138  -0.0000027618  0.000332  0.000207  0.000346  0.000009
  8    -95.24667343  -0.0000020481  0.000033  0.000032  0.000061  0.000002
  9    -95.24667345  -0.0000000147  0.000018  0.000016  0.000033  0.000001
 10    -95.24667345  -0.0000000042  0.000004  0.000007  0.000011  0.000000
                 **** Energy Check signals convergence ****
              ***Rediagonalizing the Fockian in SOSCF/NRSCF***

               *****************************************************
               *                     SUCCESS                       *
               *           SCF CONVERGED AFTER  11 CYCLES          *
               *****************************************************


----------------
TOTAL SCF ENERGY
----------------

Total Energy       :          -95.24667345 Eh           -2591.79375 eV

Components:
Nuclear Repulsion  :           42.09547616 Eh            1145.47614 eV
Electronic Energy  :         -137.34214961 Eh           -3737.26989 eV
One Electron Energy:         -211.61037502 Eh           -5758.21105 eV
Two Electron Energy:           74.26822541 Eh            2020.94116 eV

Virial components:
Potential Energy   :         -190.31643446 Eh           -5178.77347 eV
Kinetic Energy     :           95.06976100 Eh            2586.97972 eV
Virial Ratio       :            2.00186087


---------------
SCF CONVERGENCE
---------------

  Last Energy change         ...   -2.0222e-10  Tolerance :   1.0000e-08
  Last MAX-Density change    ...    6.5681e-06  Tolerance :   1.0000e-07
  Last RMS-Density change    ...    1.9914e-07  Tolerance :   5.0000e-09
  Last Orbital Gradient      ...    1.5312e-06  Tolerance :   1.0000e-05
  Last Orbital Rotation      ...    5.0050e-06  Tolerance :   1.0000e-05

             **** THE GBW FILE WAS UPDATED (Me_NH2_ecl.gbw) ****
             **** DENSITY FILE WAS UPDATED (Me_NH2_ecl.scfp.tmp) ****
             **** ENERGY FILE WAS UPDATED (Me_NH2_ecl.en.tmp) ****
----------------
ORBITAL ENERGIES
----------------

  NO   OCC          E(Eh)            E(eV) 
   0   2.0000     -15.531393      -422.6307 
   1   2.0000     -11.245443      -306.0041 
   2   2.0000      -1.170501       -31.8509 
   3   2.0000      -0.882919       -24.0254 
   4   2.0000      -0.659348       -17.9418 
   5   2.0000      -0.598989       -16.2993 
   6   2.0000      -0.558168       -15.1885 
   7   2.0000      -0.507285       -13.8039 
   8   2.0000      -0.382917       -10.4197 
   9   0.0000       0.138479         3.7682 
  10   0.0000       0.177714         4.8358 
  11   0.0000       0.186713         5.0807 
  12   0.0000       0.228452         6.2165 
  13   0.0000       0.260927         7.1002 
  14   0.0000       0.311795         8.4844 
  15   0.0000       0.390311        10.6209 
  16   0.0000       0.395378        10.7588 
  17   0.0000       0.516755        14.0616 
  18   0.0000       0.546698        14.8764 
  19   0.0000       0.589944        16.0532 
  20   0.0000       0.621614        16.9150 
  21   0.0000       0.626353        17.0439 
  22   0.0000       0.639246        17.3948 
  23   0.0000       0.668130        18.1807 
  24   0.0000       0.683935        18.6108 
  25   0.0000       0.719463        19.5776 
  26   0.0000       0.730600        19.8806 
  27   0.0000       0.751723        20.4554 
  28   0.0000       0.764167        20.7940 
  29   0.0000       0.908155        24.7121 
  30   0.0000       1.048888        28.5417 
  31   0.0000       1.097786        29.8723 
  32   0.0000       1.126839        30.6629 
  33   0.0000       1.173167        31.9235 
  34   0.0000       1.178428        32.0667 
  35   0.0000       1.212698        32.9992 
  36   0.0000       1.220086        33.2002 
  37   0.0000       1.266754        34.4701 
  38   0.0000       1.272483        34.6260 
  39   0.0000       1.319130        35.8953 
  40   0.0000       1.424012        38.7493 
  41   0.0000       1.502221        40.8775 
  42   0.0000       1.513048        41.1721 
  43   0.0000       1.534590        41.7583 
  44   0.0000       1.548479        42.1363 
  45   0.0000       1.553939        42.2848 
  46   0.0000       1.606462        43.7141 
  47   0.0000       1.753257        47.7085 
  48   0.0000       1.817816        49.4653 
  49   0.0000       1.880699        51.1764 
  50   0.0000       1.924951        52.3806 
  51   0.0000       1.951737        53.1095 
  52   0.0000       2.004874        54.5554 
  53   0.0000       2.446828        66.5816 
  54   0.0000       2.460673        66.9583 
  55   0.0000       2.582935        70.2852 
  56   0.0000       2.787889        75.8623 
  57   0.0000       2.881109        78.3990 
  58   0.0000       2.886743        78.5523 
  59   0.0000       3.024631        82.3044 
  60   0.0000       3.046649        82.9035 
  61   0.0000       3.107746        84.5661 
  62   0.0000       3.160720        86.0076 
  63   0.0000       3.166075        86.1533 
  64   0.0000       3.189791        86.7986 
  65   0.0000       3.290149        89.5295 
  66   0.0000       3.320247        90.3485 
  67   0.0000       3.321852        90.3922 
  68   0.0000       3.379379        91.9576 
  69   0.0000       3.395334        92.3917 
  70   0.0000       3.482412        94.7613 
  71   0.0000       3.564529        96.9958 
  72   0.0000       3.593562        97.7858 
  73   0.0000       3.602527        98.0297 
  74   0.0000       3.613497        98.3283 
  75   0.0000       3.698381       100.6381 
  76   0.0000       3.720271       101.2337 
  77   0.0000       3.729450       101.4835 
  78   0.0000       3.748289       101.9961 
  79   0.0000       3.782131       102.9170 
  80   0.0000       3.819583       103.9361 
  81   0.0000       3.872381       105.3728 
  82   0.0000       3.876059       105.4729 
  83   0.0000       3.916753       106.5803 
  84   0.0000       4.008648       109.0809 
  85   0.0000       4.061840       110.5283 
  86   0.0000       4.077520       110.9550 
  87   0.0000       4.146206       112.8240 
  88   0.0000       4.181650       113.7885 
  89   0.0000       4.244768       115.5060 
  90   0.0000       4.262873       115.9987 
  91   0.0000       4.276053       116.3573 
  92   0.0000       4.280360       116.4745 
  93   0.0000       4.286855       116.6513 
  94   0.0000       4.361462       118.6814 
  95   0.0000       4.463488       121.4577 
  96   0.0000       4.477675       121.8437 
  97   0.0000       4.527602       123.2023 
  98   0.0000       4.565675       124.2383 
  99   0.0000       4.608671       125.4083 
 100   0.0000       4.641963       126.3142 
 101   0.0000       4.696233       127.7910 
 102   0.0000       4.762794       129.6022 
 103   0.0000       4.924400       133.9997 
 104   0.0000       5.006390       136.2308 
 105   0.0000       5.094652       138.6325 
 106   0.0000       5.191402       141.2652 
 107   0.0000       5.265636       143.2852 
 108   0.0000       5.341237       145.3424 
 109   0.0000       5.368579       146.0865 
 110   0.0000       5.402425       147.0074 
 111   0.0000       5.462193       148.6338 
 112   0.0000       5.539106       150.7267 
 113   0.0000       5.541103       150.7811 
 114   0.0000       5.625275       153.0715 
 115   0.0000       5.692621       154.9041 
 116   0.0000       5.702043       155.1605 
 117   0.0000       5.801314       157.8618 
 118   0.0000       5.952765       161.9830 
 119   0.0000       6.031644       164.1294 
 120   0.0000       6.167650       167.8303 
 121   0.0000       6.197724       168.6486 
 122   0.0000       6.204389       168.8300 
 123   0.0000       6.319851       171.9719 
 124   0.0000       6.352570       172.8622 
 125   0.0000       6.509281       177.1265 
 126   0.0000       6.687903       181.9871 
 127   0.0000       7.279166       198.0762 
 128   0.0000      12.252934       333.4193 
 129   0.0000      14.087457       383.3392 

                    ********************************
                    * MULLIKEN POPULATION ANALYSIS *
                    ********************************

-----------------------
MULLIKEN ATOMIC CHARGES
-----------------------
   0 C :   -0.121577
   1 N :   -0.358003
   2 H :    0.064089
   3 H :    0.065533
   4 H :    0.070474
   5 H :    0.139843
   6 H :    0.139642
Sum of atomic charges:   -0.0000000

--------------------------------
MULLIKEN REDUCED ORBITAL CHARGES
--------------------------------
  0 C s       :     3.242845  s :     3.242845
      pz      :     0.996840  p :     2.784737
      px      :     0.794786
      py      :     0.993111
      dz2     :     0.010961  d :     0.087258
      dxz     :     0.021924
      dyz     :     0.013921
      dx2y2   :     0.022935
      dxy     :     0.017518
      f0      :     0.001234  f :     0.006738
      f+1     :     0.001104
      f-1     :     0.000062
      f+2     :     0.001817
      f-2     :     0.000084
      f+3     :     0.001511
      f-3     :     0.000926
  1 N s       :     3.475013  s :     3.475013
      pz      :     1.685692  p :     3.839850
      px      :     1.090186
      py      :     1.063972
      dz2     :     0.002410  d :     0.040748
      dxz     :     0.008528
      dyz     :     0.009470
      dx2y2   :     0.011626
      dxy     :     0.008714
      f0      :     0.000508  f :     0.002392
      f+1     :     0.000484
      f-1     :     0.000035
      f+2     :     0.000241
      f-2     :     0.000126
      f+3     :     0.000708
      f-3     :     0.000290
  2 H s       :     0.907269  s :     0.907269
      pz      :     0.009104  p :     0.026416
      px      :     0.006974
      py      :     0.010338
      dz2     :     0.000366  d :     0.002226
      dxz     :     0.000265
      dyz     :     0.000561
      dx2y2   :     0.000523
      dxy     :     0.000510
  3 H s       :     0.905688  s :     0.905688
      pz      :     0.009037  p :     0.026557
      px      :     0.007004
      py      :     0.010517
      dz2     :     0.000341  d :     0.002222
      dxz     :     0.000229
      dyz     :     0.000560
      dx2y2   :     0.000545
      dxy     :     0.000547
  4 H s       :     0.904436  s :     0.904436
      pz      :     0.010375  p :     0.022881
      px      :     0.005094
      py      :     0.007412
      dz2     :     0.000697  d :     0.002208
      dxz     :     0.000742
      dyz     :     0.000508
      dx2y2   :     0.000188
      dxy     :     0.000072
  5 H s       :     0.796240  s :     0.796240
      pz      :     0.028040  p :     0.059248
      px      :     0.015081
      py      :     0.016127
      dz2     :     0.000860  d :     0.004669
      dxz     :     0.000461
      dyz     :     0.001569
      dx2y2   :     0.000874
      dxy     :     0.000905
  6 H s       :     0.796429  s :     0.796429
      pz      :     0.028122  p :     0.059265
      px      :     0.015062
      py      :     0.016080
      dz2     :     0.000859  d :     0.004665
      dxz     :     0.000467
      dyz     :     0.001571
      dx2y2   :     0.000872
      dxy     :     0.000896


                     *******************************
                     * LOEWDIN POPULATION ANALYSIS *
                     *******************************

----------------------
LOEWDIN ATOMIC CHARGES
----------------------
   0 C :    0.018499
   1 N :    0.299175
   2 H :   -0.036794
   3 H :   -0.035755
   4 H :   -0.034305
   5 H :   -0.105496
   6 H :   -0.105323

-------------------------------
LOEWDIN REDUCED ORBITAL CHARGES
-------------------------------
  0 C s       :     2.684691  s :     2.684691
      pz      :     0.997961  p :     2.836763
      px      :     0.845794
      py      :     0.993007
      dz2     :     0.044670  d :     0.411401
      dxz     :     0.143743
      dyz     :     0.051793
      dx2y2   :     0.093526
      dxy     :     0.077669
      f0      :     0.007845  f :     0.048647
      f+1     :     0.007738
      f-1     :     0.000876
      f+2     :     0.011024
      f-2     :     0.003054
      f+3     :     0.008410
      f-3     :     0.009700
  1 N s       :     2.893281  s :     2.893281
      pz      :     1.467400  p :     3.637627
      px      :     1.078231
      py      :     1.091996
      dz2     :     0.009664  d :     0.158260
      dxz     :     0.030899
      dyz     :     0.023201
      dx2y2   :     0.042361
      dxy     :     0.052134
      f0      :     0.001120  f :     0.011657
      f+1     :     0.000828
      f-1     :     0.000253
      f+2     :     0.002805
      f-2     :     0.002310
      f+3     :     0.002510
      f-3     :     0.001830
  2 H s       :     0.870247  s :     0.870247
      pz      :     0.047999  p :     0.141147
      px      :     0.033847
      py      :     0.059301
      dz2     :     0.005404  d :     0.025400
      dxz     :     0.002553
      dyz     :     0.006453
      dx2y2   :     0.005736
      dxy     :     0.005254
  3 H s       :     0.869538  s :     0.869538
      pz      :     0.046164  p :     0.140841
      px      :     0.033730
      py      :     0.060948
      dz2     :     0.004890  d :     0.025376
      dxz     :     0.002208
      dyz     :     0.006681
      dx2y2   :     0.005993
      dxy     :     0.005604
  4 H s       :     0.869469  s :     0.869469
      pz      :     0.066508  p :     0.139718
      px      :     0.036342
      py      :     0.036869
      dz2     :     0.007636  d :     0.025119
      dxz     :     0.007054
      dyz     :     0.007353
      dx2y2   :     0.001846
      dxy     :     0.001229
  5 H s       :     0.780774  s :     0.780774
      pz      :     0.115193  p :     0.265596
      px      :     0.062466
      py      :     0.087937
      dz2     :     0.011451  d :     0.059126
      dxz     :     0.005521
      dyz     :     0.016265
      dx2y2   :     0.012672
      dxy     :     0.013216
  6 H s       :     0.780887  s :     0.780887
      pz      :     0.115006  p :     0.265314
      px      :     0.062425
      py      :     0.087883
      dz2     :     0.011520  d :     0.059123
      dxz     :     0.005551
      dyz     :     0.016213
      dx2y2   :     0.012650
      dxy     :     0.013189


                      *****************************
                      * MAYER POPULATION ANALYSIS *
                      *****************************

  NA   - Mulliken gross atomic population
  ZA   - Total nuclear charge
  QA   - Mulliken gross atomic charge
  VA   - Mayer's total valence
  BVA  - Mayer's bonded valence
  FA   - Mayer's free valence

  ATOM       NA         ZA         QA         VA         BVA        FA
  0 C      6.1216     6.0000    -0.1216     3.9247     3.9247    -0.0000
  1 N      7.3580     7.0000    -0.3580     2.9399     2.9399     0.0000
  2 H      0.9359     1.0000     0.0641     0.9760     0.9760    -0.0000
  3 H      0.9345     1.0000     0.0655     0.9767     0.9767    -0.0000
  4 H      0.9295     1.0000     0.0705     0.9616     0.9616    -0.0000
  5 H      0.8602     1.0000     0.1398     1.0103     1.0103     0.0000
  6 H      0.8604     1.0000     0.1396     1.0105     1.0105    -0.0000

  Mayer bond orders larger than 0.1
B(  0-C ,  1-N ) :   0.9621 B(  0-C ,  2-H ) :   0.9902 B(  0-C ,  3-H ) :   0.9902 
B(  0-C ,  4-H ) :   0.9686 B(  1-N ,  5-H ) :   0.9985 B(  1-N ,  6-H ) :   0.9988 


-------
TIMINGS
-------

Total SCF time: 0 days 0 hours 0 min 2 sec 

Total time                  ....       2.449 sec
Sum of individual times     ....       2.292 sec  ( 93.6%)

Fock matrix formation       ....       2.096 sec  ( 85.6%)
Diagonalization             ....       0.013 sec  (  0.5%)
Density matrix formation    ....       0.003 sec  (  0.1%)
Population analysis         ....       0.006 sec  (  0.2%)
Initial guess               ....       0.137 sec  (  5.6%)
Orbital Transformation      ....       0.000 sec  (  0.0%)
Orbital Orthonormalization  ....       0.000 sec  (  0.0%)
DIIS solution               ....       0.000 sec  (  0.0%)
SOSCF solution              ....       0.010 sec  (  0.4%)


           ************************************************************
           *        Program running with 8 parallel MPI-processes     *
           *              working on a common directory               *
           ************************************************************


------------------------------------------------------------------------------- 
                              ORCA-MATRIX DRIVEN CI                            
------------------------------------------------------------------------------- 


Wavefunction type
-----------------
Correlation treatment                      ...      CCSD     
Single excitations                         ... ON
Orbital optimization                       ... OFF
Calculation of Z vector                    ... OFF
Calculation of Brueckner orbitals          ... OFF
Perturbative triple excitations            ... ON
Calculation of F12 correction              ... OFF
Frozen core treatment                      ... chemical core (4 el)
Reference Wavefunction                     ... RHF
  Internal Orbitals:     2 ...    8 (  7 MO's/ 14 electrons)
  Virtual  Orbitals:     9 ...  129 (121 MO's              )
Number of AO's                             ...    130
Number of electrons                        ...     18
Number of correlated electrons             ...     14

Algorithmic settings
--------------------
Integral transformation                    ... All integrals via the RI transformation
K(C) Formation                             ... RI-DLPNO
   PNO-Integral Storage                    ... ON DISK
   PNO occupation number cut-off           ... 1.000e-07
   Singles PNO occupation number cut-off   ... 3.000e-09
   PNO Mulliken prescreening cut-off       ... 1.000e-03
   Domain cut-off (Mulliken population)    ... 1.000e-03
   PNO Normalization                       ...    1
Maximum number of iterations               ...        50
Convergence tolerance (max. residuum)      ... 1.000e-05
Level shift for amplitude update           ... 2.000e-01
Maximum number of DIIS vectors             ...         7
DIIS turned on at iteration                ...         0
Damping before turning on DIIS             ...     0.500
Damping after turning on DIIS              ...     0.000
Pair specific amplitude update             ... OFF
Natural orbital iterations                 ... OFF
Perturbative natural orbital generation    ... OFF
Printlevel                                 ... 2

Singles Fock matrix elements calculated using PNOs.

Memory handling:
----------------
Maximum memory for working arrays          ...   8000 MB
Data storage in matrix containers          ... UNCOMPRESSED
Data type for integral storage             ... DOUBLE
In-Core Storage of quantities:
   Amplitudes+Sigma Vector      ... NO
   J+K operators                ... NO
   DIIS vectors                 ... NO
   3-external integrals         ... NO
   4-external integrals         ... NO

Localization treatment:
-----------------------
Localization option                        ...    6
Localization threshhold                    ... -1.0e+00
Using relative localization threshhold     ... 1.0e-08
Neglect threshold for strong pairs         ... 1.000e-05 Eh
Prescreening threshold for very weak pairs ... 1.000e-07 Eh

Initializing the integral package          ... done
Localizing the valence orbitals
------------------------------------------------------------------------------
                           ORCA ORBITAL LOCALIZATION
------------------------------------------------------------------------------

Input orbitals are from                  ... Me_NH2_ecl.proc0.gbw
Output orbitals are to                   ... Me_NH2_ecl.proc0.loc
Max. number of iterations                ... 128
Localizations seeded randomly            ... off
Convergence tolerance                    ... 1.000e-06
Using relative localization threshhold   ... 1.000e-08
Treshold for strong local MOs            ... 9.500e-01
Treshold for bond MOs                    ... 8.500e-01
Operator                                 ... 0
Orbital range for localization           ... 2 to 8
Localization criterion                   ... FOSTER-BOYS (AUGMENTED HESSIAN)
Doing the dipole integrals     ... o.k.
Initial value of the localization sum :    15.047070
ITERATION   0 : L=   26.2156377448 DL=  1.12e+01 (AVERGE_DL)=    0.7292712439 
ITERATION   1 : L=   27.1751903820 DL=  9.60e-01 (AVERGE_DL)=    0.2137591699 
ITERATION   2 : L=   27.1952553485 DL=  2.01e-02 (AVERGE_DL)=    0.0309107521 
ITERATION   3 : L=   27.1952799111 DL=  2.46e-05 (AVERGE_DL)=    0.0010815014 
ITERATION   4 : L=   27.1952801892 DL=  2.78e-07 (AVERGE_DL)=    0.0001150729 
LOCALIZATION SUM CONVERGED

------------------------------------------------------
AUGMENTED HESSIAN OPTIMIZATION OF FOSTER-BOYS ORBITALS
------------------------------------------------------

Spin operator:           0
Orbital window:          2 to 8
Number of iterations:    128
Gradient tolerance:      1.000e-06
Number of pairs:         21
Davidson threshold:      2000
Diagonalization method:  LAPACK
Iter:    0   L: 27.1952801892   Grad. norm: 2.889968e-04
   *** Likely close to a maximum now. ***
       Augmented Hessian eigenvalues:  8.32e-09 -5.94e+00 -6.39e+00 -9.29e+00 ... 
Iter:    1   L: 27.1952801933   Grad. norm: 2.743607e-09
LOCALIZATION HAS CONVERGED.

Eigenvalues of the Hessian:
  0 -5.940e+00
  1 -6.394e+00
  2 -9.285e+00
  3 -1.139e+01
  4 -1.502e+01
  5 -1.575e+01
  6 -1.814e+01
  7 -2.020e+01
  8 -2.077e+01
  9 -2.399e+01
    ...


------------------------------------------------------------------------------- 
                    LOCALIZED MOLECULAR ORBITAL COMPOSITIONS                   
------------------------------------------------------------------------------- 

The Mulliken populations for each LMO on each atom are computed
The LMO`s will be ordered according to atom index and type
  (A) Strongly localized MO`s have populations of >=0.950 on one atom
  (B) Two center bond orbitals have populations of >=0.850 on two atoms
  (C) Other MO`s are considered to be `delocalized`

FOUND  -   1 strongly local MO`s
       -   6 two center bond MO`s
       -   0 significantly delocalized MO`s

Rather strongly localized orbitals:
MO   2:   1N  -   0.973228
Bond-like localized orbitals:
MO   8:   6H  -   0.441656  and   1N  -   0.579216
MO   7:   5H  -   0.441650  and   1N  -   0.579191
MO   6:   4H  -   0.492733  and   0C  -   0.538346
MO   5:   3H  -   0.490472  and   0C  -   0.547304
MO   4:   2H  -   0.491629  and   0C  -   0.547168
MO   3:   1N  -   0.598663  and   0C  -   0.421468
Localized MO's were stored in: Me_NH2_ecl.proc0.loc

Localizing the core orbitals
------------------------------------------------------------------------------
                           ORCA ORBITAL LOCALIZATION
------------------------------------------------------------------------------

Input orbitals are from                  ... Me_NH2_ecl.proc0.loc
Output orbitals are to                   ... Me_NH2_ecl.proc0.loc
Max. number of iterations                ... 128
Localizations seeded randomly            ... off
Convergence tolerance                    ... 1.000e-06
Using relative localization threshhold   ... 1.000e-08
Treshold for strong local MOs            ... 9.500e-01
Treshold for bond MOs                    ... 8.500e-01
Operator                                 ... 0
Orbital range for localization           ... 0 to 1
Localization criterion                   ... FOSTER-BOYS (AUGMENTED HESSIAN)
Doing the dipole integrals     ... o.k.
Initial value of the localization sum :     3.732271
ITERATION   0 : L=    3.7322715587 DL=  1.62e-07 (AVERGE_DL)=    0.0004021049 
LOCALIZATION SUM CONVERGED

------------------------------------------------------
AUGMENTED HESSIAN OPTIMIZATION OF FOSTER-BOYS ORBITALS
------------------------------------------------------

Spin operator:           0
Orbital window:          0 to 1
Number of iterations:    128
Gradient tolerance:      1.000e-06
Number of pairs:         1
Davidson threshold:      2000
Diagonalization method:  LAPACK
Iter:    0   L: 3.7322715587   Grad. norm: 1.929686e-18
   *** Likely close to a maximum now. ***
       Augmented Hessian eigenvalues:  1.26e-37 -2.97e+01
Iter:    1   L: 3.7322715587   Grad. norm: 7.776205e-23
LOCALIZATION HAS CONVERGED.

Eigenvalues of the Hessian:
  0 -2.965e+01


------------------------------------------------------------------------------- 
                    LOCALIZED MOLECULAR ORBITAL COMPOSITIONS                   
------------------------------------------------------------------------------- 

The Mulliken populations for each LMO on each atom are computed
The LMO`s will be ordered according to atom index and type
  (A) Strongly localized MO`s have populations of >=0.950 on one atom
  (B) Two center bond orbitals have populations of >=0.850 on two atoms
  (C) Other MO`s are considered to be `delocalized`

FOUND  -   2 strongly local MO`s
       -   0 two center bond MO`s
       -   0 significantly delocalized MO`s

Rather strongly localized orbitals:
MO   1:   1N  -   1.000061
MO   0:   0C  -   1.000650
Localized MO's were stored in: Me_NH2_ecl.proc0.loc

Warning: internal orbitals are localized - no re-canonicalization of internal orbitals

--------------------------
CLOSED-SHELL FOCK OPERATOR
--------------------------

RI-JK section for the Fock operator:
  RHF full Fock operator         ... done
  RHF frozen core Fock operator  ... done
Time needed for Fock operator              ...            0.459 sec
Reference energy                           ...    -95.246673452

--------------
DLPNO SETTINGS (2015 fully linear scaling implementation)
--------------

TCutMKN:           1.000e-03
TCutPAO:           1.000e-03
TCutPNO:           1.000e-07
TCutPNOSingles:    3.000e-09
TCutEN:            9.700e-01
TCutPAOExt:        1.000e-01
TCutPairs:         1.000e-05
TCutPre:           1.000e-07
TCutOSV:           1.000e-06
TCutDOij:          1.000e-05
TCutDO:            5.000e-03
TCutC:             1.000e-04
TCutCPAO:          1.000e-03
TCutCMO:           1.000e-03
TScaleDOMP2PreScr: 2.000e+00
TScaleMKNMP2PreScr:1.000e+01
TScalePNOMP2PreScr:1.000e+00
PAO overlap thresh 1.000e-08
Using PNOs for Singles Fock computation
Use new domains
Use fully linear algorithm
TCutTNO:           1.000e-09
TCutMP2Pairs:      1.000e-06
TCutDOStrong:      2.000e-03
TCutMKNStrong:     1.000e-02
TCutMKNWeak:       1.000e-01
TCutDOWeak:        4.000e-03
NTCutTNO:          1

--------------------------
Calculating differential overlap integrals ... ok
--------------------------
ELECTRON PAIR PRESCREENING
--------------------------

Dipole-based pair screening          .... used

   TCutDOij = 1.000000e-05
   TCutPre  = 1.000000e-07
   .... Finished loop over pairs
Total time spent in the prescreening                  ...     0.000 sec
sum of pair energies estimated for screened out pairs ...       0.000000000000 Eh
Thresholds for map construction and integral transformation for crude MP2:
   TCutMKN                    ...     1.0e-02
   TCutDO                     ...     1.0e-02
   TCutPairs                  ...     1.0e-05
   TCutPNO_CrudeMP2           ...     1.0e-07
   TCutPNOSingles_CrudeMP2    ...     3.0e-09
--------------------------------
LOCAL RI TRANSFORMATION (IAVPAO)
--------------------------------

Orbital window:       2 to 8
Number of PAOs:     130
Basis functions:    130 (50 shells)
Aux. functions:     312 (96 shells)

Processing maps (0.0 sec)
Average map sizes:
   Aux shells -> MOs               7.0
   Aux shells -> PAOs            130.0
   MOs        -> AO shells        50.0
   PAOs       -> AO shells        50.0

Calculating integrals (0.2 sec, 2.170 MB)
Sorting integrals (0.0 sec, 2.166 MB)
Total time for the integral transformation: 0.3 sec
--------------------------------
INITIAL GUESS AND PNO GENERATION
--------------------------------

PNO truncation parameters                   .... 
    PAOOverlapThresh   =        1.000e-08

    TCutPairs          =        1.000e-05
    TCutPNO            =        1.000e-07
    TCutPNOSingles     =        3.000e-09
    TCutMP2Pairs       =        1.000e-06
    TCutMKN            =        1.000e-02
    TCutDO             =        1.000e-02

Pair selection                          .... not used
Type of local MP2 treatment                 .... semi-local MP2
Strategy for PNO selection                  .... occupation number selection
Pair density normalization                  .... MP2 norm
Spin component scaling                      .... not used

   .... Finished loop over pairs
Making pair pair interaction lists          ... done

                       ===========================
                         28 OF   28 PAIRS ARE KEPT CCSD PAIRS
                          0 OF   28 PAIRS ARE KEPT MP2 PAIRS FOR (T)
                          0 OF   28 PAIRS ARE SKIPPED
                       ===========================

Total time spent in the initial guess                 ...     0.054 sec
SL-MP2 correlation energy (all non-screened pairs)    ...      -0.395417891728 Eh

Initial PNO correlation energy                        ...      -0.395243135440 Eh
sum of pair energies prescreened and skipped MP2 pairs...       0.000000000000 Eh
sum of pair energies of crude MP2 skipped pairs only  ...       0.000000000000 Eh
sum of MP2 pair energies for pairs that were not kept ...       0.000000000000 Eh
sum of PNO error estimates for the kept pairs         ...      -0.000174756288 Eh
                                                          --------------------
sum of all corrections                                         -0.000174756288
Initial total correlation energy                               -0.395417891728
Thresholds for map construction and integral transformation for fine MP2 and CCSD(T) calculation:
   TCutMKN   ...     1.0e-03
   TCutDO    ...     5.0e-03
   TCutPairs ...     1.0e-05
   TCutCMO   ...     1.0e-03
   TCutCPAO  ...     1.0e-03

Thresholds for map construction and integral transformation for strong Triples:
   TCutMKN   ...     1.0e-02
   TCutDO    ...     1.0e-02
   TCutCMO   ...     1.0e-03
   TCutCPAO  ...     1.0e-03

Thresholds for map construction and integral transformation for weak Triples:
   TCutMKN   ...     1.0e-01
   TCutDO    ...     2.0e-02
   TCutCMO   ...     1.0e-03
   TCutCPAO  ...     1.0e-03

--------------------------------
LOCAL RI TRANSFORMATION (IAVPAO)
--------------------------------

Orbital window:       2 to 8
Number of PAOs:     130
Basis functions:    130 (50 shells)
Aux. functions:     312 (96 shells)

Processing maps (0.0 sec)
Average map sizes:
   Aux shells -> MOs               7.0
   Aux shells -> PAOs            130.0
   MOs        -> AO shells        50.0
   PAOs       -> AO shells        50.0

Calculating integrals (0.2 sec, 2.170 MB)
Sorting integrals (0.0 sec, 2.166 MB)
Total time for the integral transformation: 0.3 sec
--------------------------------
INITIAL GUESS AND PNO GENERATION
--------------------------------

PNO truncation parameters                   .... 
    ScaleTCutPNO       =        1.000e-02
    PAOOverlapThresh   =        1.000e-08

    TCutPairs          =        1.000e-05
    TCutPNO            =        1.000e-07
    TCutPNOSingles     =        3.000e-09
    TCutMP2Pairs       =        1.000e-06
    TCutMKN            =        1.000e-03
    TCutDO             =        5.000e-03

Pair selection                          .... not used
Type of local MP2 treatment                 .... full local PMP2
Strategy for PNO selection                  .... occupation number selection
Pair density normalization                  .... MP2 norm
Spin component scaling                      .... not used

PASS-1: Formation of initial guess LMP2 amplitudes
Initial amplitudes guess done. Entering LMP2 iteration loop:
   Max. no of iterations          ...  50
   Energy convergence tolerance   ...    1.0e-07
   Residual convergence tolerance ...    5.0e-07
   Fock matrix cutoff             ...    1.0e-05 Eh
   DIIS convergence acceleration parameters:
        Max # vectors in DIIS     ... 7
        Start iteration of DIIS   ... 0
        Levelshift                ... 2.000e-01
        Damping factor 1          ... 5.000e-01
        Damping factor 2          ... 1.000e+00
   L-MP2 PNO cut-off              ...   1.0e-09
   L-MP2 PNO cut-off (core)       ...   1.0e-11
                           *** Turning on DIIS ***
LMP2-Iter=   0:  ELMP2= -0.401140074858  DE=   5.6e-03 RMAX=   4.5e-03
LMP2-Iter=   1:  ELMP2= -0.404456364125  DE=   3.3e-03 RMAX=   1.9e-03
LMP2-Iter=   2:  ELMP2= -0.404919227016  DE=   4.6e-04 RMAX=   2.4e-04
LMP2-Iter=   3:  ELMP2= -0.404965872289  DE=   4.7e-05 RMAX=   9.3e-05
LMP2-Iter=   4:  ELMP2= -0.404968009848  DE=   2.1e-06 RMAX=   1.2e-05
LMP2-Iter=   5:  ELMP2= -0.404967753312  DE=   2.6e-07 RMAX=   4.5e-06
LMP2-Iter=   6:  ELMP2= -0.404967714257  DE=   3.9e-08 RMAX=   5.4e-07
LMP2-Iter=   7:  ELMP2= -0.404967713597  DE=   6.6e-10 RMAX=   2.1e-07
LMP2-Iter=   8:  ELMP2= -0.404967715484  DE=   1.9e-09 RMAX=   2.8e-08 => CONVERGED
PASS-2: Formation of Pair natural orbitals
   .... Finished loop over pairs

 PNO Occupation Number Statistics: 
  | Av. % of trace(Dij) retained        ...  99.952696386573
  | sigma^2 in % of trace(Dij) retained ...   3.30e-03
  | Av. % of trace(Di) retained         ...  99.999818593521
  | sigma^2 in % of trace(Di) retained  ...   4.99e-10
 Distributions of % trace(Dij) recovered:
  |       >= 99.9  ...    20 ( 71.4 % of all pairs)
  |   [99.0, 99.9) ...     8 ( 28.6 % of all pairs)
 Distributions of % trace(Di) recovered :
  |       >= 99.9  ...     7 (100.0 % of all I-pairs )

Making pair pair interaction lists          ... done

                       ===========================
                         28 OF   28 PAIRS ARE KEPT
                       ===========================

Total time spent in the initial guess                 ...     0.528 sec
L-MP2 correlation energy (all non-screened pairs)     ...      -0.404967715484 Eh
L-MP2 PNO error correction                            ...      -0.000001260461 Eh
                                                          --------------------
Initial total L-MP2 energy (non-screened pairs)       ...      -0.404968975945 Eh

Initial PNO correlation energy                        ...      -0.404803600953 Eh
sum of pair energies estimated for screened out pairs ...       0.000000000000 Eh
sum of MP2 pair energies for pairs that were not kept ...       0.000000000000 Eh
sum of PNO error estimates for the kept pairs         ...      -0.000165374992 Eh
                                                          --------------------
sum of all corrections                                         -0.000165374992
Initial total correlation energy                               -0.404968975945
Thresholds for map construction and integral transformation for fine MP2 and CCSD(T) calculation:
   TCutMKN   ...     1.0e-03
   TCutDO    ...     5.0e-03
   TCutPairs ...     1.0e-05
   TCutCMO   ...     1.0e-03
   TCutCPAO  ...     1.0e-03

Time for aux screen maps:            0.000
Time for maps after fine MP2:            0.001
-----------------------------
LOCAL RI TRANSFORMATION (IJV)
-----------------------------

Orbital window:       2 to 8
Basis functions:    130 (50 shells)
Aux. functions:     312 (96 shells)

Processing maps (0.0 sec)
Average map sizes:
   Aux shells -> MOs(i)            7.0
   Aux shells -> MOs(j)            7.0
   MOs        -> AO shells        50.0

Calculating integrals (0.3 sec, 0.120 MB)
Sorting integrals (0.0 sec, 0.117 MB)
Total time for the integral transformation: 0.3 sec
--------------------------------
LOCAL RI TRANSFORMATION (VABPAO)
--------------------------------

Number of PAOs:     130
Basis functions:    130 (50 shells)
Aux. functions:     312 (96 shells)

Processing maps (0.0 sec)
Average map sizes:
   Aux shells -> PAOs            130.0
   PAOs       -> AO shells        50.0

Calculating integrals (0.3 sec, 76.337 MB)
Finished


-------------------------------------
Pair Pair Term precalculation with     
RI-(ij|mn) and (im|jn) transformation  
ON THE FLY                             
-------------------------------------

   IBatch   1 (of   1)              ... done (    1.285 sec)
Total EXT                           ...           1.285 sec

---------------------
RI-PNO TRANSFORMATION
---------------------

Total Number of PNOs                   ...  1585
Average number of PNOs per pair        ...    56
Maximal number of PNOs per pair        ...    67
   #pairs with  1 -  5 PNOs   :    0
   #pairs with  6 - 10 PNOs   :    0
   #pairs with 11 - 15 PNOs   :    0
   #pairs with 16 - 20 PNOs   :    0
   #pairs with 21 - 25 PNOs   :    0
   #pairs with 26 - 30 PNOs   :    0
   #pairs with 31 - 35 PNOs   :    0
   #pairs with 36 - 40 PNOs   :    0
   #pairs with 41 - 45 PNOs   :    0
   #pairs with 46 - 50 PNOs   :    8
   #pairs with 51 - 55 PNOs   :    6
   #pairs with 56 - 60 PNOs   :    4
   #pairs with 61 - 65 PNOs   :    9
   #pairs with 66 - 70 PNOs   :    1

Generation of (ij|ab)[P] integrals            ... on
Generation of (ia|bc)[P],(ja|bc)[P] integrals ... on
Storage of 3 and 4 external integrals         ... on
Generation of ALL (ka|bc)[P] integrals        ... on
Keep RI integrals in memory                   ... off

Ibatch:  1 (of  1)
Starting 2-4 index PNO integral generation ... done

Timings:
Total PNO integral transformation time     ...          1.611 sec
Size of the 3-external file                ...        40 MB
Size of the 4-external file                ...       302 MB
Size of the IKJL file                      ...         0 MB
Size of the all 3-external file            ...       142 MB
Size of the 1-external file                ...         0 MB

Making pair/pair overlap matrices          ... done (    0.038 sec)
Size of the pair overlap file              ... 17 MB
Redoing the guess amplitudes               ... done (    0.001 sec)

-------------------------
FINAL STARTUP INFORMATION
-------------------------

E(0)                                       ...    -95.246673452
E(L-MP2)                                   ...     -0.404968976
E(L-MP2) including corrections             ...     -0.404968976
Initial E(tot)                             ...    -95.651642427
<T|T>                                      ...      0.109279750
Number of pairs included                   ... 28
Total number of pairs                      ... 28

------------------------------------------------
                  RHF COUPLED CLUSTER ITERATIONS
------------------------------------------------

Number of PNO amplitudes to be optimized   ...        90671
Number of non-PNO amplitudes               ...       409948
Untruncated number of regular amplitudes   ...       409948

Iter       E(tot)           E(Corr)          Delta-E          Residual     Time
  0    -95.642098682     -0.395259855      0.009709120      0.012766844    2.35
                           *** Turning on DIIS ***
  1    -95.662745749     -0.415906923     -0.020647067      0.005349097    2.34
  2    -95.673877009     -0.427038182     -0.011131259      0.001590028    2.34
  3    -95.675908185     -0.429069358     -0.002031176      0.000503497    2.35
  4    -95.676292390     -0.429453563     -0.000384205      0.000198679    2.34
  5    -95.676354919     -0.429516092     -0.000062529      0.000151299    2.34
  6    -95.676368183     -0.429529357     -0.000013265      0.000089560    2.36
  7    -95.676370172     -0.429531345     -0.000001989      0.000050957    2.92
  8    -95.676370562     -0.429531736     -0.000000390      0.000020973    2.40
  9    -95.676370382     -0.429531556      0.000000180      0.000005971   13.72
               --- The Coupled-Cluster iterations have converged ---

----------------------
COUPLED CLUSTER ENERGY
----------------------

E(0)                                       ...    -95.246673452
E(CORR)(strong-pairs)                      ...     -0.429531556
E(CORR)(weak-pairs)                        ...     -0.000165375
E(CORR)(corrected)                         ...     -0.429696931
E(TOT)                                     ...    -95.676370382
Singles Norm <S|S>**1/2                    ...      0.027826536  
T1 diagnostic                              ...      0.007436955  

------------------
LARGEST AMPLITUDES
------------------
   4-> 15   4-> 15       0.032268
   5-> 15   5-> 15       0.031683
   4->  9   4->  9       0.028543
   5->  9   5->  9       0.028502
   6->  9   6->  9       0.028290
   2-> 16   2-> 16       0.026978
   4-> 15   4->  9       0.025941
   4->  9   4-> 15       0.025941
   5->  9   5-> 15       0.025718
   5-> 15   5->  9       0.025718
   7->  9   7->  9       0.024863
   8->  9   8->  9       0.024834
   7-> 15   7-> 15       0.023713
   7-> 11   7-> 11       0.023380
   8-> 11   8-> 11       0.022854
   8-> 15   8-> 15       0.022789


-------------------------------------------
DLPNO BASED TRIPLES CORRECTION
-------------------------------------------

Singles multiplier          ...  1.000000
TCutTNO                     ... 1.000e-09
TCutMP2Pairs                ... 1.000e-06
TCutDOStrong                ... 1.000e-02
TCutMKNStrong               ... 1.000e-02
TCutDOWeak                  ... 2.000e-02
TCutMKNWeak                 ... 1.000e-01

Fragment selection                          .... not used
Number of Triples that are to be computed   ...        77

 . . . . . . . . .
10% done  
20% done  
30% done  
40% done  
50% done  
60% done  
70% done  
80% done  
90% done               (      2.272 sec)
Triples timings:
Total time for T0               ...     2.367 sec
Total time for Iterative (T)    ...     0.000 sec
Total time of overall (T)       ...     3.130 sec

Triples List generation         ...     0.000 sec
TNO generation                  ...     0.093 sec
Pair density generation         ...     0.001 sec
Look up tables                  ...     0.000 sec
Generating 3-index integrals    ...     0.665 sec
  Make 4-ind.int. from 3-ind.int...     0.612 sec
  Projecting amplitudes (D + S) ...     0.066 sec
  Downprojecting integrals      ...     0.000 sec
  Energy contr. (sum over a,b,c)...     0.251 sec
Fitting ET(->0)                 ...     0.000 sec

Everything after 3-index        ...     1.607 sec

Timing details:
 TNO integrals                  ...     1.243 sec
   Reading 3-index integrals    ...     0.013 sec
   Sorting integrals            ...     0.364 sec
       Sorting integrals 1      ...     0.000 sec
       Sorting integrals 2      ...     0.036 sec
       Sorting integrals 3      ...     0.012 sec
       Sorting integrals 4      ...     0.000 sec
       Sorting integrals 5      ...     0.001 sec
       Sorting integrals 6      ...     0.314 sec
   Calculating local VM**-1/2   ...     0.006 sec
   Orthogonal. integrals        ...     0.017 sec
   Multipl. 3-index integrals   ...     0.844 sec
   All concerning IRIab (w/TNO) ...     0.255 sec

 Calculate W0/W1                ...     0.678 sec
 W 3-ext contribution           ...     0.372 sec
 W 3-int contribution           ...     0.083 sec
 Sorting W                      ...     0.213 sec

 V exchange contribution        ...     0.089 sec

 Timings for Triples without generation
     of 3-index integrals       ...     1.607 sec
       0 weak pairs             ...     1.607 sec
       1 weak pair              ...     0.000 sec
       2 weak pairs             ...     0.000 sec
       3 weak pairs             ...     0.000 sec
  Extra time for extrapolation  ...     0.000 sec

Number of Triples   (0, 1, 2, 3 weak pairs; overall):     77       0       0       0  (    77)
Number of Atoms     (0, 1, 2, 3 weak pairs; overall):    7.0     0.0     0.0     0.0  (     7)
Number of PAOs      (0, 1, 2, 3 weak pairs; overall):  130.0     0.0     0.0     0.0  (   130)
Number of AuxFcns   (0, 1, 2, 3 weak pairs; overall):  249.1     0.0     0.0     0.0  (   312)
Number of TNOs      (0, 1, 2, 3 weak pairs         ):   97.8     0.0     0.0     0.0
Aver. Number of NTNO, Atoms, PAOs, AuxFcns / Triples:     77    97.8     7.0   130.0   249.1

Triples Correction (T)                     ...     -0.014409970
Final correlation energy                   ...     -0.444106901
E(CCSD)                                    ...    -95.676370382
E(CCSD(T))                                 ...    -95.690780353


Maximum memory used throughout the entire calculation: 516.1 MB


------------------------------------------------------------------------------- 
                                     TIMINGS                                   
------------------------------------------------------------------------------- 


Total execution time                   ...       44.496 sec

Localization of occupied MO's          ...        0.390 sec (  0.9%)
Fock Matrix Formation                  ...        0.459 sec (  1.0%)
Global overlap, Fock, MKN matrices     ...        0.138 sec (  0.3%)
Differential overlap integrals         ...        0.023 sec (  0.1%)
Organizing maps                        ...        0.005 sec (  0.0%)
RI 3-index integral generations        ...        1.084 sec (  2.4%)
RI-PNO integral transformation         ...        3.014 sec (  6.8%)
Initial Guess                          ...        0.591 sec (  1.3%)
DIIS Solver                            ...        9.162 sec ( 20.6%)
State Vector Update                    ...        0.006 sec (  0.0%)
Sigma-vector construction              ...       26.440 sec ( 59.4%)
  <D|H|D>(0-ext)                       ...        0.122 sec (  0.5% of sigma)
  <D|H|D>(2-ext Fock)                  ...        0.003 sec (  0.0% of sigma)
  <D|H|D>(2-ext)                       ...        0.425 sec (  1.6% of sigma)
  <D|H|D>(4-ext)                       ...        4.381 sec ( 16.6% of sigma)
  <D|H|D>(4-ext-corr)                  ...       15.560 sec ( 58.9% of sigma)
  CCSD doubles correction              ...        0.016 sec (  0.1% of sigma)
  <S|H|S>                              ...        0.059 sec (  0.2% of sigma)
  <S|H|D>(1-ext)                       ...        0.024 sec (  0.1% of sigma)
  <D|H|S>(1-ext)                       ...        0.001 sec (  0.0% of sigma)
  <S|H|D>(3-ext)                       ...        0.142 sec (  0.5% of sigma)
  Fock-dressing                        ...        4.343 sec ( 16.4% of sigma)
  Singles amplitudes                   ...        0.030 sec (  0.1% of sigma)
  (ik|jl)-dressing                     ...        0.089 sec (  0.3% of sigma)
  (ij|ab),(ia|jb)-dressing             ...        0.279 sec (  1.1% of sigma)
  Pair energies                        ...        0.002 sec (  0.0% of sigma)
Total Time for computing (T)           ...        3.130 sec (  7.0% of ALL)


-------------------------   --------------------
FINAL SINGLE POINT ENERGY       -95.690780352668
-------------------------   --------------------


                            ***************************************
                            *     ORCA property calculations      *
                            ***************************************

                                    ---------------------
                                    Active property flags
                                    ---------------------
   (+) Dipole Moment


------------------------------------------------------------------------------
                       ORCA ELECTRIC PROPERTIES CALCULATION
------------------------------------------------------------------------------

Dipole Moment Calculation                       ... on
Quadrupole Moment Calculation                   ... off
Polarizability Calculation                      ... off
GBWName                                         ... Me_NH2_ecl.gbw
Electron density file                           ... Me_NH2_ecl.scfp.tmp
The origin for moment calculation is the CENTER OF MASS  = (-0.055959, -0.000004  0.049821)

-------------
DIPOLE MOMENT
-------------
                                X             Y             Z
Electronic contribution:     -0.95521       0.00197       0.32793
Nuclear contribution   :      1.00727       0.00011      -0.89688
                        -----------------------------------------
Total Dipole Moment    :      0.05206       0.00208      -0.56895
                        -----------------------------------------
Magnitude (a.u.)       :      0.57134
Magnitude (Debye)      :      1.45222



--------------------
Rotational spectrum 
--------------------
 
Rotational constants in cm-1:     3.339318     0.778712     0.746848 
Rotational constants in MHz : 100110.244957 23345.199408 22389.945601 

 Dipole components along the rotational axes: 
x,y,z [a.u.] :     0.075304    -0.002153    -0.566347 
x,y,z [Debye]:     0.191408    -0.005472    -1.439540 

 

Timings for individual modules:

Sum of individual times         ...       47.598 sec (=   0.793 min)
GTO integral calculation        ...        0.359 sec (=   0.006 min)   0.8 %
SCF iterations                  ...        2.579 sec (=   0.043 min)   5.4 %
MDCI module                     ...       44.661 sec (=   0.744 min)  93.8 %
                             ****ORCA TERMINATED NORMALLY****
TOTAL RUN TIME: 0 days 0 hours 0 minutes 47 seconds 856 msec
Me_NH2_ecl.gbw -> /home1/pantazis/klk/xyz/Energy_barrier/Me_NH2_ecl.gbw
Me_NH2_ecl.job -> /home1/pantazis/klk/xyz/Energy_barrier/Me_NH2_ecl.job
Me_NH2_ecl.loc -> /home1/pantazis/klk/xyz/Energy_barrier/Me_NH2_ecl.loc
Me_NH2_ecl.nodes -> /home1/pantazis/klk/xyz/Energy_barrier/Me_NH2_ecl.nodes
Me_NH2_ecl.prop -> /home1/pantazis/klk/xyz/Energy_barrier/Me_NH2_ecl.prop
Me_NH2_ecl_property.txt -> /home1/pantazis/klk/xyz/Energy_barrier/Me_NH2_ecl_property.txt
Me_NH2_ecl.xyz -> /home1/pantazis/klk/xyz/Energy_barrier/Me_NH2_ecl.xyz
cp: cannot stat Me_NH2_ecl.asa.inp: No such file or directory
