! Job execution by suborca V 6.07 on ZEUS !
Job started from zeus1, running /scratch/pantazis/Me_vinyl_sulfone_s_trans__wnd48l/orca/orca copied from /opt/orca on zeussn143 in /scratch/pantazis/Me_vinyl_sulfone_s_trans__wnd48l
Job execution start: Thu Jun 27 11:09:09 CEST 2019
Shared library path: /scratch/pantazis/Me_vinyl_sulfone_s_trans__wnd48l/orca:/opt/openmpi_1.10.2/lib:/opt/intel/mkl/lib/intel64:/opt/intel/lib/intel64:
PBS Job ID is: 157998.icqc
izeussn143
izeussn143
izeussn143
izeussn143
izeussn143
izeussn143
izeussn143
izeussn143

                                 *****************
                                 * O   R   C   A *
                                 *****************

           --- An Ab Initio, DFT and Semiempirical electronic structure package ---

                  #######################################################
                  #                        -***-                        #
                  #          Department of theory and spectroscopy      #
                  #               Directorship: Frank Neese             #
                  #        Max Planck Institute fuer Kohlenforschung    #
                  #                Kaiser Wilhelm Platz 1               #
                  #                 D-45470 Muelheim/Ruhr               #
                  #                      Germany                        #
                  #                                                     #
                  #                  All rights reserved                #
                  #                        -***-                        #
                  #######################################################


                         Program Version 4.1.x  -  STABLE  -
                                (SVN: $Rev: 14094$)
                ($Date: 2019-06-14 15:01:15 +0200 (Fri, 14 Jun 2019) $)

                         (BUILD: $Sun Jun 23 06:18:31 CEST 2019$)


 With contributions from (in alphabetic order):
   Daniel Aravena         : Magnetic Properties
   Michael Atanasov       : Ab Initio Ligand Field Theory
   Alexander A. Auer      : GIAO ZORA
   Ute Becker             : Parallelization
   Giovanni Bistoni       : ED, Open-shell LED
   Martin Brehm           : Molecular dynamics
   Dmytro Bykov           : SCF Hessian
   Vijay G. Chilkuri      : MRCI spin determinant printing
   Dipayan Datta          : RHF DLPNO-CCSD density
   Achintya Kumar Dutta   : EOM-CC, STEOM-CC
   Dmitry Ganyushin       : Spin-Orbit,Spin-Spin,Magnetic field MRCI
   Miquel Garcia          : C-PCM Hessian
   Yang Guo               : DLPNO-NEVPT2, CIM, IAO-localization
   Andreas Hansen         : Spin unrestricted coupled pair/coupled cluster methods
   Benjamin Helmich-Paris : CASSCF linear response (MC-RPA)
   Lee Huntington         : MR-EOM, pCC
   Robert Izsak           : Overlap fitted RIJCOSX, COSX-SCS-MP3, EOM
   Christian Kollmar      : KDIIS, OOCD, Brueckner-CCSD(T), CCSD density
   Simone Kossmann        : Meta GGA functionals, TD-DFT gradient, OOMP2, MP2 Hessian
   Martin Krupicka        : AUTO-CI
   Lucas Lang             : DCDCAS
   Dagmar Lenk            : GEPOL surface, SMD
   Dimitrios Liakos       : Extrapolation schemes; parallel MDCI
   Dimitrios Manganas     : ROCIS; embedding schemes
   Dimitrios Pantazis     : SARC Basis sets
   Taras Petrenko         : DFT Hessian,TD-DFT gradient, ASA, ECA, R-Raman, ABS, FL, XAS/XES, NRVS
   Peter Pinski           : DLPNO-MP2, DLPNO-MP2 Gradient
   Christoph Reimann      : Effective Core Potentials
   Marius Retegan         : Local ZFS, SOC
   Christoph Riplinger    : Optimizer, TS searches, QM/MM, DLPNO-CCSD(T), (RO)-DLPNO pert. Triples
   Tobias Risthaus        : Range-separated hybrids, TD-DFT gradient, RPA, STAB
   Michael Roemelt        : Restricted open shell CIS
   Masaaki Saitow         : Open-shell DLPNO
   Barbara Sandhoefer     : DKH picture change effects
   Avijit Sen             : IP-ROCIS
   Kantharuban Sivalingam : CASSCF convergence, NEVPT2, FIC-MRCI
   Bernardo de Souza      : ESD, SOC TD-DFT
   Georgi Stoychev        : AutoAux, RI-MP2 NMR
   Willem Van den Heuvel  : Paramagnetic NMR
   Boris Wezisla          : Elementary symmetry handling
   Frank Wennmohs         : Technical directorship


 We gratefully acknowledge several colleagues who have allowed us to
 interface, adapt or use parts of their codes:
   Stefan Grimme, W. Hujo, H. Kruse,             : VdW corrections, initial TS optimization,
                  C. Bannwarth                     DFT functionals, gCP, sTDA/sTD-DF
   Ed Valeev                                     : LibInt (2-el integral package), F12 methods
   Garnet Chan, S. Sharma, J. Yang, R. Olivares  : DMRG
   Ulf Ekstrom                                   : XCFun DFT Library
   Mihaly Kallay                                 : mrcc  (arbitrary order and MRCC methods)
   Andreas Klamt, Michael Diedenhofen            : otool_cosmo (COSMO solvation model)
   Jiri Pittner, Ondrej Demel                    : Mk-CCSD
   Frank Weinhold                                : gennbo (NPA and NBO analysis)
   Christopher J. Cramer and Donald G. Truhlar   : smd solvation model
   Lars Goerigk                                  : TD-DFT with DH, B97 family of functionals
   V. Asgeirsson, H. Jonsson                     : NEB implementation
   FAccTs GmbH                                   : IRC, NEB, NEB-TS, Multilevel


 Your calculation uses the libint2 library for the computation of 2-el integrals
 For citations please refer to: http://libint.valeyev.net

 This ORCA versions uses:
   CBLAS   interface :  Fast vector & matrix operations
   LAPACKE interface :  Fast linear algebra routines
   SCALAPACK package :  Parallel linear algebra routines




***************************************
The coordinates will be read from file: Me_vinyl_sulfone_s_trans.xyz
***************************************


----- Orbital basis set information -----
Your calculation utilizes the basis: cc-pVTZ 
       H, B-Ne : Obtained from the ccRepo (grant-hill.group.shef.ac.uk/ccrepo) Feb. 2017
                 T. H. Dunning, Jr., J. Chem. Phys. 90, 1007 (1989)
            He : Obtained from the ccRepo (grant-hill.group.shef.ac.uk/ccrepo) Feb. 2017
                 D. E. Woon, T. H. Dunning, Jr., J. Chem. Phys. 100, 2975 (1994)
  Li-Be, Na-Mg : Obtained from the ccRepo (grant-hill.group.shef.ac.uk/ccrepo) Feb. 2017
                 B. P. Prascher, D. E. Woon, K. A. Peterson, T. H. Dunning, Jr., A. K. Wilson, Theor. Chem. Acc. 128, 69 (2011)
         Al-Ar : Obtained from the ccRepo (grant-hill.group.shef.ac.uk/ccrepo) Feb. 2017
                 D. E. Woon, T. H. Dunning, Jr., J. Chem. Phys. 98, 1358 (1993)
            Ca : Obtained from the Peterson Research Group Website (tyr0.chem.wsu.edu/~kipeters) Feb. 2017
                 J. Koput, K. A. Peterson, J. Phys. Chem. 106, 9595 (2002)
         Sc-Zn : Obtained from the ccRepo (grant-hill.group.shef.ac.uk/ccrepo) Feb. 2017
                 N. B. Balabanov, K. A. Peterson, J. Chem. Phys. 123, 064107 (2005)
                 N. B. Balabanov, K. A. Peterson, J. Chem. Phys. 125, 074110 (2006)
         Ga-Kr : Obtained from the ccRepo (grant-hill.group.shef.ac.uk/ccrepo) Feb. 2017
                 A. K. Wilson, D. E. Woon, K. A. Peterson, T. H. Dunning, Jr., J. Chem. Phys. 110, 7667 (1999)
             Y : Obtained from the ccRepo (grant-hill.group.shef.ac.uk/ccrepo) Feb. 2017
                 K. A. Peterson, D. Figgen, M. Dolg, H. Stoll, J. Chem. Phys. 126, 124101 (2007)
        Ag, Au : Obtained from the Peterson Research Group Website (tyr0.chem.wsu.edu/~kipeters) Feb. 2017
                 K. A. Peterson, C. Puzzarini, Theor. Chem. Acc. 114, 283 (2005)

----- AuxC basis set information -----
Your calculation utilizes the auxiliary basis: cc-pVTZ/C 
  Obtained from the EMSL Basis Set Exchange (bse.pnl.gov) Feb. 2017
  H-He, B-F, Al-Ar, Ga-Kr : F. Weigend, A. Kohn, C. Hattig, J. Chem. Phys. 116, 3175 (2002)
             Li-Be, Na-Mg : C. Haettig, Phys. Chem. Chem. Phys. 7, 59 (2005)
                       Ne : C. Haettig, Phys. Chem. Chem. Phys. 7, 59 (2005)
                            F. Weigend, A. Kohn, C. Hattig, J. Chem. Phys. 116, 3175 (2002)
                    Sc-Zn : J. G. Hill, J. A. Platts, J. Chem. Phys. 128, 044104 (2008)

----- AuxJK basis set information -----
Your calculation utilizes the auxiliary basis: cc-pVTZ/JK 
  H, B-F, Al-Cl, Ga-Br : Obtained from the TURBOMOLE 7.0 basis set library

================================================================================
                                        WARNINGS
                       Please study these warnings very carefully!
================================================================================


WARNING: MDCI localization with Augmented Hessian Foster-Boys
  ===> : Switching off randomization!

WARNING: Post HF methods need fully converged wavefunctions
  ===> : Setting SCFConvForced true
         You can overwrite this default with %scf ConvForced false 


INFO   : the flag for use of LIBINT has been found!

================================================================================
                                       INPUT FILE
================================================================================
NAME = Me_vinyl_sulfone_s_trans.inp
|  1> ! RHF DLPNO-CCSD(T) cc-pVTZ RIJK cc-pVTZ/JK cc-pVTZ/C
|  2> ! KDIIS SOSCF TightSCF TightPNO
|  3> 
|  4> %pal nprocs 8 end
|  5> 
|  6> %maxcore 8000
|  7> 
|  8> %scf maxiter 300
|  9>      shift shift 0.2 erroff 0.1 end
| 10> end
| 11> 
| 12> * xyzfile 0 1 Me_vinyl_sulfone_s_trans.xyz 
| 13> 
| 14> 
| 15>                          ****END OF INPUT****
================================================================================

                       ****************************
                       * Single Point Calculation *
                       ****************************

---------------------------------
CARTESIAN COORDINATES (ANGSTROEM)
---------------------------------
  C      2.127700   -1.043570    0.000000
  C      1.406100    0.073990    0.000000
  S     -0.396360    0.010880    0.000000
  O     -0.850040   -0.575690    1.274070
  C     -0.850040    1.760320    0.000000
  O     -0.850040   -0.575690   -1.274070
  H     -1.941560    1.778040    0.000000
  H     -0.465290    2.234990    0.904300
  H     -0.465290    2.234990   -0.904300
  H      3.212710   -1.001980    0.000000
  H      1.664870   -2.026220    0.000000
  H      1.834360    1.072700    0.000000

----------------------------
CARTESIAN COORDINATES (A.U.)
----------------------------
  NO LB      ZA    FRAG     MASS         X           Y           Z
   0 C     6.0000    0    12.011    4.020770   -1.972062    0.000000
   1 C     6.0000    0    12.011    2.657144    0.139821    0.000000
   2 S    16.0000    0    32.060   -0.749012    0.020560    0.000000
   3 O     8.0000    0    15.999   -1.606343   -1.087896    2.407643
   4 C     6.0000    0    12.011   -1.606343    3.326523    0.000000
   5 O     8.0000    0    15.999   -1.606343   -1.087896   -2.407643
   6 H     1.0000    0     1.008   -3.669017    3.360009    0.000000
   7 H     1.0000    0     1.008   -0.879271    4.223519    1.708879
   8 H     1.0000    0     1.008   -0.879271    4.223519   -1.708879
   9 H     1.0000    0     1.008    6.071142   -1.893468    0.000000
  10 H     1.0000    0     1.008    3.146148   -3.829001    0.000000
  11 H     1.0000    0     1.008    3.466438    2.027109    0.000000

--------------------------------
INTERNAL COORDINATES (ANGSTROEM)
--------------------------------
 C      0   0   0     0.000000000000     0.00000000     0.00000000
 C      1   0   0     1.330280764952     0.00000000     0.00000000
 S      2   1   0     1.803564505001   120.84473064     0.00000000
 O      3   2   1     1.474158835472   108.75305740    65.88438922
 C      3   2   1     1.807309009550   102.53289024   180.00000085
 O      3   2   1     1.474158835472   108.75305740   294.11561078
 H      5   3   2     1.091663825910   105.46825492   180.00000000
 H      5   3   2     1.091376498464   109.42096020   298.52885255
 H      5   3   2     1.091376498464   109.42096020    61.47114745
 H      1   2   3     1.085806809796   120.65486820   180.00000085
 H      1   2   3     1.086191802307   121.92945266     0.00000000
 H      2   1   3     1.086659234397   123.93968559   180.00000000

---------------------------
INTERNAL COORDINATES (A.U.)
---------------------------
 C      0   0   0     0.000000000000     0.00000000     0.00000000
 C      1   0   0     2.513866326982     0.00000000     0.00000000
 S      2   1   0     3.408242979313   120.84473064     0.00000000
 O      3   2   1     2.785756476942   108.75305740    65.88438922
 C      3   2   1     3.415319067418   102.53289024   180.00000085
 O      3   2   1     2.785756476942   108.75305740   294.11561078
 H      5   3   2     2.062945661278   105.46825492   180.00000000
 H      5   3   2     2.062402691095   109.42096020   298.52885255
 H      5   3   2     2.062402691095   109.42096020    61.47114745
 H      1   2   3     2.051877504862   120.65486820   180.00000085
 H      1   2   3     2.052605035271   121.92945266     0.00000000
 H      2   1   3     2.053488353907   123.93968559   180.00000000

---------------------
BASIS SET INFORMATION
---------------------
There are 4 groups of distinct atoms

 Group   1 Type C   : 18s5p2d1f contracted to 4s3p2d1f pattern {8811/311/11/1}
 Group   2 Type S   : 41s16p2d1f contracted to 5s4p2d1f pattern {13131311/7711/11/1}
 Group   3 Type O   : 18s5p2d1f contracted to 4s3p2d1f pattern {8811/311/11/1}
 Group   4 Type H   : 5s2p1d contracted to 3s2p1d pattern {311/11/1}

Atom   0C    basis set group =>   1
Atom   1C    basis set group =>   1
Atom   2S    basis set group =>   2
Atom   3O    basis set group =>   3
Atom   4C    basis set group =>   1
Atom   5O    basis set group =>   3
Atom   6H    basis set group =>   4
Atom   7H    basis set group =>   4
Atom   8H    basis set group =>   4
Atom   9H    basis set group =>   4
Atom  10H    basis set group =>   4
Atom  11H    basis set group =>   4
-------------------------------
AUXILIARY BASIS SET INFORMATION
-------------------------------
There are 4 groups of distinct atoms

 Group   1 Type C   : 8s6p5d3f1g contracted to 8s6p5d3f1g pattern {11111111/111111/11111/111/1}
 Group   2 Type S   : 10s8p7d5f2g contracted to 10s8p7d5f2g pattern {1111111111/11111111/1111111/11111/11}
 Group   3 Type O   : 8s6p5d3f1g contracted to 8s6p5d3f1g pattern {11111111/111111/11111/111/1}
 Group   4 Type H   : 4s3p2d1f contracted to 4s3p2d1f pattern {1111/111/11/1}

Atom   0C    basis set group =>   1
Atom   1C    basis set group =>   1
Atom   2S    basis set group =>   2
Atom   3O    basis set group =>   3
Atom   4C    basis set group =>   1
Atom   5O    basis set group =>   3
Atom   6H    basis set group =>   4
Atom   7H    basis set group =>   4
Atom   8H    basis set group =>   4
Atom   9H    basis set group =>   4
Atom  10H    basis set group =>   4
Atom  11H    basis set group =>   4
-------------------------------
AUXILIARY BASIS SET INFORMATION
-------------------------------
There are 4 groups of distinct atoms

 Group   1 Type C   : 10s7p5d2f1g contracted to 10s7p5d2f1g pattern {1111111111/1111111/11111/11/1}
 Group   2 Type S   : 13s11p9d3f1g contracted to 13s11p9d3f1g pattern {1111111111111/11111111111/111111111/111/1}
 Group   3 Type O   : 10s7p5d2f1g contracted to 10s7p5d2f1g pattern {1111111111/1111111/11111/11/1}
 Group   4 Type H   : 4s3p2d1f contracted to 4s3p2d1f pattern {1111/111/11/1}

Atom   0C    basis set group =>   1
Atom   1C    basis set group =>   1
Atom   2S    basis set group =>   2
Atom   3O    basis set group =>   3
Atom   4C    basis set group =>   1
Atom   5O    basis set group =>   3
Atom   6H    basis set group =>   4
Atom   7H    basis set group =>   4
Atom   8H    basis set group =>   4
Atom   9H    basis set group =>   4
Atom  10H    basis set group =>   4
Atom  11H    basis set group =>   4


           ************************************************************
           *        Program running with 8 parallel MPI-processes     *
           *              working on a common directory               *
           ************************************************************
------------------------------------------------------------------------------
                           ORCA GTO INTEGRAL CALCULATION
                           -- RI-GTO INTEGRALS CHOSEN --
------------------------------------------------------------------------------

                         BASIS SET STATISTICS AND STARTUP INFO

Gaussian basis set:
 # of primitive gaussian shells          ...  238
 # of primitive gaussian functions       ...  452
 # of contracted shells                  ...   98
 # of contracted basis functions         ...  268
 Highest angular momentum                ...    3
 Maximum contraction depth               ...   13
Auxiliary gaussian basis set:
 # of primitive gaussian shells          ...  222
 # of primitive gaussian functions       ...  696
 # of contracted shells                  ...  222
 # of contracted aux-basis functions     ...  696
 Highest angular momentum                ...    4
 Maximum contraction depth               ...    1
Ratio of auxiliary to basis functions    ...  2.60
Integral package used                  ... LIBINT
 One Electron integrals                  ... done
 Ordering auxiliary basis shells         ... done
 Integral threshhold             Thresh  ...  2.500e-11
 Primitive cut-off               TCut    ...  2.500e-12
 Pre-screening matrix                    ... done
 Shell pair data                         ... 
 Ordering of the shell pairs             ... done (   0.001 sec) 4655 of 4851 pairs
 Determination of significant pairs      ... done (   0.000 sec)
 Creation of shell pair data             ... done (   0.001 sec)
 Storage of shell pair data              ... done (   0.001 sec)
 Shell pair data done in (   0.004 sec)
 Computing two index integrals           ... done
 Cholesky decomposition of the V-matrix  ... done


Timings:
 Total evaluation time                   ...   0.644 sec (  0.011 min)
 One electron matrix time                ...   0.187 sec (  0.003 min) = 29.0%
 Schwartz matrix evaluation time         ...   0.330 sec (  0.006 min) = 51.2%
 Two index repulsion integral time       ...   0.048 sec (  0.001 min) =  7.4%
 Cholesky decomposition of V             ...   0.040 sec (  0.001 min) =  6.2%
 Three index repulsion integral time     ...   0.000 sec (  0.000 min) =  0.0%



           ************************************************************
           *        Program running with 8 parallel MPI-processes     *
           *              working on a common directory               *
           ************************************************************
-------------------------------------------------------------------------------
                                 ORCA SCF
-------------------------------------------------------------------------------

------------
SCF SETTINGS
------------
Hamiltonian:
 Ab initio Hamiltonian  Method          .... Hartree-Fock(GTOs)
 RI-approximation to the Coulomb term is turned on
   Number of auxiliary basis functions  .... 696
   RI-JK (J+K treated both via RI)      .... on


General Settings:
 Integral files         IntName         .... Me_vinyl_sulfone_s_trans
 Hartree-Fock type      HFTyp           .... RHF
 Total Charge           Charge          ....    0
 Multiplicity           Mult            ....    1
 Number of Electrons    NEL             ....   56
 Basis Dimension        Dim             ....  268
 Nuclear Repulsion      ENuc            ....    326.3414970175 Eh

Convergence Acceleration:
 DIIS                   CNVDIIS         .... off
 Newton-Raphson         CNVNR           .... off
 SOSCF                  CNVSOSCF        .... on
   Start iteration      SOSCFMaxIt      ....   150
   Startup grad/error   SOSCFStart      ....  0.003300
 Level Shifting         CNVShift        .... on
   Level shift para.    LevelShift      ....    0.2000
   Turn off err/grad.   ShiftErr        ....    0.1000
 Zerner damping         CNVZerner       .... off
 Static damping         CNVDamp         .... off
 Fernandez-Rico         CNVRico         .... off

SCF Procedure:
 Maximum # iterations   MaxIter         ....   300
 SCF integral mode      SCFMode         .... Direct
   Integral package                     .... LIBINT
 Reset frequency        DirectResetFreq ....    20
 Integral Threshold     Thresh          ....  2.500e-11 Eh
 Primitive CutOff       TCut            ....  2.500e-12 Eh

Convergence Tolerance:
 Convergence Check Mode ConvCheckMode   .... Total+1el-Energy
 Convergence forced     ConvForced      .... 1
 Energy Change          TolE            ....  1.000e-08 Eh
 1-El. energy change                    ....  1.000e-05 Eh
 Orbital Gradient       TolG            ....  1.000e-05
 Orbital Rotation angle TolX            ....  1.000e-05


Diagonalization of the overlap matrix:
Smallest eigenvalue                        ... 4.553e-04
Time for diagonalization                   ...    0.015 sec
Threshold for overlap eigenvalues          ... 1.000e-08
Number of eigenvalues below threshold      ... 0
Time for construction of square roots      ...    0.021 sec
Total time needed                          ...    0.036 sec

-------------------
DFT GRID GENERATION
-------------------

General Integration Accuracy     IntAcc      ...  4.340
Radial Grid Type                 RadialGrid  ... Gauss-Chebyshev
Angular Grid (max. acc.)         AngularGrid ... Lebedev-110
Angular grid pruning method      GridPruning ... 3 (G Style)
Weight generation scheme         WeightScheme... Becke
Basis function cutoff            BFCut       ...    1.0000e-11
Integration weight cutoff        WCut        ...    1.0000e-14
Grids for H and He will be reduced by one unit

# of grid points (after initial pruning)     ...  14970 (   0.0 sec)
# of grid points (after weights+screening)   ...  14134 (   0.0 sec)
nearest neighbour list constructed           ...    0.0 sec
Grid point re-assignment to atoms done       ...    0.0 sec
Grid point division into batches done        ...    0.0 sec
Reduced shell lists constructed in    0.1 sec

Total number of grid points                  ...    14134
Total number of batches                      ...      227
Average number of points per batch           ...       62
Average number of grid points per atom       ...     1178
Average number of shells per batch           ...    79.27 (80.88%)
Average number of basis functions per batch  ...   209.20 (78.06%)
Average number of large shells per batch     ...    62.93 (79.39%)
Average number of large basis fcns per batch ...   166.80 (79.73%)
Average number of aux-shells per batch       ...    79.27 (35.71%)
Average number of aux functions per batch    ...   209.20 (30.06%)
Maximum spatial batch extension              ...   2.96,  2.64,  6.94 au
Average spatial batch extension              ...   0.21,  0.22,  0.27 au

Time for grid setup =    0.090 sec

------------------------------
INITIAL GUESS: MODEL POTENTIAL
------------------------------
Loading Hartree-Fock densities                     ... done
Calculating cut-offs                               ... done
Setting up the integral package                    ... done
Initializing the effective Hamiltonian             ... done
Starting the Coulomb interaction                   ... done (   0.0 sec)
Reading the grid                                   ... done
Mapping shells                                     ... done
Starting the XC term evaluation                    ... done (   0.0 sec)
Transforming the Hamiltonian                       ... done (   0.0 sec)
Diagonalizing the Hamiltonian                      ... done (   0.0 sec)
Back transforming the eigenvectors                 ... done (   0.0 sec)
Now organizing SCF variables                       ... done
                      ------------------
                      INITIAL GUESS DONE (   0.3 sec)
                      ------------------
--------------
SCF ITERATIONS
--------------
ITER       Energy         Delta-E        Max-DP      RMS-DP      [F,P]   Gradient Norm
                             ****Turning on KDIIS(Cayley)****
  0   -664.0057355221   0.000000000000 0.02071645  0.00034291  0.1700081   0.167830326
  1   -664.1201905622  -0.114455040099 0.03642496  0.00038861  0.1583684   0.142837496
  2   -664.2087493784  -0.088558816177 0.05945906  0.00063779  0.1272026   0.115561956
  3   -664.3131641147  -0.104414736294 0.09165521  0.00103073  0.0771394   0.070904576
                      *** Initiating the SOSCF procedure ***
                           *** Shutting down KDIIS ***
                      *** Re-Reading the Fockian *** 
                      *** Removing any level shift *** 
ITER      Energy       Delta-E        Grad      Rot      Max-DP    RMS-DP
  4   -664.38028773  -0.0671236145  0.002571  0.002571  0.003331  0.000070
  5   -664.38052253  -0.0002347977  0.001090  0.001509  0.001978  0.000039
  6   -664.38054169  -0.0000191654  0.000561  0.000494  0.000838  0.000016
  7   -664.38055661  -0.0000149173  0.000211  0.000460  0.000270  0.000007
  8   -664.38055728  -0.0000006753  0.000058  0.000140  0.000132  0.000003
  9   -664.38055748  -0.0000001917  0.000037  0.000086  0.000046  0.000001
 10   -664.38055749  -0.0000000169  0.000010  0.000027  0.000030  0.000001
 11   -664.38055750  -0.0000000031  0.000005  0.000007  0.000005  0.000000
                  ***Gradient check signals convergence***
              ***Rediagonalizing the Fockian in SOSCF/NRSCF***

               *****************************************************
               *                     SUCCESS                       *
               *           SCF CONVERGED AFTER  12 CYCLES          *
               *****************************************************


----------------
TOTAL SCF ENERGY
----------------

Total Energy       :         -664.38055750 Eh          -18078.71407 eV

Components:
Nuclear Repulsion  :          326.34149702 Eh            8880.20359 eV
Electronic Energy  :         -990.72205451 Eh          -26958.91767 eV
One Electron Energy:        -1561.30950972 Eh          -42485.39168 eV
Two Electron Energy:          570.58745521 Eh           15526.47401 eV

Virial components:
Potential Energy   :        -1327.92231785 Eh          -36134.60332 eV
Kinetic Energy     :          663.54176035 Eh           18055.88924 eV
Virial Ratio       :            2.00126412


---------------
SCF CONVERGENCE
---------------

  Last Energy change         ...   -4.3724e-10  Tolerance :   1.0000e-08
  Last MAX-Density change    ...    2.5769e-06  Tolerance :   1.0000e-07
  Last RMS-Density change    ...    7.6194e-08  Tolerance :   5.0000e-09
  Last Orbital Gradient      ...    1.0302e-06  Tolerance :   1.0000e-05
  Last Orbital Rotation      ...    1.9705e-06  Tolerance :   1.0000e-05

             **** THE GBW FILE WAS UPDATED (Me_vinyl_sulfone_s_trans.gbw) ****
             **** DENSITY FILE WAS UPDATED (Me_vinyl_sulfone_s_trans.scfp.tmp) ****
             **** ENERGY FILE WAS UPDATED (Me_vinyl_sulfone_s_trans.en.tmp) ****
----------------
ORBITAL ENERGIES
----------------

  NO   OCC          E(Eh)            E(eV) 
   0   2.0000     -92.183894     -2508.4513 
   1   2.0000     -20.538534      -558.8819 
   2   2.0000     -20.538513      -558.8814 
   3   2.0000     -11.286643      -307.1252 
   4   2.0000     -11.282546      -307.0137 
   5   2.0000     -11.279058      -306.9188 
   6   2.0000      -9.153266      -249.0730 
   7   2.0000      -6.838029      -186.0722 
   8   2.0000      -6.837412      -186.0554 
   9   2.0000      -6.837089      -186.0467 
  10   2.0000      -1.429153       -38.8892 
  11   2.0000      -1.318765       -35.8854 
  12   2.0000      -1.097211       -29.8566 
  13   2.0000      -1.038480       -28.2585 
  14   2.0000      -0.890777       -24.2393 
  15   2.0000      -0.784692       -21.3526 
  16   2.0000      -0.704408       -19.1679 
  17   2.0000      -0.667754       -18.1705 
  18   2.0000      -0.648415       -17.6443 
  19   2.0000      -0.637607       -17.3502 
  20   2.0000      -0.598540       -16.2871 
  21   2.0000      -0.596995       -16.2450 
  22   2.0000      -0.582089       -15.8394 
  23   2.0000      -0.499649       -13.5961 
  24   2.0000      -0.483470       -13.1559 
  25   2.0000      -0.465023       -12.6539 
  26   2.0000      -0.438625       -11.9356 
  27   2.0000      -0.410645       -11.1742 
  28   0.0000       0.097873         2.6633 
  29   0.0000       0.122522         3.3340 
  30   0.0000       0.146611         3.9895 
  31   0.0000       0.176012         4.7895 
  32   0.0000       0.190533         5.1847 
  33   0.0000       0.196190         5.3386 
  34   0.0000       0.202870         5.5204 
  35   0.0000       0.220548         6.0014 
  36   0.0000       0.254757         6.9323 
  37   0.0000       0.271316         7.3829 
  38   0.0000       0.301068         8.1925 
  39   0.0000       0.323606         8.8058 
  40   0.0000       0.370195        10.0735 
  41   0.0000       0.379348        10.3226 
  42   0.0000       0.396295        10.7837 
  43   0.0000       0.436987        11.8910 
  44   0.0000       0.445955        12.1351 
  45   0.0000       0.452850        12.3227 
  46   0.0000       0.478875        13.0309 
  47   0.0000       0.487550        13.2669 
  48   0.0000       0.519500        14.1363 
  49   0.0000       0.522845        14.2273 
  50   0.0000       0.552857        15.0440 
  51   0.0000       0.575566        15.6619 
  52   0.0000       0.579461        15.7679 
  53   0.0000       0.596434        16.2298 
  54   0.0000       0.606029        16.4909 
  55   0.0000       0.609028        16.5725 
  56   0.0000       0.627715        17.0810 
  57   0.0000       0.652217        17.7477 
  58   0.0000       0.653060        17.7707 
  59   0.0000       0.681735        18.5509 
  60   0.0000       0.703359        19.1394 
  61   0.0000       0.727381        19.7930 
  62   0.0000       0.751067        20.4376 
  63   0.0000       0.752351        20.4725 
  64   0.0000       0.800745        21.7894 
  65   0.0000       0.810131        22.0448 
  66   0.0000       0.857416        23.3315 
  67   0.0000       0.873137        23.7593 
  68   0.0000       0.876947        23.8629 
  69   0.0000       0.901766        24.5383 
  70   0.0000       0.922025        25.0896 
  71   0.0000       0.949311        25.8321 
  72   0.0000       0.950681        25.8693 
  73   0.0000       0.970219        26.4010 
  74   0.0000       1.015886        27.6437 
  75   0.0000       1.016482        27.6599 
  76   0.0000       1.044923        28.4338 
  77   0.0000       1.062550        28.9134 
  78   0.0000       1.101957        29.9858 
  79   0.0000       1.124692        30.6044 
  80   0.0000       1.125642        30.6303 
  81   0.0000       1.164755        31.6946 
  82   0.0000       1.172929        31.9170 
  83   0.0000       1.184282        32.2260 
  84   0.0000       1.240231        33.7484 
  85   0.0000       1.255910        34.1751 
  86   0.0000       1.282065        34.8868 
  87   0.0000       1.317490        35.8507 
  88   0.0000       1.331482        36.2315 
  89   0.0000       1.335979        36.3538 
  90   0.0000       1.368828        37.2477 
  91   0.0000       1.373171        37.3659 
  92   0.0000       1.375196        37.4210 
  93   0.0000       1.430942        38.9379 
  94   0.0000       1.473413        40.0936 
  95   0.0000       1.473596        40.0986 
  96   0.0000       1.500985        40.8439 
  97   0.0000       1.521906        41.4132 
  98   0.0000       1.532521        41.7020 
  99   0.0000       1.536077        41.7988 
 100   0.0000       1.575657        42.8758 
 101   0.0000       1.602130        43.5962 
 102   0.0000       1.611904        43.8621 
 103   0.0000       1.713222        46.6191 
 104   0.0000       1.718696        46.7681 
 105   0.0000       1.744305        47.4650 
 106   0.0000       1.759337        47.8740 
 107   0.0000       1.764642        48.0184 
 108   0.0000       1.789132        48.6848 
 109   0.0000       1.819259        49.5045 
 110   0.0000       1.861344        50.6498 
 111   0.0000       1.887302        51.3561 
 112   0.0000       1.899746        51.6947 
 113   0.0000       1.930881        52.5420 
 114   0.0000       1.942645        52.8621 
 115   0.0000       1.994012        54.2598 
 116   0.0000       2.084515        56.7225 
 117   0.0000       2.114314        57.5334 
 118   0.0000       2.124905        57.8216 
 119   0.0000       2.164511        58.8993 
 120   0.0000       2.259274        61.4780 
 121   0.0000       2.313170        62.9445 
 122   0.0000       2.347537        63.8797 
 123   0.0000       2.404256        65.4231 
 124   0.0000       2.422324        65.9148 
 125   0.0000       2.469082        67.1871 
 126   0.0000       2.544739        69.2459 
 127   0.0000       2.550426        69.4006 
 128   0.0000       2.554570        69.5134 
 129   0.0000       2.575137        70.0730 
 130   0.0000       2.605660        70.9036 
 131   0.0000       2.617311        71.2207 
 132   0.0000       2.652744        72.1848 
 133   0.0000       2.667734        72.5927 
 134   0.0000       2.695168        73.3393 
 135   0.0000       2.709367        73.7256 
 136   0.0000       2.717255        73.9403 
 137   0.0000       2.796943        76.1087 
 138   0.0000       2.820441        76.7481 
 139   0.0000       2.829689        76.9997 
 140   0.0000       2.858333        77.7792 
 141   0.0000       2.862832        77.9016 
 142   0.0000       2.917064        79.3773 
 143   0.0000       2.955977        80.4362 
 144   0.0000       2.995779        81.5193 
 145   0.0000       3.017690        82.1155 
 146   0.0000       3.059690        83.2584 
 147   0.0000       3.062178        83.3261 
 148   0.0000       3.078459        83.7691 
 149   0.0000       3.108744        84.5932 
 150   0.0000       3.122398        84.9648 
 151   0.0000       3.148736        85.6815 
 152   0.0000       3.166734        86.1712 
 153   0.0000       3.200419        87.0878 
 154   0.0000       3.219595        87.6096 
 155   0.0000       3.242513        88.2333 
 156   0.0000       3.263419        88.8022 
 157   0.0000       3.270404        88.9922 
 158   0.0000       3.330210        90.6196 
 159   0.0000       3.342343        90.9498 
 160   0.0000       3.368893        91.6722 
 161   0.0000       3.375002        91.8385 
 162   0.0000       3.415956        92.9529 
 163   0.0000       3.435357        93.4808 
 164   0.0000       3.456105        94.0454 
 165   0.0000       3.493632        95.0665 
 166   0.0000       3.510824        95.5344 
 167   0.0000       3.514829        95.6434 
 168   0.0000       3.528843        96.0247 
 169   0.0000       3.547470        96.5316 
 170   0.0000       3.602132        98.0190 
 171   0.0000       3.624489        98.6274 
 172   0.0000       3.644078        99.1604 
 173   0.0000       3.668968        99.8377 
 174   0.0000       3.694395       100.5296 
 175   0.0000       3.723391       101.3186 
 176   0.0000       3.760385       102.3253 
 177   0.0000       3.804390       103.5227 
 178   0.0000       3.823157       104.0334 
 179   0.0000       3.852606       104.8347 
 180   0.0000       3.853565       104.8608 
 181   0.0000       3.860820       105.0582 
 182   0.0000       3.938556       107.1736 
 183   0.0000       3.977216       108.2255 
 184   0.0000       3.986298       108.4727 
 185   0.0000       4.054577       110.3306 
 186   0.0000       4.094697       111.4224 
 187   0.0000       4.102198       111.6265 
 188   0.0000       4.109379       111.8219 
 189   0.0000       4.142336       112.7187 
 190   0.0000       4.166219       113.3686 
 191   0.0000       4.177381       113.6723 
 192   0.0000       4.191336       114.0520 
 193   0.0000       4.243449       115.4701 
 194   0.0000       4.251193       115.6808 
 195   0.0000       4.296413       116.9114 
 196   0.0000       4.299368       116.9917 
 197   0.0000       4.313817       117.3849 
 198   0.0000       4.353982       118.4779 
 199   0.0000       4.365256       118.7846 
 200   0.0000       4.374705       119.0418 
 201   0.0000       4.425989       120.4373 
 202   0.0000       4.439461       120.8039 
 203   0.0000       4.463682       121.4629 
 204   0.0000       4.475202       121.7764 
 205   0.0000       4.522426       123.0615 
 206   0.0000       4.543074       123.6233 
 207   0.0000       4.568174       124.3063 
 208   0.0000       4.699749       127.8867 
 209   0.0000       4.773227       129.8861 
 210   0.0000       4.818892       131.1287 
 211   0.0000       4.847100       131.8963 
 212   0.0000       4.914482       133.7299 
 213   0.0000       4.993715       135.8859 
 214   0.0000       5.013509       136.4245 
 215   0.0000       5.039704       137.1373 
 216   0.0000       5.055308       137.5619 
 217   0.0000       5.114128       139.1625 
 218   0.0000       5.222962       142.1240 
 219   0.0000       5.235168       142.4562 
 220   0.0000       5.268003       143.3496 
 221   0.0000       5.292136       144.0063 
 222   0.0000       5.297882       144.1627 
 223   0.0000       5.345383       145.4553 
 224   0.0000       5.352749       145.6557 
 225   0.0000       5.390789       146.6908 
 226   0.0000       5.434678       147.8851 
 227   0.0000       5.501069       149.6917 
 228   0.0000       5.524123       150.3190 
 229   0.0000       5.550722       151.0428 
 230   0.0000       5.562817       151.3719 
 231   0.0000       5.590442       152.1237 
 232   0.0000       5.611480       152.6961 
 233   0.0000       5.622785       153.0038 
 234   0.0000       5.627224       153.1246 
 235   0.0000       5.629865       153.1964 
 236   0.0000       5.645513       153.6222 
 237   0.0000       5.678758       154.5268 
 238   0.0000       5.705515       155.2549 
 239   0.0000       5.746880       156.3805 
 240   0.0000       5.763110       156.8222 
 241   0.0000       5.782528       157.3506 
 242   0.0000       5.994592       163.1211 
 243   0.0000       6.007491       163.4721 
 244   0.0000       6.018603       163.7745 
 245   0.0000       6.098972       165.9615 
 246   0.0000       6.136922       166.9941 
 247   0.0000       6.170203       167.8998 
 248   0.0000       6.204276       168.8269 
 249   0.0000       6.232660       169.5993 
 250   0.0000       6.276518       170.7927 
 251   0.0000       6.434084       175.0803 
 252   0.0000       6.787914       184.7085 
 253   0.0000       6.829830       185.8491 
 254   0.0000       6.843806       186.2294 
 255   0.0000       6.936403       188.7491 
 256   0.0000       6.962528       189.4600 
 257   0.0000       7.253480       197.3772 
 258   0.0000       7.269432       197.8113 
 259   0.0000       7.329945       199.4580 
 260   0.0000       7.360408       200.2869 
 261   0.0000       7.469565       203.2572 
 262   0.0000       7.602805       206.8828 
 263   0.0000      10.177779       276.9515 
 264   0.0000      10.542647       286.8800 
 265   0.0000      11.058507       300.9173 
 266   0.0000      13.574377       369.3776 
 267   0.0000      14.603323       397.3766 

                    ********************************
                    * MULLIKEN POPULATION ANALYSIS *
                    ********************************

-----------------------
MULLIKEN ATOMIC CHARGES
-----------------------
   0 C :   -0.237817
   1 C :   -0.197630
   2 S :    0.999334
   3 O :   -0.571726
   4 C :   -0.291012
   5 O :   -0.571726
   6 H :    0.138034
   7 H :    0.120889
   8 H :    0.120889
   9 H :    0.165395
  10 H :    0.165932
  11 H :    0.159437
Sum of atomic charges:   -0.0000000

--------------------------------
MULLIKEN REDUCED ORBITAL CHARGES
--------------------------------
  0 C s       :     3.331587  s :     3.331587
      pz      :     0.848987  p :     2.806904
      px      :     0.995880
      py      :     0.962037
      dz2     :     0.008347  d :     0.092623
      dxz     :     0.006887
      dyz     :     0.017972
      dx2y2   :     0.039484
      dxy     :     0.019934
      f0      :     0.001055  f :     0.006704
      f+1     :     0.000588
      f-1     :     0.000501
      f+2     :     0.000169
      f-2     :     0.000922
      f+3     :     0.002156
      f-3     :     0.001313
  1 C s       :     3.211529  s :     3.211529
      pz      :     1.058312  p :     2.889897
      px      :     0.859739
      py      :     0.971847
      dz2     :     0.005353  d :     0.088297
      dxz     :     0.005318
      dyz     :     0.011287
      dx2y2   :     0.052506
      dxy     :     0.013833
      f0      :     0.001451  f :     0.007906
      f+1     :     0.001209
      f-1     :     0.000808
      f+2     :     0.000191
      f-2     :     0.000696
      f+3     :     0.001991
      f-3     :     0.001560
  2 S s       :     5.332608  s :     5.332608
      pz      :     2.789962  p :     8.669030
      px      :     2.945032
      py      :     2.934036
      dz2     :     0.268778  d :     0.904906
      dxz     :     0.187414
      dyz     :     0.185116
      dx2y2   :     0.203896
      dxy     :     0.059702
      f0      :     0.024975  f :     0.094122
      f+1     :     0.015909
      f-1     :     0.013427
      f+2     :     0.017547
      f-2     :     0.012579
      f+3     :     0.004750
      f-3     :     0.004935
  3 O s       :     3.809480  s :     3.809480
      pz      :     1.385501  p :     4.723444
      px      :     1.683742
      py      :     1.654202
      dz2     :     0.012149  d :     0.036734
      dxz     :     0.009026
      dyz     :     0.009980
      dx2y2   :     0.002566
      dxy     :     0.003013
      f0      :     0.000488  f :     0.002068
      f+1     :     0.000417
      f-1     :     0.000510
      f+2     :     0.000278
      f-2     :     0.000297
      f+3     :     0.000038
      f-3     :     0.000040
  4 C s       :     3.233326  s :     3.233326
      pz      :     1.033730  p :     2.992366
      px      :     1.067582
      py      :     0.891054
      dz2     :     0.018265  d :     0.061764
      dxz     :     0.008488
      dyz     :     0.006636
      dx2y2   :     0.020163
      dxy     :     0.008212
      f0      :     0.000067  f :     0.003555
      f+1     :     0.000967
      f-1     :     0.001029
      f+2     :     0.000209
      f-2     :    -0.000056
      f+3     :     0.000727
      f-3     :     0.000612
  5 O s       :     3.809480  s :     3.809480
      pz      :     1.385501  p :     4.723444
      px      :     1.683742
      py      :     1.654202
      dz2     :     0.012149  d :     0.036734
      dxz     :     0.009026
      dyz     :     0.009980
      dx2y2   :     0.002566
      dxy     :     0.003013
      f0      :     0.000488  f :     0.002068
      f+1     :     0.000417
      f-1     :     0.000510
      f+2     :     0.000278
      f-2     :     0.000297
      f+3     :     0.000038
      f-3     :     0.000040
  6 H s       :     0.825944  s :     0.825944
      pz      :     0.009163  p :     0.033615
      px      :     0.015288
      py      :     0.009164
      dz2     :     0.000280  d :     0.002406
      dxz     :     0.000714
      dyz     :     0.000026
      dx2y2   :     0.000615
      dxy     :     0.000772
  7 H s       :     0.844474  s :     0.844474
      pz      :     0.011840  p :     0.032364
      px      :     0.008185
      py      :     0.012339
      dz2     :     0.000623  d :     0.002273
      dxz     :     0.000476
      dyz     :     0.000717
      dx2y2   :     0.000294
      dxy     :     0.000163
  8 H s       :     0.844474  s :     0.844474
      pz      :     0.011840  p :     0.032364
      px      :     0.008185
      py      :     0.012339
      dz2     :     0.000623  d :     0.002273
      dxz     :     0.000476
      dyz     :     0.000717
      dx2y2   :     0.000294
      dxy     :     0.000163
  9 H s       :     0.807639  s :     0.807639
      pz      :     0.008842  p :     0.024962
      px      :     0.010246
      py      :     0.005874
      dz2     :     0.000176  d :     0.002004
      dxz     :     0.000485
      dyz     :     0.000007
      dx2y2   :     0.000577
      dxy     :     0.000759
 10 H s       :     0.803366  s :     0.803366
      pz      :     0.008767  p :     0.028398
      px      :     0.009596
      py      :     0.010035
      dz2     :     0.000221  d :     0.002304
      dxz     :     0.000053
      dyz     :     0.000537
      dx2y2   :     0.000684
      dxy     :     0.000810
 11 H s       :     0.804148  s :     0.804148
      pz      :     0.011952  p :     0.034171
      px      :     0.013824
      py      :     0.008394
      dz2     :     0.000215  d :     0.002245
      dxz     :     0.000038
      dyz     :     0.000559
      dx2y2   :     0.000487
      dxy     :     0.000945


                     *******************************
                     * LOEWDIN POPULATION ANALYSIS *
                     *******************************

----------------------
LOEWDIN ATOMIC CHARGES
----------------------
   0 C :    0.137531
   1 C :   -0.094718
   2 S :    0.656194
   3 O :   -0.293679
   4 C :    0.048325
   5 O :   -0.293679
   6 H :   -0.019568
   7 H :   -0.028586
   8 H :   -0.028586
   9 H :   -0.022405
  10 H :   -0.018064
  11 H :   -0.042766

-------------------------------
LOEWDIN REDUCED ORBITAL CHARGES
-------------------------------
  0 C s       :     2.732286  s :     2.732286
      pz      :     0.769766  p :     2.806951
      px      :     1.005456
      py      :     1.031729
      dz2     :     0.019801  d :     0.294445
      dxz     :     0.016035
      dyz     :     0.039936
      dx2y2   :     0.132603
      dxy     :     0.086070
      f0      :     0.001186  f :     0.028787
      f+1     :     0.002529
      f-1     :     0.002837
      f+2     :     0.000890
      f-2     :     0.005029
      f+3     :     0.007562
      f-3     :     0.008756
  1 C s       :     2.772600  s :     2.772600
      pz      :     0.934165  p :     2.937014
      px      :     0.946871
      py      :     1.055977
      dz2     :     0.028405  d :     0.352066
      dxz     :     0.026810
      dyz     :     0.027395
      dx2y2   :     0.177843
      dxy     :     0.091613
      f0      :     0.001697  f :     0.033038
      f+1     :     0.003702
      f-1     :     0.003331
      f+2     :     0.001359
      f-2     :     0.003766
      f+3     :     0.008330
      f-3     :     0.010852
  2 S s       :     4.890031  s :     4.890031
      pz      :     2.878856  p :     8.667650
      px      :     2.896201
      py      :     2.892593
      dz2     :     0.441040  d :     1.511019
      dxz     :     0.299525
      dyz     :     0.315008
      dx2y2   :     0.332577
      dxy     :     0.122869
      f0      :     0.070101  f :     0.275106
      f+1     :     0.048048
      f-1     :     0.044384
      f+2     :     0.048073
      f-2     :     0.036578
      f+3     :     0.013403
      f-3     :     0.014520
  3 O s       :     3.534354  s :     3.534354
      pz      :     1.468538  p :     4.692586
      px      :     1.620583
      py      :     1.603464
      dz2     :     0.021257  d :     0.063167
      dxz     :     0.014848
      dyz     :     0.018987
      dx2y2   :     0.003990
      dxy     :     0.004085
      f0      :     0.000723  f :     0.003572
      f+1     :     0.000746
      f-1     :     0.001010
      f+2     :     0.000446
      f-2     :     0.000506
      f+3     :     0.000057
      f-3     :     0.000084
  4 C s       :     2.709804  s :     2.709804
      pz      :     1.021262  p :     2.959273
      px      :     1.018133
      py      :     0.919878
      dz2     :     0.061215  d :     0.260206
      dxz     :     0.030172
      dyz     :     0.051017
      dx2y2   :     0.084033
      dxy     :     0.033769
      f0      :     0.000723  f :     0.022392
      f+1     :     0.004516
      f-1     :     0.004941
      f+2     :     0.001329
      f-2     :     0.002829
      f+3     :     0.004496
      f-3     :     0.003557
  5 O s       :     3.534354  s :     3.534354
      pz      :     1.468538  p :     4.692586
      px      :     1.620583
      py      :     1.603464
      dz2     :     0.021257  d :     0.063167
      dxz     :     0.014848
      dyz     :     0.018987
      dx2y2   :     0.003990
      dxy     :     0.004085
      f0      :     0.000723  f :     0.003572
      f+1     :     0.000746
      f-1     :     0.001010
      f+2     :     0.000446
      f-2     :     0.000506
      f+3     :     0.000057
      f-3     :     0.000084
  6 H s       :     0.832092  s :     0.832092
      pz      :     0.039304  p :     0.158788
      px      :     0.080941
      py      :     0.038543
      dz2     :     0.002592  d :     0.028688
      dxz     :     0.009648
      dyz     :     0.000034
      dx2y2   :     0.007330
      dxy     :     0.009084
  7 H s       :     0.841758  s :     0.841758
      pz      :     0.066797  p :     0.158419
      px      :     0.044210
      py      :     0.047413
      dz2     :     0.008761  d :     0.028409
      dxz     :     0.006471
      dyz     :     0.007339
      dx2y2   :     0.003374
      dxy     :     0.002463
  8 H s       :     0.841758  s :     0.841758
      pz      :     0.066797  p :     0.158419
      px      :     0.044210
      py      :     0.047413
      dz2     :     0.008761  d :     0.028409
      dxz     :     0.006471
      dyz     :     0.007339
      dx2y2   :     0.003374
      dxy     :     0.002463
  9 H s       :     0.843066  s :     0.843066
      pz      :     0.036646  p :     0.152951
      px      :     0.081001
      py      :     0.035305
      dz2     :     0.002440  d :     0.026387
      dxz     :     0.007008
      dyz     :     0.000011
      dx2y2   :     0.007786
      dxy     :     0.009142
 10 H s       :     0.839510  s :     0.839510
      pz      :     0.035055  p :     0.152117
      px      :     0.045063
      py      :     0.072000
      dz2     :     0.002499  d :     0.026437
      dxz     :     0.000961
      dyz     :     0.006068
      dx2y2   :     0.008615
      dxy     :     0.008294
 11 H s       :     0.847547  s :     0.847547
      pz      :     0.047108  p :     0.166833
      px      :     0.045713
      py      :     0.074012
      dz2     :     0.002573  d :     0.028386
      dxz     :     0.001161
      dyz     :     0.007780
      dx2y2   :     0.007828
      dxy     :     0.009044


                      *****************************
                      * MAYER POPULATION ANALYSIS *
                      *****************************

  NA   - Mulliken gross atomic population
  ZA   - Total nuclear charge
  QA   - Mulliken gross atomic charge
  VA   - Mayer's total valence
  BVA  - Mayer's bonded valence
  FA   - Mayer's free valence

  ATOM       NA         ZA         QA         VA         BVA        FA
  0 C      6.2378     6.0000    -0.2378     3.8511     3.8511     0.0000
  1 C      6.1976     6.0000    -0.1976     3.7325     3.7325    -0.0000
  2 S     15.0007    16.0000     0.9993     5.5187     5.5187    -0.0000
  3 O      8.5717     8.0000    -0.5717     1.9228     1.9228    -0.0000
  4 C      6.2910     6.0000    -0.2910     3.8495     3.8495    -0.0000
  5 O      8.5717     8.0000    -0.5717     1.9228     1.9228     0.0000
  6 H      0.8620     1.0000     0.1380     0.9988     0.9988    -0.0000
  7 H      0.8791     1.0000     0.1209     0.9887     0.9887     0.0000
  8 H      0.8791     1.0000     0.1209     0.9887     0.9887     0.0000
  9 H      0.8346     1.0000     0.1654     0.9664     0.9664     0.0000
 10 H      0.8341     1.0000     0.1659     0.9795     0.9795     0.0000
 11 H      0.8406     1.0000     0.1594     0.9838     0.9838    -0.0000

  Mayer bond orders larger than 0.1
B(  0-C ,  1-C ) :   1.8627 B(  0-C ,  9-H ) :   0.9615 B(  0-C , 10-H ) :   0.9570 
B(  1-C ,  2-S ) :   0.8933 B(  1-C , 11-H ) :   0.9514 B(  2-S ,  3-O ) :   1.8201 
B(  2-S ,  4-C ) :   0.9066 B(  2-S ,  5-O ) :   1.8201 B(  4-C ,  6-H ) :   0.9645 
B(  4-C ,  7-H ) :   0.9601 B(  4-C ,  8-H ) :   0.9601 

-------
TIMINGS
-------

Total SCF time: 0 days 0 hours 0 min 9 sec 

Total time                  ....       9.107 sec
Sum of individual times     ....       8.887 sec  ( 97.6%)

Fock matrix formation       ....       8.418 sec  ( 92.4%)
Diagonalization             ....       0.052 sec  (  0.6%)
Density matrix formation    ....       0.009 sec  (  0.1%)
Population analysis         ....       0.048 sec  (  0.5%)
Initial guess               ....       0.202 sec  (  2.2%)
Orbital Transformation      ....       0.000 sec  (  0.0%)
Orbital Orthonormalization  ....       0.000 sec  (  0.0%)
DIIS solution               ....       0.000 sec  (  0.0%)
SOSCF solution              ....       0.068 sec  (  0.7%)


           ************************************************************
           *        Program running with 8 parallel MPI-processes     *
           *              working on a common directory               *
           ************************************************************


------------------------------------------------------------------------------- 
                              ORCA-MATRIX DRIVEN CI                            
------------------------------------------------------------------------------- 


Wavefunction type
-----------------
Correlation treatment                      ...      CCSD     
Single excitations                         ... ON
Orbital optimization                       ... OFF
Calculation of Z vector                    ... OFF
Calculation of Brueckner orbitals          ... OFF
Perturbative triple excitations            ... ON
Calculation of F12 correction              ... OFF
Frozen core treatment                      ... chemical core (20 el)
Reference Wavefunction                     ... RHF
  Internal Orbitals:    10 ...   27 ( 18 MO's/ 36 electrons)
  Virtual  Orbitals:    28 ...  267 (240 MO's              )
Number of AO's                             ...    268
Number of electrons                        ...     56
Number of correlated electrons             ...     36

Algorithmic settings
--------------------
Integral transformation                    ... All integrals via the RI transformation
K(C) Formation                             ... RI-DLPNO
   PNO-Integral Storage                    ... ON DISK
   PNO occupation number cut-off           ... 1.000e-07
   Singles PNO occupation number cut-off   ... 3.000e-09
   PNO Mulliken prescreening cut-off       ... 1.000e-03
   Domain cut-off (Mulliken population)    ... 1.000e-03
   PNO Normalization                       ...    1
Maximum number of iterations               ...        50
Convergence tolerance (max. residuum)      ... 1.000e-05
Level shift for amplitude update           ... 2.000e-01
Maximum number of DIIS vectors             ...         7
DIIS turned on at iteration                ...         0
Damping before turning on DIIS             ...     0.500
Damping after turning on DIIS              ...     0.000
Pair specific amplitude update             ... OFF
Natural orbital iterations                 ... OFF
Perturbative natural orbital generation    ... OFF
Printlevel                                 ... 2

Singles Fock matrix elements calculated using PNOs.

Memory handling:
----------------
Maximum memory for working arrays          ...   8000 MB
Data storage in matrix containers          ... UNCOMPRESSED
Data type for integral storage             ... DOUBLE
In-Core Storage of quantities:
   Amplitudes+Sigma Vector      ... NO
   J+K operators                ... NO
   DIIS vectors                 ... NO
   3-external integrals         ... NO
   4-external integrals         ... NO

Localization treatment:
-----------------------
Localization option                        ...    6
Localization threshhold                    ... -1.0e+00
Using relative localization threshhold     ... 1.0e-08
Neglect threshold for strong pairs         ... 1.000e-05 Eh
Prescreening threshold for very weak pairs ... 1.000e-07 Eh

Initializing the integral package          ... done
Localizing the valence orbitals
------------------------------------------------------------------------------
                           ORCA ORBITAL LOCALIZATION
------------------------------------------------------------------------------

Input orbitals are from                  ... Me_vinyl_sulfone_s_trans.proc0.gbw
Output orbitals are to                   ... Me_vinyl_sulfone_s_trans.proc0.loc
Max. number of iterations                ... 128
Localizations seeded randomly            ... off
Convergence tolerance                    ... 1.000e-06
Using relative localization threshhold   ... 1.000e-08
Treshold for strong local MOs            ... 9.500e-01
Treshold for bond MOs                    ... 8.500e-01
Operator                                 ... 0
Orbital range for localization           ... 10 to 27
Localization criterion                   ... FOSTER-BOYS (AUGMENTED HESSIAN)
Doing the dipole integrals     ... o.k.
Initial value of the localization sum :   174.742439
ITERATION   0 : L=  214.9660748722 DL=  4.02e+01 (AVERGE_DL)=    0.5127373384 
ITERATION   1 : L=  217.6363440706 DL=  2.67e+00 (AVERGE_DL)=    0.1321088182 
ITERATION   2 : L=  217.7373475239 DL=  1.01e-01 (AVERGE_DL)=    0.0256934484 
ITERATION   3 : L=  217.7750665999 DL=  3.77e-02 (AVERGE_DL)=    0.0157012709 
ITERATION   4 : L=  217.8066861899 DL=  3.16e-02 (AVERGE_DL)=    0.0143758126 
ITERATION   5 : L=  217.8344484377 DL=  2.78e-02 (AVERGE_DL)=    0.0134704343 
ITERATION   6 : L=  217.8563579754 DL=  2.19e-02 (AVERGE_DL)=    0.0119666032 
ITERATION   7 : L=  217.8710047096 DL=  1.46e-02 (AVERGE_DL)=    0.0097841857 
ITERATION   8 : L=  217.8796779154 DL=  8.67e-03 (AVERGE_DL)=    0.0075291181 
ITERATION   9 : L=  217.8844695375 DL=  4.79e-03 (AVERGE_DL)=    0.0055962301 
ITERATION  10 : L=  217.8870241319 DL=  2.55e-03 (AVERGE_DL)=    0.0040861590 
ITERATION  11 : L=  217.8883607611 DL=  1.34e-03 (AVERGE_DL)=    0.0029556959 
ITERATION  12 : L=  217.8890518379 DL=  6.91e-04 (AVERGE_DL)=    0.0021252863 
ITERATION  13 : L=  217.8894055922 DL=  3.54e-04 (AVERGE_DL)=    0.0015205655 
ITERATION  14 : L=  217.8895848425 DL=  1.79e-04 (AVERGE_DL)=    0.0010823913 
ITERATION  15 : L=  217.8896746684 DL=  8.98e-05 (AVERGE_DL)=    0.0007662226 
ITERATION  16 : L=  217.8897191365 DL=  4.45e-05 (AVERGE_DL)=    0.0005391118 
ITERATION  17 : L=  217.8897408630 DL=  2.17e-05 (AVERGE_DL)=    0.0003768331 
ITERATION  18 : L=  217.8897513355 DL=  1.05e-05 (AVERGE_DL)=    0.0002616249 
ITERATION  19 : L=  217.8897563093 DL=  4.97e-06 (AVERGE_DL)=    0.0001803019 
ITERATION  20 : L=  217.8897586374 DL=  2.33e-06 (AVERGE_DL)=    0.0001233540 
ITERATION  21 : L=  217.8897597114 DL=  1.07e-06 (AVERGE_DL)=    0.0000837812 
ITERATION  22 : L=  217.8897602003 DL=  4.89e-07 (AVERGE_DL)=    0.0000565319 
LOCALIZATION SUM CONVERGED

------------------------------------------------------
AUGMENTED HESSIAN OPTIMIZATION OF FOSTER-BOYS ORBITALS
------------------------------------------------------

Spin operator:           0
Orbital window:          10 to 27
Number of iterations:    128
Gradient tolerance:      1.000e-06
Number of pairs:         153
Davidson threshold:      2000
Diagonalization method:  LAPACK
Iter:    0   L: 217.8897602003   Grad. norm: 1.426035e-03
   *** Likely close to a maximum now. ***
       Augmented Hessian eigenvalues:  7.95e-07 -2.85e-01 -2.85e-01 -5.95e-01 ... 
Iter:    1   L: 217.8897605976   Grad. norm: 7.685833e-07
LOCALIZATION HAS CONVERGED.

Eigenvalues of the Hessian:
  0 -2.850e-01
  1 -2.854e-01
  2 -5.952e-01
  3 -5.958e-01
  4 -6.365e-01
  5 -6.365e-01
  6 -4.003e+00
  7 -4.004e+00
  8 -4.050e+00
  9 -4.051e+00
    ...


------------------------------------------------------------------------------- 
                    LOCALIZED MOLECULAR ORBITAL COMPOSITIONS                   
------------------------------------------------------------------------------- 

The Mulliken populations for each LMO on each atom are computed
The LMO`s will be ordered according to atom index and type
  (A) Strongly localized MO`s have populations of >=0.950 on one atom
  (B) Two center bond orbitals have populations of >=0.850 on two atoms
  (C) Other MO`s are considered to be `delocalized`

FOUND  -   0 strongly local MO`s
       -  18 two center bond MO`s
       -   0 significantly delocalized MO`s

Bond-like localized orbitals:
MO  27:  11H  -   0.427085  and   1C  -   0.579108
MO  26:  10H  -   0.426044  and   0C  -   0.591579
MO  25:   9H  -   0.430387  and   0C  -   0.595802
MO  24:   8H  -   0.451658  and   4C  -   0.558343
MO  23:   7H  -   0.451658  and   4C  -   0.558343
MO  22:   6H  -   0.437900  and   4C  -   0.568131
MO  21:   5O  -   0.907047  and   2S  -   0.094421
MO  20:   5O  -   0.914031  and   2S  -   0.085824
MO  19:   5O  -   0.909334  and   2S  -   0.090509
MO  18:   5O  -   0.569521  and   2S  -   0.444886
MO  17:   4C  -   0.480521  and   2S  -   0.546677
MO  16:   3O  -   0.569521  and   2S  -   0.444886
MO  15:   3O  -   0.907047  and   2S  -   0.094421
MO  14:   3O  -   0.914031  and   2S  -   0.085824
MO  13:   3O  -   0.909334  and   2S  -   0.090509
MO  12:   2S  -   0.507405  and   1C  -   0.521957
MO  11:   1C  -   0.533529  and   0C  -   0.471055
MO  10:   1C  -   0.533529  and   0C  -   0.471055
Localized MO's were stored in: Me_vinyl_sulfone_s_trans.proc0.loc

Localizing the core orbitals
------------------------------------------------------------------------------
                           ORCA ORBITAL LOCALIZATION
------------------------------------------------------------------------------

Input orbitals are from                  ... Me_vinyl_sulfone_s_trans.proc0.loc
Output orbitals are to                   ... Me_vinyl_sulfone_s_trans.proc0.loc
Max. number of iterations                ... 128
Localizations seeded randomly            ... off
Convergence tolerance                    ... 1.000e-06
Using relative localization threshhold   ... 1.000e-08
Treshold for strong local MOs            ... 9.500e-01
Treshold for bond MOs                    ... 8.500e-01
Operator                                 ... 0
Orbital range for localization           ... 0 to 9
Localization criterion                   ... FOSTER-BOYS (AUGMENTED HESSIAN)
Doing the dipole integrals     ... o.k.
Initial value of the localization sum :    62.704718
ITERATION   0 : L=   62.8570239825 DL=  1.52e-01 (AVERGE_DL)=    0.0581771787 
ITERATION   1 : L=   62.9099049374 DL=  5.29e-02 (AVERGE_DL)=    0.0342802032 
ITERATION   2 : L=   62.9111108071 DL=  1.21e-03 (AVERGE_DL)=    0.0051765921 
ITERATION   3 : L=   62.9111547448 DL=  4.39e-05 (AVERGE_DL)=    0.0009881256 
ITERATION   4 : L=   62.9111570239 DL=  2.28e-06 (AVERGE_DL)=    0.0002250467 
ITERATION   5 : L=   62.9111572537 DL=  2.30e-07 (AVERGE_DL)=    0.0000714617 
LOCALIZATION SUM CONVERGED

------------------------------------------------------
AUGMENTED HESSIAN OPTIMIZATION OF FOSTER-BOYS ORBITALS
------------------------------------------------------

Spin operator:           0
Orbital window:          0 to 9
Number of iterations:    128
Gradient tolerance:      1.000e-06
Number of pairs:         45
Davidson threshold:      2000
Diagonalization method:  LAPACK
Iter:    0   L: 62.9111572537   Grad. norm: 2.026484e-04
   *** Detected a saddle point. ***
       Augmented Hessian eigenvalues:  7.55e-04  6.00e-05 -1.12e-04 -4.79e-04 ... 
Iter:    1   L: 62.9111727979   Grad. norm: 2.458477e-04
Iter:    2   L: 62.9112107228   Grad. norm: 2.997770e-04
Iter:    3   L: 62.9112581561   Grad. norm: 2.974015e-04
Iter:    4   L: 62.9112999976   Grad. norm: 2.170387e-04
Iter:    5   L: 62.9113230167   Grad. norm: 6.319993e-05
Iter:    6   L: 62.9113246615   Grad. norm: 1.310483e-06
   *** Likely close to a maximum now. ***
       Augmented Hessian eigenvalues:  1.09e-09 -2.92e-04 -5.94e-04 -8.98e-04 ... 
Iter:    7   L: 62.9113246621   Grad. norm: 3.648648e-10
LOCALIZATION HAS CONVERGED.

Eigenvalues of the Hessian:
  0 -2.924e-04
  1 -5.944e-04
  2 -8.982e-04
  3 -1.376e-01
  4 -1.378e-01
  5 -1.379e-01
  6 -4.130e-01
  7 -5.506e-01
  8 -5.511e-01
  9 -5.517e-01
    ...


------------------------------------------------------------------------------- 
                    LOCALIZED MOLECULAR ORBITAL COMPOSITIONS                   
------------------------------------------------------------------------------- 

The Mulliken populations for each LMO on each atom are computed
The LMO`s will be ordered according to atom index and type
  (A) Strongly localized MO`s have populations of >=0.950 on one atom
  (B) Two center bond orbitals have populations of >=0.850 on two atoms
  (C) Other MO`s are considered to be `delocalized`

FOUND  -  10 strongly local MO`s
       -   0 two center bond MO`s
       -   0 significantly delocalized MO`s

Rather strongly localized orbitals:
MO   9:   5O  -   0.999841
MO   8:   4C  -   1.000873
MO   7:   3O  -   0.999841
MO   6:   2S  -   0.999613
MO   5:   2S  -   0.999684
MO   4:   2S  -   1.000075
MO   3:   2S  -   1.000000
MO   2:   2S  -   0.999613
MO   1:   1C  -   1.000632
MO   0:   0C  -   1.000691
Localized MO's were stored in: Me_vinyl_sulfone_s_trans.proc0.loc

Warning: internal orbitals are localized - no re-canonicalization of internal orbitals

--------------------------
CLOSED-SHELL FOCK OPERATOR
--------------------------

RI-JK section for the Fock operator:
  RHF full Fock operator         ... done
  RHF frozen core Fock operator  ... done
Time needed for Fock operator              ...            1.350 sec
Reference energy                           ...   -664.380557497

--------------
DLPNO SETTINGS (2015 fully linear scaling implementation)
--------------

TCutMKN:           1.000e-03
TCutPAO:           1.000e-03
TCutPNO:           1.000e-07
TCutPNOSingles:    3.000e-09
TCutEN:            9.700e-01
TCutPAOExt:        1.000e-01
TCutPairs:         1.000e-05
TCutPre:           1.000e-07
TCutOSV:           1.000e-06
TCutDOij:          1.000e-05
TCutDO:            5.000e-03
TCutC:             1.000e-04
TCutCPAO:          1.000e-03
TCutCMO:           1.000e-03
TScaleDOMP2PreScr: 2.000e+00
TScaleMKNMP2PreScr:1.000e+01
TScalePNOMP2PreScr:1.000e+00
PAO overlap thresh 1.000e-08
Using PNOs for Singles Fock computation
Use new domains
Use fully linear algorithm
TCutTNO:           1.000e-09
TCutMP2Pairs:      1.000e-06
TCutDOStrong:      2.000e-03
TCutMKNStrong:     1.000e-02
TCutMKNWeak:       1.000e-01
TCutDOWeak:        4.000e-03
NTCutTNO:          1

--------------------------
Calculating differential overlap integrals ... ok
--------------------------
ELECTRON PAIR PRESCREENING
--------------------------

Dipole-based pair screening          .... used

   TCutDOij = 1.000000e-05
   TCutPre  = 1.000000e-07
   .... Finished loop over pairs
Total time spent in the prescreening                  ...     0.000 sec
sum of pair energies estimated for screened out pairs ...       0.000000000000 Eh
Thresholds for map construction and integral transformation for crude MP2:
   TCutMKN                    ...     1.0e-02
   TCutDO                     ...     1.0e-02
   TCutPairs                  ...     1.0e-05
   TCutPNO_CrudeMP2           ...     1.0e-07
   TCutPNOSingles_CrudeMP2    ...     3.0e-09
--------------------------------
LOCAL RI TRANSFORMATION (IAVPAO)
--------------------------------

Orbital window:      10 to 27
Number of PAOs:     268
Basis functions:    268 (98 shells)
Aux. functions:     707 (207 shells)

Processing maps (0.0 sec)
Average map sizes:
   Aux shells -> MOs              18.0
   Aux shells -> PAOs            268.0
   MOs        -> AO shells        96.7
   PAOs       -> AO shells        98.0

Calculating integrals (0.6 sec, 26.029 MB)
Sorting integrals (0.0 sec, 26.021 MB)
Total time for the integral transformation: 0.7 sec
--------------------------------
INITIAL GUESS AND PNO GENERATION
--------------------------------

PNO truncation parameters                   .... 
    PAOOverlapThresh   =        1.000e-08

    TCutPairs          =        1.000e-05
    TCutPNO            =        1.000e-07
    TCutPNOSingles     =        3.000e-09
    TCutMP2Pairs       =        1.000e-06
    TCutMKN            =        1.000e-02
    TCutDO             =        1.000e-02

Pair selection                          .... not used
Type of local MP2 treatment                 .... semi-local MP2
Strategy for PNO selection                  .... occupation number selection
Pair density normalization                  .... MP2 norm
Spin component scaling                      .... not used

   .... Finished loop over pairs
Making pair pair interaction lists          ... done

                       ===========================
                        171 OF  171 PAIRS ARE KEPT CCSD PAIRS
                          0 OF  171 PAIRS ARE KEPT MP2 PAIRS FOR (T)
                          0 OF  171 PAIRS ARE SKIPPED
                       ===========================

Total time spent in the initial guess                 ...     0.931 sec
SL-MP2 correlation energy (all non-screened pairs)    ...      -1.117573320312 Eh

Initial PNO correlation energy                        ...      -1.116598486522 Eh
sum of pair energies prescreened and skipped MP2 pairs...       0.000000000000 Eh
sum of pair energies of crude MP2 skipped pairs only  ...       0.000000000000 Eh
sum of MP2 pair energies for pairs that were not kept ...       0.000000000000 Eh
sum of PNO error estimates for the kept pairs         ...      -0.000974833790 Eh
                                                          --------------------
sum of all corrections                                         -0.000974833790
Initial total correlation energy                               -1.117573320312
Thresholds for map construction and integral transformation for fine MP2 and CCSD(T) calculation:
   TCutMKN   ...     1.0e-03
   TCutDO    ...     5.0e-03
   TCutPairs ...     1.0e-05
   TCutCMO   ...     1.0e-03
   TCutCPAO  ...     1.0e-03

Thresholds for map construction and integral transformation for strong Triples:
   TCutMKN   ...     1.0e-02
   TCutDO    ...     1.0e-02
   TCutCMO   ...     1.0e-03
   TCutCPAO  ...     1.0e-03

Thresholds for map construction and integral transformation for weak Triples:
   TCutMKN   ...     1.0e-01
   TCutDO    ...     2.0e-02
   TCutCMO   ...     1.0e-03
   TCutCPAO  ...     1.0e-03

--------------------------------
LOCAL RI TRANSFORMATION (IAVPAO)
--------------------------------

Orbital window:      10 to 27
Number of PAOs:     268
Basis functions:    268 (98 shells)
Aux. functions:     707 (207 shells)

Processing maps (0.0 sec)
Average map sizes:
   Aux shells -> MOs              18.0
   Aux shells -> PAOs            268.0
   MOs        -> AO shells        96.7
   PAOs       -> AO shells        98.0

Calculating integrals (0.6 sec, 26.029 MB)
Sorting integrals (0.0 sec, 26.021 MB)
Total time for the integral transformation: 0.6 sec
--------------------------------
INITIAL GUESS AND PNO GENERATION
--------------------------------

PNO truncation parameters                   .... 
    ScaleTCutPNO       =        1.000e-02
    PAOOverlapThresh   =        1.000e-08

    TCutPairs          =        1.000e-05
    TCutPNO            =        1.000e-07
    TCutPNOSingles     =        3.000e-09
    TCutMP2Pairs       =        1.000e-06
    TCutMKN            =        1.000e-03
    TCutDO             =        5.000e-03

Pair selection                          .... not used
Type of local MP2 treatment                 .... full local PMP2
Strategy for PNO selection                  .... occupation number selection
Pair density normalization                  .... MP2 norm
Spin component scaling                      .... not used

PASS-1: Formation of initial guess LMP2 amplitudes
Initial amplitudes guess done. Entering LMP2 iteration loop:
   Max. no of iterations          ...  50
   Energy convergence tolerance   ...    1.0e-07
   Residual convergence tolerance ...    5.0e-07
   Fock matrix cutoff             ...    1.0e-05 Eh
   DIIS convergence acceleration parameters:
        Max # vectors in DIIS     ... 7
        Start iteration of DIIS   ... 0
        Levelshift                ... 2.000e-01
        Damping factor 1          ... 5.000e-01
        Damping factor 2          ... 1.000e+00
   L-MP2 PNO cut-off              ...   1.0e-09
   L-MP2 PNO cut-off (core)       ...   1.0e-11
                           *** Turning on DIIS ***
LMP2-Iter=   0:  ELMP2= -1.147912604398  DE=   3.0e-02 RMAX=   1.6e-02
LMP2-Iter=   1:  ELMP2= -1.162722309802  DE=   1.5e-02 RMAX=   6.7e-03
LMP2-Iter=   2:  ELMP2= -1.165640365492  DE=   2.9e-03 RMAX=   2.6e-03
LMP2-Iter=   3:  ELMP2= -1.166050275664  DE=   4.1e-04 RMAX=   7.9e-04
LMP2-Iter=   4:  ELMP2= -1.166069372119  DE=   1.9e-05 RMAX=   2.3e-04
LMP2-Iter=   5:  ELMP2= -1.166061349931  DE=   8.0e-06 RMAX=   5.6e-05
LMP2-Iter=   6:  ELMP2= -1.166060388330  DE=   9.6e-07 RMAX=   1.2e-05
LMP2-Iter=   7:  ELMP2= -1.166060320620  DE=   6.8e-08 RMAX=   2.1e-06
LMP2-Iter=   8:  ELMP2= -1.166060368477  DE=   4.8e-08 RMAX=   2.4e-07
LMP2-Iter=   9:  ELMP2= -1.166060372258  DE=   3.8e-09 RMAX=   3.6e-08 => CONVERGED
PASS-2: Formation of Pair natural orbitals
   .... Finished loop over pairs

 PNO Occupation Number Statistics: 
  | Av. % of trace(Dij) retained        ...  99.621357866117
  | sigma^2 in % of trace(Dij) retained ...   2.65e-01
  | Av. % of trace(Di) retained         ...  99.999773404176
  | sigma^2 in % of trace(Di) retained  ...   8.98e-09
 Distributions of % trace(Dij) recovered:
  |       >= 99.9  ...    67 ( 39.2 % of all pairs)
  |   [90.0, 99.0) ...    16 (  9.4 % of all pairs)
  |   [99.0, 99.9) ...    88 ( 51.5 % of all pairs)
 Distributions of % trace(Di) recovered :
  |       >= 99.9  ...    18 (100.0 % of all I-pairs )

Making pair pair interaction lists          ... done

                       ===========================
                        171 OF  171 PAIRS ARE KEPT
                       ===========================

Total time spent in the initial guess                 ...     8.556 sec
L-MP2 correlation energy (all non-screened pairs)     ...      -1.166060372258 Eh
L-MP2 PNO error correction                            ...      -0.000017036807 Eh
                                                          --------------------
Initial total L-MP2 energy (non-screened pairs)       ...      -1.166077409065 Eh

Initial PNO correlation energy                        ...      -1.165134811447 Eh
sum of pair energies estimated for screened out pairs ...       0.000000000000 Eh
sum of MP2 pair energies for pairs that were not kept ...       0.000000000000 Eh
sum of PNO error estimates for the kept pairs         ...      -0.000942597618 Eh
                                                          --------------------
sum of all corrections                                         -0.000942597618
Initial total correlation energy                               -1.166077409065
Thresholds for map construction and integral transformation for fine MP2 and CCSD(T) calculation:
   TCutMKN   ...     1.0e-03
   TCutDO    ...     5.0e-03
   TCutPairs ...     1.0e-05
   TCutCMO   ...     1.0e-03
   TCutCPAO  ...     1.0e-03

Time for aux screen maps:            0.002
Time for maps after fine MP2:            0.008
-----------------------------
LOCAL RI TRANSFORMATION (IJV)
-----------------------------

Orbital window:      10 to 27
Basis functions:    268 (98 shells)
Aux. functions:     707 (207 shells)

Processing maps (0.0 sec)
Average map sizes:
   Aux shells -> MOs(i)           18.0
   Aux shells -> MOs(j)           18.0
   MOs        -> AO shells        96.7

Calculating integrals (0.5 sec, 1.756 MB)
Sorting integrals (0.0 sec, 1.748 MB)
Total time for the integral transformation: 0.6 sec
--------------------------------
LOCAL RI TRANSFORMATION (VABPAO)
--------------------------------

Number of PAOs:     268
Basis functions:    268 (98 shells)
Aux. functions:     707 (207 shells)

Processing maps (0.0 sec)
Average map sizes:
   Aux shells -> PAOs            268.0
   PAOs       -> AO shells        98.0

Calculating integrals (1.1 sec, 727.724 MB)
Finished


-------------------------------------
Pair Pair Term precalculation with     
RI-(ij|mn) and (im|jn) transformation  
ON THE FLY                             
-------------------------------------

   IBatch   1 (of   1)              ... done (   55.356 sec)
Total EXT                           ...          55.356 sec

---------------------
RI-PNO TRANSFORMATION
---------------------

Total Number of PNOs                   ...  7294
Average number of PNOs per pair        ...    42
Maximal number of PNOs per pair        ...    74
   #pairs with  1 -  5 PNOs   :    0
   #pairs with  6 - 10 PNOs   :    2
   #pairs with 11 - 15 PNOs   :    3
   #pairs with 16 - 20 PNOs   :    8
   #pairs with 21 - 25 PNOs   :    7
   #pairs with 26 - 30 PNOs   :   18
   #pairs with 31 - 35 PNOs   :   21
   #pairs with 36 - 40 PNOs   :   12
   #pairs with 41 - 45 PNOs   :   25
   #pairs with 46 - 50 PNOs   :   22
   #pairs with 51 - 55 PNOs   :   22
   #pairs with 56 - 60 PNOs   :    7
   #pairs with 61 - 65 PNOs   :   20
   #pairs with 66 - 70 PNOs   :    3
   #pairs with 71 - 75 PNOs   :    1

Generation of (ij|ab)[P] integrals            ... on
Generation of (ia|bc)[P],(ja|bc)[P] integrals ... on
Storage of 3 and 4 external integrals         ... on
Generation of ALL (ka|bc)[P] integrals        ... on
Keep RI integrals in memory                   ... off

Ibatch:  1 (of  1)
Starting 2-4 index PNO integral generation ... done

Timings:
Total PNO integral transformation time     ...         15.403 sec
Size of the 3-external file                ...       137 MB
Size of the 4-external file                ...       939 MB
Size of the IKJL file                      ...         0 MB
Size of the all 3-external file            ...      1235 MB
Size of the 1-external file                ...         3 MB

Making pair/pair overlap matrices          ... done (    1.388 sec)
Size of the pair overlap file              ... 287 MB
Redoing the guess amplitudes               ... done (    0.014 sec)

-------------------------
FINAL STARTUP INFORMATION
-------------------------

E(0)                                       ...   -664.380557497
E(L-MP2)                                   ...     -1.166077409
E(L-MP2) including corrections             ...     -1.166077409
Initial E(tot)                             ...   -665.546634906
<T|T>                                      ...      0.308466770
Number of pairs included                   ... 171
Total number of pairs                      ... 171

------------------------------------------------
                  RHF COUPLED CLUSTER ITERATIONS
------------------------------------------------

Number of PNO amplitudes to be optimized   ...       345888
Number of non-PNO amplitudes               ...      9849600
Untruncated number of regular amplitudes   ...      9849600

Iter       E(tot)           E(Corr)          Delta-E          Residual     Time
  0   -665.498238078     -1.116737983      0.049339426      0.021165122   10.77
                           *** Turning on DIIS ***
  1   -665.532487462     -1.150987368     -0.034249384      0.011836049    9.94
  2   -665.562897776     -1.181397682     -0.030410314      0.007295947    8.83
  3   -665.570216972     -1.188716878     -0.007319196      0.004105246   11.52
  4   -665.572800179     -1.191300085     -0.002583207      0.002241682   14.14
  5   -665.573793859     -1.192293765     -0.000993680      0.000939017   12.90
  6   -665.574040063     -1.192539968     -0.000246203      0.000288606   10.69
  7   -665.574096413     -1.192596318     -0.000056350      0.000149019    8.08
  8   -665.574101366     -1.192601272     -0.000004953      0.000077832    8.08
  9   -665.574098750     -1.192598656      0.000002616      0.000036763    7.97
 10   -665.574099891     -1.192599797     -0.000001141      0.000015249    7.68
 11   -665.574100062     -1.192599968     -0.000000171      0.000005410    8.35
               --- The Coupled-Cluster iterations have converged ---

----------------------
COUPLED CLUSTER ENERGY
----------------------

E(0)                                       ...   -664.380557497
E(CORR)(strong-pairs)                      ...     -1.192599968
E(CORR)(weak-pairs)                        ...     -0.000942598
E(CORR)(corrected)                         ...     -1.193542565
E(TOT)                                     ...   -665.574100062
Singles Norm <S|S>**1/2                    ...      0.096808045  
T1 diagnostic                              ...      0.016134674  

------------------
LARGEST AMPLITUDES
------------------
  11-> 28  11-> 28       0.062211
  10-> 28  10-> 28       0.062211
  11-> 28  10-> 28       0.055829
  12-> 30  12-> 30       0.048517
  17-> 28  17-> 28       0.036035
  25-> 35  25-> 35       0.035770
  16-> 28  16-> 28       0.033134
  18-> 28  18-> 28       0.033134
  26-> 35  26-> 35       0.032788
  24-> 28  24-> 28       0.027203
  23-> 28  23-> 28       0.027203
  25-> 35  25-> 29       0.026491
  25-> 29  25-> 35       0.026491
  12-> 29  12-> 29       0.026410
  22-> 28  22-> 28       0.025999
  27-> 29  27-> 29       0.025878


-------------------------------------------
DLPNO BASED TRIPLES CORRECTION
-------------------------------------------

Singles multiplier          ...  1.000000
TCutTNO                     ... 1.000e-09
TCutMP2Pairs                ... 1.000e-06
TCutDOStrong                ... 1.000e-02
TCutMKNStrong               ... 1.000e-02
TCutDOWeak                  ... 2.000e-02
TCutMKNWeak                 ... 1.000e-01

Fragment selection                          .... not used
Number of Triples that are to be computed   ...      1122

 . . . . . . . . .
10% done  
20% done  
30% done  
40% done  
50% done  
60% done  
70% done  
80% done  
90% done               (     80.013 sec)
Triples timings:
Total time for T0               ...    85.553 sec
Total time for Iterative (T)    ...     0.000 sec
Total time of overall (T)       ...    85.553 sec

Triples List generation         ...     0.000 sec
TNO generation                  ...     5.528 sec
Pair density generation         ...     0.004 sec
Look up tables                  ...     0.000 sec
Generating 3-index integrals    ...    43.771 sec
  Make 4-ind.int. from 3-ind.int...    13.597 sec
  Projecting amplitudes (D + S) ...     6.210 sec
  Downprojecting integrals      ...     0.002 sec
  Energy contr. (sum over a,b,c)...     4.632 sec
Fitting ET(->0)                 ...     0.000 sec

Everything after 3-index        ...    36.242 sec

Timing details:
 TNO integrals                  ...    56.258 sec
   Reading 3-index integrals    ...     0.122 sec
   Sorting integrals            ...     8.714 sec
       Sorting integrals 1      ...     0.001 sec
       Sorting integrals 2      ...     3.008 sec
       Sorting integrals 3      ...     0.480 sec
       Sorting integrals 4      ...     0.014 sec
       Sorting integrals 5      ...     0.075 sec
       Sorting integrals 6      ...     5.136 sec
   Calculating local VM**-1/2   ...     0.243 sec
   Orthogonal. integrals        ...     0.493 sec
   Multipl. 3-index integrals   ...    46.685 sec
   All concerning IRIab (w/TNO) ...     7.424 sec

 Calculate W0/W1                ...    11.794 sec
 W 3-ext contribution           ...     6.255 sec
 W 3-int contribution           ...     1.737 sec
 Sorting W                      ...     3.631 sec

 V exchange contribution        ...     1.475 sec

 Timings for Triples without generation
     of 3-index integrals       ...    36.240 sec
       0 weak pairs             ...    36.240 sec
       1 weak pair              ...     0.000 sec
       2 weak pairs             ...     0.000 sec
       3 weak pairs             ...     0.000 sec
  Extra time for extrapolation  ...     0.000 sec

Number of Triples   (0, 1, 2, 3 weak pairs; overall):   1122       0       0       0  (  1122)
Number of Atoms     (0, 1, 2, 3 weak pairs; overall):   11.7     0.0     0.0     0.0  (    12)
Number of PAOs      (0, 1, 2, 3 weak pairs; overall):  263.6     0.0     0.0     0.0  (   268)
Number of AuxFcns   (0, 1, 2, 3 weak pairs; overall):  366.5     0.0     0.0     0.0  (   707)
Number of TNOs      (0, 1, 2, 3 weak pairs         ):   97.2     0.0     0.0     0.0
Aver. Number of NTNO, Atoms, PAOs, AuxFcns / Triples:   1122    97.2    11.7   263.6   366.5

Triples Correction (T)                     ...     -0.052665514
Final correlation energy                   ...     -1.246208079
E(CCSD)                                    ...   -665.574100062
E(CCSD(T))                                 ...   -665.626765576


Maximum memory used throughout the entire calculation: 6124.8 MB


------------------------------------------------------------------------------- 
                                     TIMINGS                                   
------------------------------------------------------------------------------- 


Total execution time                   ...      297.048 sec

Localization of occupied MO's          ...        0.534 sec (  0.2%)
Fock Matrix Formation                  ...        1.350 sec (  0.5%)
Global overlap, Fock, MKN matrices     ...        0.189 sec (  0.1%)
Differential overlap integrals         ...        0.101 sec (  0.0%)
Organizing maps                        ...        0.025 sec (  0.0%)
RI 3-index integral generations        ...        3.011 sec (  1.0%)
RI-PNO integral transformation         ...       77.042 sec ( 25.9%)
Initial Guess                          ...        9.532 sec (  3.2%)
DIIS Solver                            ...        1.350 sec (  0.5%)
State Vector Update                    ...        0.032 sec (  0.0%)
Sigma-vector construction              ...      118.611 sec ( 39.9%)
  <D|H|D>(0-ext)                       ...        2.306 sec (  1.9% of sigma)
  <D|H|D>(2-ext Fock)                  ...        0.013 sec (  0.0% of sigma)
  <D|H|D>(2-ext)                       ...        8.669 sec (  7.3% of sigma)
  <D|H|D>(4-ext)                       ...       15.258 sec ( 12.9% of sigma)
  <D|H|D>(4-ext-corr)                  ...       71.831 sec ( 60.6% of sigma)
  CCSD doubles correction              ...        0.163 sec (  0.1% of sigma)
  <S|H|S>                              ...        0.717 sec (  0.6% of sigma)
  <S|H|D>(1-ext)                       ...        0.279 sec (  0.2% of sigma)
  <D|H|S>(1-ext)                       ...        0.010 sec (  0.0% of sigma)
  <S|H|D>(3-ext)                       ...        0.427 sec (  0.4% of sigma)
  Fock-dressing                        ...       12.600 sec ( 10.6% of sigma)
  Singles amplitudes                   ...        0.379 sec (  0.3% of sigma)
  (ik|jl)-dressing                     ...        1.935 sec (  1.6% of sigma)
  (ij|ab),(ia|jb)-dressing             ...        2.564 sec (  2.2% of sigma)
  Pair energies                        ...        0.007 sec (  0.0% of sigma)
Total Time for computing (T)           ...       85.608 sec ( 28.8% of ALL)


-------------------------   --------------------
FINAL SINGLE POINT ENERGY      -665.626765576359
-------------------------   --------------------


                            ***************************************
                            *     ORCA property calculations      *
                            ***************************************

                                    ---------------------
                                    Active property flags
                                    ---------------------
   (+) Dipole Moment


------------------------------------------------------------------------------
                       ORCA ELECTRIC PROPERTIES CALCULATION
------------------------------------------------------------------------------

Dipole Moment Calculation                       ... on
Quadrupole Moment Calculation                   ... off
Polarizability Calculation                      ... off
GBWName                                         ... Me_vinyl_sulfone_s_trans.gbw
Electron density file                           ... Me_vinyl_sulfone_s_trans.scfp.tmp
The origin for moment calculation is the CENTER OF MASS  = (-0.067687, -0.075627  0.000000)

-------------
DIPOLE MOMENT
-------------
                                X             Y             Z
Electronic contribution:     -2.40571      -2.79912      -0.00000
Nuclear contribution   :      3.79039       4.23510      -0.00000
                        -----------------------------------------
Total Dipole Moment    :      1.38468       1.43598      -0.00000
                        -----------------------------------------
Magnitude (a.u.)       :      1.99484
Magnitude (Debye)      :      5.07047



--------------------
Rotational spectrum 
--------------------
 
Rotational constants in cm-1:     0.147359     0.080736     0.078038 
Rotational constants in MHz :  4417.708922  2420.404174  2339.512060 

 Dipole components along the rotational axes: 
x,y,z [a.u.] :    -0.579219    -1.908893    -0.000000 
x,y,z [Debye]:    -1.472258    -4.852021    -0.000000 

 

Timings for individual modules:

Sum of individual times         ...      307.459 sec (=   5.124 min)
GTO integral calculation        ...        0.816 sec (=   0.014 min)   0.3 %
SCF iterations                  ...        9.234 sec (=   0.154 min)   3.0 %
MDCI module                     ...      297.409 sec (=   4.957 min)  96.7 %
                             ****ORCA TERMINATED NORMALLY****
TOTAL RUN TIME: 0 days 0 hours 5 minutes 8 seconds 183 msec
Me_vinyl_sulfone_s_trans.gbw -> /home1/pantazis/klk/xyz_1/Sulphur_compounds/Me_vinyl_sulfone_s_trans.gbw
Me_vinyl_sulfone_s_trans.job -> /home1/pantazis/klk/xyz_1/Sulphur_compounds/Me_vinyl_sulfone_s_trans.job
Me_vinyl_sulfone_s_trans.loc -> /home1/pantazis/klk/xyz_1/Sulphur_compounds/Me_vinyl_sulfone_s_trans.loc
Me_vinyl_sulfone_s_trans.nodes -> /home1/pantazis/klk/xyz_1/Sulphur_compounds/Me_vinyl_sulfone_s_trans.nodes
Me_vinyl_sulfone_s_trans.prop -> /home1/pantazis/klk/xyz_1/Sulphur_compounds/Me_vinyl_sulfone_s_trans.prop
Me_vinyl_sulfone_s_trans_property.txt -> /home1/pantazis/klk/xyz_1/Sulphur_compounds/Me_vinyl_sulfone_s_trans_property.txt
Me_vinyl_sulfone_s_trans.xyz -> /home1/pantazis/klk/xyz_1/Sulphur_compounds/Me_vinyl_sulfone_s_trans.xyz
cp: cannot stat Me_vinyl_sulfone_s_trans.asa.inp: No such file or directory
