! Job execution by suborca V 6.07 on ZEUS !
Job started from zeus1, running /scratch/pantazis/MeEt_sulfone_a__sR1p6s/orca/orca copied from /opt/orca on zeussn124 in /scratch/pantazis/MeEt_sulfone_a__sR1p6s
Job execution start: Thu Jun 27 11:08:20 CEST 2019
Shared library path: /scratch/pantazis/MeEt_sulfone_a__sR1p6s/orca:/opt/openmpi_1.10.2/lib:/opt/intel/mkl/lib/intel64:/opt/intel/lib/intel64:
PBS Job ID is: 157995.icqc
izeussn124
izeussn124
izeussn124
izeussn124
izeussn124
izeussn124
izeussn124
izeussn124

                                 *****************
                                 * O   R   C   A *
                                 *****************

           --- An Ab Initio, DFT and Semiempirical electronic structure package ---

                  #######################################################
                  #                        -***-                        #
                  #          Department of theory and spectroscopy      #
                  #               Directorship: Frank Neese             #
                  #        Max Planck Institute fuer Kohlenforschung    #
                  #                Kaiser Wilhelm Platz 1               #
                  #                 D-45470 Muelheim/Ruhr               #
                  #                      Germany                        #
                  #                                                     #
                  #                  All rights reserved                #
                  #                        -***-                        #
                  #######################################################


                         Program Version 4.1.x  -  STABLE  -
                                (SVN: $Rev: 14094$)
                ($Date: 2019-06-14 15:01:15 +0200 (Fri, 14 Jun 2019) $)

                         (BUILD: $Sun Jun 23 06:18:31 CEST 2019$)


 With contributions from (in alphabetic order):
   Daniel Aravena         : Magnetic Properties
   Michael Atanasov       : Ab Initio Ligand Field Theory
   Alexander A. Auer      : GIAO ZORA
   Ute Becker             : Parallelization
   Giovanni Bistoni       : ED, Open-shell LED
   Martin Brehm           : Molecular dynamics
   Dmytro Bykov           : SCF Hessian
   Vijay G. Chilkuri      : MRCI spin determinant printing
   Dipayan Datta          : RHF DLPNO-CCSD density
   Achintya Kumar Dutta   : EOM-CC, STEOM-CC
   Dmitry Ganyushin       : Spin-Orbit,Spin-Spin,Magnetic field MRCI
   Miquel Garcia          : C-PCM Hessian
   Yang Guo               : DLPNO-NEVPT2, CIM, IAO-localization
   Andreas Hansen         : Spin unrestricted coupled pair/coupled cluster methods
   Benjamin Helmich-Paris : CASSCF linear response (MC-RPA)
   Lee Huntington         : MR-EOM, pCC
   Robert Izsak           : Overlap fitted RIJCOSX, COSX-SCS-MP3, EOM
   Christian Kollmar      : KDIIS, OOCD, Brueckner-CCSD(T), CCSD density
   Simone Kossmann        : Meta GGA functionals, TD-DFT gradient, OOMP2, MP2 Hessian
   Martin Krupicka        : AUTO-CI
   Lucas Lang             : DCDCAS
   Dagmar Lenk            : GEPOL surface, SMD
   Dimitrios Liakos       : Extrapolation schemes; parallel MDCI
   Dimitrios Manganas     : ROCIS; embedding schemes
   Dimitrios Pantazis     : SARC Basis sets
   Taras Petrenko         : DFT Hessian,TD-DFT gradient, ASA, ECA, R-Raman, ABS, FL, XAS/XES, NRVS
   Peter Pinski           : DLPNO-MP2, DLPNO-MP2 Gradient
   Christoph Reimann      : Effective Core Potentials
   Marius Retegan         : Local ZFS, SOC
   Christoph Riplinger    : Optimizer, TS searches, QM/MM, DLPNO-CCSD(T), (RO)-DLPNO pert. Triples
   Tobias Risthaus        : Range-separated hybrids, TD-DFT gradient, RPA, STAB
   Michael Roemelt        : Restricted open shell CIS
   Masaaki Saitow         : Open-shell DLPNO
   Barbara Sandhoefer     : DKH picture change effects
   Avijit Sen             : IP-ROCIS
   Kantharuban Sivalingam : CASSCF convergence, NEVPT2, FIC-MRCI
   Bernardo de Souza      : ESD, SOC TD-DFT
   Georgi Stoychev        : AutoAux, RI-MP2 NMR
   Willem Van den Heuvel  : Paramagnetic NMR
   Boris Wezisla          : Elementary symmetry handling
   Frank Wennmohs         : Technical directorship


 We gratefully acknowledge several colleagues who have allowed us to
 interface, adapt or use parts of their codes:
   Stefan Grimme, W. Hujo, H. Kruse,             : VdW corrections, initial TS optimization,
                  C. Bannwarth                     DFT functionals, gCP, sTDA/sTD-DF
   Ed Valeev                                     : LibInt (2-el integral package), F12 methods
   Garnet Chan, S. Sharma, J. Yang, R. Olivares  : DMRG
   Ulf Ekstrom                                   : XCFun DFT Library
   Mihaly Kallay                                 : mrcc  (arbitrary order and MRCC methods)
   Andreas Klamt, Michael Diedenhofen            : otool_cosmo (COSMO solvation model)
   Jiri Pittner, Ondrej Demel                    : Mk-CCSD
   Frank Weinhold                                : gennbo (NPA and NBO analysis)
   Christopher J. Cramer and Donald G. Truhlar   : smd solvation model
   Lars Goerigk                                  : TD-DFT with DH, B97 family of functionals
   V. Asgeirsson, H. Jonsson                     : NEB implementation
   FAccTs GmbH                                   : IRC, NEB, NEB-TS, Multilevel


 Your calculation uses the libint2 library for the computation of 2-el integrals
 For citations please refer to: http://libint.valeyev.net

 This ORCA versions uses:
   CBLAS   interface :  Fast vector & matrix operations
   LAPACKE interface :  Fast linear algebra routines
   SCALAPACK package :  Parallel linear algebra routines




***************************************
The coordinates will be read from file: MeEt_sulfone_a.xyz
***************************************


----- Orbital basis set information -----
Your calculation utilizes the basis: cc-pVTZ 
       H, B-Ne : Obtained from the ccRepo (grant-hill.group.shef.ac.uk/ccrepo) Feb. 2017
                 T. H. Dunning, Jr., J. Chem. Phys. 90, 1007 (1989)
            He : Obtained from the ccRepo (grant-hill.group.shef.ac.uk/ccrepo) Feb. 2017
                 D. E. Woon, T. H. Dunning, Jr., J. Chem. Phys. 100, 2975 (1994)
  Li-Be, Na-Mg : Obtained from the ccRepo (grant-hill.group.shef.ac.uk/ccrepo) Feb. 2017
                 B. P. Prascher, D. E. Woon, K. A. Peterson, T. H. Dunning, Jr., A. K. Wilson, Theor. Chem. Acc. 128, 69 (2011)
         Al-Ar : Obtained from the ccRepo (grant-hill.group.shef.ac.uk/ccrepo) Feb. 2017
                 D. E. Woon, T. H. Dunning, Jr., J. Chem. Phys. 98, 1358 (1993)
            Ca : Obtained from the Peterson Research Group Website (tyr0.chem.wsu.edu/~kipeters) Feb. 2017
                 J. Koput, K. A. Peterson, J. Phys. Chem. 106, 9595 (2002)
         Sc-Zn : Obtained from the ccRepo (grant-hill.group.shef.ac.uk/ccrepo) Feb. 2017
                 N. B. Balabanov, K. A. Peterson, J. Chem. Phys. 123, 064107 (2005)
                 N. B. Balabanov, K. A. Peterson, J. Chem. Phys. 125, 074110 (2006)
         Ga-Kr : Obtained from the ccRepo (grant-hill.group.shef.ac.uk/ccrepo) Feb. 2017
                 A. K. Wilson, D. E. Woon, K. A. Peterson, T. H. Dunning, Jr., J. Chem. Phys. 110, 7667 (1999)
             Y : Obtained from the ccRepo (grant-hill.group.shef.ac.uk/ccrepo) Feb. 2017
                 K. A. Peterson, D. Figgen, M. Dolg, H. Stoll, J. Chem. Phys. 126, 124101 (2007)
        Ag, Au : Obtained from the Peterson Research Group Website (tyr0.chem.wsu.edu/~kipeters) Feb. 2017
                 K. A. Peterson, C. Puzzarini, Theor. Chem. Acc. 114, 283 (2005)

----- AuxC basis set information -----
Your calculation utilizes the auxiliary basis: cc-pVTZ/C 
  Obtained from the EMSL Basis Set Exchange (bse.pnl.gov) Feb. 2017
  H-He, B-F, Al-Ar, Ga-Kr : F. Weigend, A. Kohn, C. Hattig, J. Chem. Phys. 116, 3175 (2002)
             Li-Be, Na-Mg : C. Haettig, Phys. Chem. Chem. Phys. 7, 59 (2005)
                       Ne : C. Haettig, Phys. Chem. Chem. Phys. 7, 59 (2005)
                            F. Weigend, A. Kohn, C. Hattig, J. Chem. Phys. 116, 3175 (2002)
                    Sc-Zn : J. G. Hill, J. A. Platts, J. Chem. Phys. 128, 044104 (2008)

----- AuxJK basis set information -----
Your calculation utilizes the auxiliary basis: cc-pVTZ/JK 
  H, B-F, Al-Cl, Ga-Br : Obtained from the TURBOMOLE 7.0 basis set library

================================================================================
                                        WARNINGS
                       Please study these warnings very carefully!
================================================================================


WARNING: MDCI localization with Augmented Hessian Foster-Boys
  ===> : Switching off randomization!

WARNING: Post HF methods need fully converged wavefunctions
  ===> : Setting SCFConvForced true
         You can overwrite this default with %scf ConvForced false 


INFO   : the flag for use of LIBINT has been found!

================================================================================
                                       INPUT FILE
================================================================================
NAME = MeEt_sulfone_a.inp
|  1> ! RHF DLPNO-CCSD(T) cc-pVTZ RIJK cc-pVTZ/JK cc-pVTZ/C
|  2> ! KDIIS SOSCF TightSCF TightPNO
|  3> 
|  4> %pal nprocs 8 end
|  5> 
|  6> %maxcore 8000
|  7> 
|  8> %scf maxiter 300
|  9>      shift shift 0.2 erroff 0.1 end
| 10> end
| 11> 
| 12> * xyzfile 0 1 MeEt_sulfone_a.xyz 
| 13> 
| 14> 
| 15>                          ****END OF INPUT****
================================================================================

                       ****************************
                       * Single Point Calculation *
                       ****************************

---------------------------------
CARTESIAN COORDINATES (ANGSTROEM)
---------------------------------
  C      1.942350   -1.317420    0.000000
  C      1.386780    0.106170    0.000000
  S     -0.438410    0.084990    0.000000
  O     -0.891190   -0.494990    1.279470
  C     -0.891190    1.837560    0.000000
  O     -0.891190   -0.494990   -1.279470
  H      3.035780   -1.277390    0.000000
  H      1.615700   -1.864070    0.888160
  H      1.615700   -1.864070   -0.888160
  H      1.685370    0.662560    0.893580
  H      1.685370    0.662560   -0.893580
  H     -1.982870    1.859230    0.000000
  H     -0.504520    2.311690    0.903610
  H     -0.504520    2.311690   -0.903610

----------------------------
CARTESIAN COORDINATES (A.U.)
----------------------------
  NO LB      ZA    FRAG     MASS         X           Y           Z
   0 C     6.0000    0    12.011    3.670510   -2.489563    0.000000
   1 C     6.0000    0    12.011    2.620634    0.200632    0.000000
   2 S    16.0000    0    32.060   -0.828475    0.160608    0.000000
   3 O     8.0000    0    15.999   -1.684105   -0.935396    2.417848
   4 C     6.0000    0    12.011   -1.684105    3.472485    0.000000
   5 O     8.0000    0    15.999   -1.684105   -0.935396   -2.417848
   6 H     1.0000    0     1.008    5.736793   -2.413917    0.000000
   7 H     1.0000    0     1.008    3.053231   -3.522582    1.678379
   8 H     1.0000    0     1.008    3.053231   -3.522582   -1.678379
   9 H     1.0000    0     1.008    3.184888    1.252057    1.688621
  10 H     1.0000    0     1.008    3.184888    1.252057   -1.688621
  11 H     1.0000    0     1.008   -3.747081    3.513436    0.000000
  12 H     1.0000    0     1.008   -0.953405    4.368461    1.707575
  13 H     1.0000    0     1.008   -0.953405    4.368461   -1.707575

--------------------------------
INTERNAL COORDINATES (ANGSTROEM)
--------------------------------
 C      0   0   0     0.000000000000     0.00000000     0.00000000
 C      1   0   0     1.528157882223     0.00000000     0.00000000
 S      2   1   0     1.825312885097   110.65385861     0.00000000
 O      3   2   1     1.475950544463   108.13824172    65.81227674
 C      3   2   1     1.810113624417   103.82089132   180.00000085
 O      3   2   1     1.475950544463   108.13824172   294.18772326
 H      1   2   3     1.094162495153   109.22206715   180.00000000
 H      1   2   3     1.092865330496   110.93492194   299.52633196
 H      1   2   3     1.092865330496   110.93492194    60.47366804
 H      2   1   3     1.094171392699   111.99321500   118.26487344
 H      2   1   3     1.094171392699   111.99321500   241.73512656
 H      5   3   2     1.091895055076   105.62291711   180.00000000
 H      5   3   2     1.091248815761   109.39252385   298.61524638
 H      5   3   2     1.091248815761   109.39252385    61.38475362

---------------------------
INTERNAL COORDINATES (A.U.)
---------------------------
 C      0   0   0     0.000000000000     0.00000000     0.00000000
 C      1   0   0     2.887799886794     0.00000000     0.00000000
 S      2   1   0     3.449341461550   110.65385861     0.00000000
 O      3   2   1     2.789142316247   108.13824172    65.81227674
 C      3   2   1     3.420619021428   103.82089132   180.00000085
 O      3   2   1     2.789142316247   108.13824172   294.18772326
 H      1   2   3     2.067667461848   109.22206715   180.00000000
 H      1   2   3     2.065216175895   110.93492194   299.52633196
 H      1   2   3     2.065216175895   110.93492194    60.47366804
 H      2   1   3     2.067684275772   111.99321500   118.26487344
 H      2   1   3     2.067684275772   111.99321500   241.73512656
 H      5   3   2     2.063382621077   105.62291711   180.00000000
 H      5   3   2     2.062161405754   109.39252385   298.61524638
 H      5   3   2     2.062161405754   109.39252385    61.38475362

---------------------
BASIS SET INFORMATION
---------------------
There are 4 groups of distinct atoms

 Group   1 Type C   : 18s5p2d1f contracted to 4s3p2d1f pattern {8811/311/11/1}
 Group   2 Type S   : 41s16p2d1f contracted to 5s4p2d1f pattern {13131311/7711/11/1}
 Group   3 Type O   : 18s5p2d1f contracted to 4s3p2d1f pattern {8811/311/11/1}
 Group   4 Type H   : 5s2p1d contracted to 3s2p1d pattern {311/11/1}

Atom   0C    basis set group =>   1
Atom   1C    basis set group =>   1
Atom   2S    basis set group =>   2
Atom   3O    basis set group =>   3
Atom   4C    basis set group =>   1
Atom   5O    basis set group =>   3
Atom   6H    basis set group =>   4
Atom   7H    basis set group =>   4
Atom   8H    basis set group =>   4
Atom   9H    basis set group =>   4
Atom  10H    basis set group =>   4
Atom  11H    basis set group =>   4
Atom  12H    basis set group =>   4
Atom  13H    basis set group =>   4
-------------------------------
AUXILIARY BASIS SET INFORMATION
-------------------------------
There are 4 groups of distinct atoms

 Group   1 Type C   : 8s6p5d3f1g contracted to 8s6p5d3f1g pattern {11111111/111111/11111/111/1}
 Group   2 Type S   : 10s8p7d5f2g contracted to 10s8p7d5f2g pattern {1111111111/11111111/1111111/11111/11}
 Group   3 Type O   : 8s6p5d3f1g contracted to 8s6p5d3f1g pattern {11111111/111111/11111/111/1}
 Group   4 Type H   : 4s3p2d1f contracted to 4s3p2d1f pattern {1111/111/11/1}

Atom   0C    basis set group =>   1
Atom   1C    basis set group =>   1
Atom   2S    basis set group =>   2
Atom   3O    basis set group =>   3
Atom   4C    basis set group =>   1
Atom   5O    basis set group =>   3
Atom   6H    basis set group =>   4
Atom   7H    basis set group =>   4
Atom   8H    basis set group =>   4
Atom   9H    basis set group =>   4
Atom  10H    basis set group =>   4
Atom  11H    basis set group =>   4
Atom  12H    basis set group =>   4
Atom  13H    basis set group =>   4
-------------------------------
AUXILIARY BASIS SET INFORMATION
-------------------------------
There are 4 groups of distinct atoms

 Group   1 Type C   : 10s7p5d2f1g contracted to 10s7p5d2f1g pattern {1111111111/1111111/11111/11/1}
 Group   2 Type S   : 13s11p9d3f1g contracted to 13s11p9d3f1g pattern {1111111111111/11111111111/111111111/111/1}
 Group   3 Type O   : 10s7p5d2f1g contracted to 10s7p5d2f1g pattern {1111111111/1111111/11111/11/1}
 Group   4 Type H   : 4s3p2d1f contracted to 4s3p2d1f pattern {1111/111/11/1}

Atom   0C    basis set group =>   1
Atom   1C    basis set group =>   1
Atom   2S    basis set group =>   2
Atom   3O    basis set group =>   3
Atom   4C    basis set group =>   1
Atom   5O    basis set group =>   3
Atom   6H    basis set group =>   4
Atom   7H    basis set group =>   4
Atom   8H    basis set group =>   4
Atom   9H    basis set group =>   4
Atom  10H    basis set group =>   4
Atom  11H    basis set group =>   4
Atom  12H    basis set group =>   4
Atom  13H    basis set group =>   4


           ************************************************************
           *        Program running with 8 parallel MPI-processes     *
           *              working on a common directory               *
           ************************************************************
------------------------------------------------------------------------------
                           ORCA GTO INTEGRAL CALCULATION
                           -- RI-GTO INTEGRALS CHOSEN --
------------------------------------------------------------------------------

                         BASIS SET STATISTICS AND STARTUP INFO

Gaussian basis set:
 # of primitive gaussian shells          ...  254
 # of primitive gaussian functions       ...  484
 # of contracted shells                  ...  110
 # of contracted basis functions         ...  296
 Highest angular momentum                ...    3
 Maximum contraction depth               ...   13
Auxiliary gaussian basis set:
 # of primitive gaussian shells          ...  242
 # of primitive gaussian functions       ...  756
 # of contracted shells                  ...  242
 # of contracted aux-basis functions     ...  756
 Highest angular momentum                ...    4
 Maximum contraction depth               ...    1
Ratio of auxiliary to basis functions    ...  2.55
Integral package used                  ... LIBINT
 One Electron integrals                  ... done
 Ordering auxiliary basis shells         ... done
 Integral threshhold             Thresh  ...  2.500e-11
 Primitive cut-off               TCut    ...  2.500e-12
 Pre-screening matrix                    ... done
 Shell pair data                         ... 
 Ordering of the shell pairs             ... done (   0.001 sec) 5841 of 6105 pairs
 Determination of significant pairs      ... done (   0.000 sec)
 Creation of shell pair data             ... done (   0.002 sec)
 Storage of shell pair data              ... done (   0.004 sec)
 Shell pair data done in (   0.007 sec)
 Computing two index integrals           ... done
 Cholesky decomposition of the V-matrix  ... done


Timings:
 Total evaluation time                   ...   0.609 sec (  0.010 min)
 One electron matrix time                ...   0.077 sec (  0.001 min) = 12.6%
 Schwartz matrix evaluation time         ...   0.327 sec (  0.005 min) = 53.7%
 Two index repulsion integral time       ...   0.093 sec (  0.002 min) = 15.3%
 Cholesky decomposition of V             ...   0.079 sec (  0.001 min) = 13.0%
 Three index repulsion integral time     ...   0.000 sec (  0.000 min) =  0.0%



           ************************************************************
           *        Program running with 8 parallel MPI-processes     *
           *              working on a common directory               *
           ************************************************************
-------------------------------------------------------------------------------
                                 ORCA SCF
-------------------------------------------------------------------------------

------------
SCF SETTINGS
------------
Hamiltonian:
 Ab initio Hamiltonian  Method          .... Hartree-Fock(GTOs)
 RI-approximation to the Coulomb term is turned on
   Number of auxiliary basis functions  .... 756
   RI-JK (J+K treated both via RI)      .... on


General Settings:
 Integral files         IntName         .... MeEt_sulfone_a
 Hartree-Fock type      HFTyp           .... RHF
 Total Charge           Charge          ....    0
 Multiplicity           Mult            ....    1
 Number of Electrons    NEL             ....   58
 Basis Dimension        Dim             ....  296
 Nuclear Repulsion      ENuc            ....    348.2646824951 Eh

Convergence Acceleration:
 DIIS                   CNVDIIS         .... off
 Newton-Raphson         CNVNR           .... off
 SOSCF                  CNVSOSCF        .... on
   Start iteration      SOSCFMaxIt      ....   150
   Startup grad/error   SOSCFStart      ....  0.003300
 Level Shifting         CNVShift        .... on
   Level shift para.    LevelShift      ....    0.2000
   Turn off err/grad.   ShiftErr        ....    0.1000
 Zerner damping         CNVZerner       .... off
 Static damping         CNVDamp         .... off
 Fernandez-Rico         CNVRico         .... off

SCF Procedure:
 Maximum # iterations   MaxIter         ....   300
 SCF integral mode      SCFMode         .... Direct
   Integral package                     .... LIBINT
 Reset frequency        DirectResetFreq ....    20
 Integral Threshold     Thresh          ....  2.500e-11 Eh
 Primitive CutOff       TCut            ....  2.500e-12 Eh

Convergence Tolerance:
 Convergence Check Mode ConvCheckMode   .... Total+1el-Energy
 Convergence forced     ConvForced      .... 1
 Energy Change          TolE            ....  1.000e-08 Eh
 1-El. energy change                    ....  1.000e-05 Eh
 Orbital Gradient       TolG            ....  1.000e-05
 Orbital Rotation angle TolX            ....  1.000e-05


Diagonalization of the overlap matrix:
Smallest eigenvalue                        ... 8.511e-04
Time for diagonalization                   ...    0.018 sec
Threshold for overlap eigenvalues          ... 1.000e-08
Number of eigenvalues below threshold      ... 0
Time for construction of square roots      ...    0.011 sec
Total time needed                          ...    0.029 sec

-------------------
DFT GRID GENERATION
-------------------

General Integration Accuracy     IntAcc      ...  4.340
Radial Grid Type                 RadialGrid  ... Gauss-Chebyshev
Angular Grid (max. acc.)         AngularGrid ... Lebedev-110
Angular grid pruning method      GridPruning ... 3 (G Style)
Weight generation scheme         WeightScheme... Becke
Basis function cutoff            BFCut       ...    1.0000e-11
Integration weight cutoff        WCut        ...    1.0000e-14
Grids for H and He will be reduced by one unit

# of grid points (after initial pruning)     ...  16558 (   0.0 sec)
# of grid points (after weights+screening)   ...  15512 (   0.0 sec)
nearest neighbour list constructed           ...    0.0 sec
Grid point re-assignment to atoms done       ...    0.0 sec
Grid point division into batches done        ...    0.0 sec
Reduced shell lists constructed in    0.1 sec

Total number of grid points                  ...    15512
Total number of batches                      ...      250
Average number of points per batch           ...       62
Average number of grid points per atom       ...     1108
Average number of shells per batch           ...    92.39 (83.99%)
Average number of basis functions per batch  ...   242.21 (81.83%)
Average number of large shells per batch     ...    75.82 (82.06%)
Average number of large basis fcns per batch ...   197.15 (81.40%)
Average number of aux-shells per batch       ...    92.39 (38.18%)
Average number of aux functions per batch    ...   242.21 (32.04%)
Maximum spatial batch extension              ...   2.42,  2.48,  2.08 au
Average spatial batch extension              ...   0.19,  0.20,  0.19 au

Time for grid setup =    0.107 sec

------------------------------
INITIAL GUESS: MODEL POTENTIAL
------------------------------
Loading Hartree-Fock densities                     ... done
Calculating cut-offs                               ... done
Setting up the integral package                    ... done
Initializing the effective Hamiltonian             ... done
Starting the Coulomb interaction                   ... done (   0.0 sec)
Reading the grid                                   ... done
Mapping shells                                     ... done
Starting the XC term evaluation                    ... done (   0.0 sec)
Transforming the Hamiltonian                       ... done (   0.0 sec)
Diagonalizing the Hamiltonian                      ... done (   0.0 sec)
Back transforming the eigenvectors                 ... done (   0.0 sec)
Now organizing SCF variables                       ... done
                      ------------------
                      INITIAL GUESS DONE (   0.3 sec)
                      ------------------
--------------
SCF ITERATIONS
--------------
ITER       Energy         Delta-E        Max-DP      RMS-DP      [F,P]   Gradient Norm
                             ****Turning on KDIIS(Cayley)****
  0   -665.1873799468   0.000000000000 0.02054687  0.00032122  0.1702050   0.167667574
  1   -665.3098943903  -0.122514443502 0.03599135  0.00035566  0.1585222   0.142527031
  2   -665.4034752483  -0.093580857986 0.05879249  0.00058994  0.1271597   0.115475668
  3   -665.5149979967  -0.111522748451 0.09052906  0.00095580  0.0772783   0.070776187
  4   -665.5867835181  -0.071785521359 0.00195683  0.00007159  0.0033227   0.003249969
                      *** Initiating the SOSCF procedure ***
                           *** Shutting down KDIIS ***
                      *** Re-Reading the Fockian *** 
                      *** Removing any level shift *** 
ITER      Energy       Delta-E        Grad      Rot      Max-DP    RMS-DP
  5   -665.58708845  -0.0003049336  0.001071  0.001071  0.001300  0.000033
  6   -665.58711005  -0.0000216030  0.000189  0.000198  0.000671  0.000009
  7   -665.58711139  -0.0000013354  0.000153  0.000135  0.000208  0.000003
  8   -665.58711203  -0.0000006363  0.000037  0.000067  0.000045  0.000001
  9   -665.58711206  -0.0000000293  0.000025  0.000045  0.000025  0.000001
 10   -665.58711207  -0.0000000118  0.000003  0.000005  0.000007  0.000000
                  ***Gradient check signals convergence***
              ***Rediagonalizing the Fockian in SOSCF/NRSCF***

               *****************************************************
               *                     SUCCESS                       *
               *           SCF CONVERGED AFTER  11 CYCLES          *
               *****************************************************


----------------
TOTAL SCF ENERGY
----------------

Total Energy       :         -665.58711207 Eh          -18111.54609 eV

Components:
Nuclear Repulsion  :          348.26468250 Eh            9476.76380 eV
Electronic Energy  :        -1013.85179456 Eh          -27588.30989 eV
One Electron Energy:        -1606.54073367 Eh          -43716.19585 eV
Two Electron Energy:          592.68893910 Eh           16127.88596 eV

Virial components:
Potential Energy   :        -1330.35139970 Eh          -36200.70199 eV
Kinetic Energy     :          664.76428763 Eh           18089.15590 eV
Virial Ratio       :            2.00123777


---------------
SCF CONVERGENCE
---------------

  Last Energy change         ...   -3.4333e-10  Tolerance :   1.0000e-08
  Last MAX-Density change    ...    2.7227e-06  Tolerance :   1.0000e-07
  Last RMS-Density change    ...    5.7849e-08  Tolerance :   5.0000e-09
  Last Orbital Gradient      ...    1.0203e-06  Tolerance :   1.0000e-05
  Last Orbital Rotation      ...    1.1670e-06  Tolerance :   1.0000e-05

             **** THE GBW FILE WAS UPDATED (MeEt_sulfone_a.gbw) ****
             **** DENSITY FILE WAS UPDATED (MeEt_sulfone_a.scfp.tmp) ****
             **** ENERGY FILE WAS UPDATED (MeEt_sulfone_a.en.tmp) ****
----------------
ORBITAL ENERGIES
----------------

  NO   OCC          E(Eh)            E(eV) 
   0   2.0000     -92.175687     -2508.2280 
   1   2.0000     -20.536427      -558.8246 
   2   2.0000     -20.536407      -558.8240 
   3   2.0000     -11.285242      -307.0870 
   4   2.0000     -11.280208      -306.9501 
   5   2.0000     -11.242499      -305.9240 
   6   2.0000      -9.145924      -248.8732 
   7   2.0000      -6.830423      -185.8652 
   8   2.0000      -6.829917      -185.8515 
   9   2.0000      -6.829749      -185.8469 
  10   2.0000      -1.425408       -38.7873 
  11   2.0000      -1.316716       -35.8297 
  12   2.0000      -1.084481       -29.5102 
  13   2.0000      -1.030685       -28.0464 
  14   2.0000      -0.907213       -24.6865 
  15   2.0000      -0.800985       -21.7959 
  16   2.0000      -0.684588       -18.6286 
  17   2.0000      -0.667452       -18.1623 
  18   2.0000      -0.651294       -17.7226 
  19   2.0000      -0.631227       -17.1766 
  20   2.0000      -0.607532       -16.5318 
  21   2.0000      -0.594054       -16.1650 
  22   2.0000      -0.558074       -15.1860 
  23   2.0000      -0.548909       -14.9366 
  24   2.0000      -0.529688       -14.4135 
  25   2.0000      -0.484881       -13.1943 
  26   2.0000      -0.479547       -13.0491 
  27   2.0000      -0.458197       -12.4682 
  28   2.0000      -0.428065       -11.6483 
  29   0.0000       0.120241         3.2719 
  30   0.0000       0.145536         3.9602 
  31   0.0000       0.163380         4.4458 
  32   0.0000       0.181200         4.9307 
  33   0.0000       0.196703         5.3526 
  34   0.0000       0.210048         5.7157 
  35   0.0000       0.216360         5.8874 
  36   0.0000       0.219616         5.9761 
  37   0.0000       0.235633         6.4119 
  38   0.0000       0.253634         6.9017 
  39   0.0000       0.270002         7.3471 
  40   0.0000       0.279355         7.6016 
  41   0.0000       0.306699         8.3457 
  42   0.0000       0.342486         9.3195 
  43   0.0000       0.384414        10.4604 
  44   0.0000       0.386169        10.5082 
  45   0.0000       0.392332        10.6759 
  46   0.0000       0.415791        11.3143 
  47   0.0000       0.420367        11.4388 
  48   0.0000       0.470019        12.7899 
  49   0.0000       0.479120        13.0375 
  50   0.0000       0.508861        13.8468 
  51   0.0000       0.550581        14.9821 
  52   0.0000       0.554762        15.0958 
  53   0.0000       0.569429        15.4949 
  54   0.0000       0.570786        15.5319 
  55   0.0000       0.588957        16.0263 
  56   0.0000       0.593878        16.1602 
  57   0.0000       0.610561        16.6142 
  58   0.0000       0.621186        16.9033 
  59   0.0000       0.626443        17.0464 
  60   0.0000       0.630281        17.1508 
  61   0.0000       0.640912        17.4401 
  62   0.0000       0.668614        18.1939 
  63   0.0000       0.670833        18.2543 
  64   0.0000       0.710960        19.3462 
  65   0.0000       0.721343        19.6287 
  66   0.0000       0.725718        19.7478 
  67   0.0000       0.773915        21.0593 
  68   0.0000       0.835562        22.7368 
  69   0.0000       0.848738        23.0953 
  70   0.0000       0.861883        23.4530 
  71   0.0000       0.883228        24.0338 
  72   0.0000       0.894997        24.3541 
  73   0.0000       0.923254        25.1230 
  74   0.0000       0.933917        25.4132 
  75   0.0000       0.934264        25.4226 
  76   0.0000       0.959232        26.1020 
  77   0.0000       0.972799        26.4712 
  78   0.0000       0.986602        26.8468 
  79   0.0000       1.012054        27.5394 
  80   0.0000       1.033402        28.1203 
  81   0.0000       1.074101        29.2278 
  82   0.0000       1.078933        29.3593 
  83   0.0000       1.109039        30.1785 
  84   0.0000       1.143826        31.1251 
  85   0.0000       1.162885        31.6437 
  86   0.0000       1.211132        32.9566 
  87   0.0000       1.213608        33.0239 
  88   0.0000       1.224614        33.3234 
  89   0.0000       1.236397        33.6441 
  90   0.0000       1.239597        33.7312 
  91   0.0000       1.252914        34.0935 
  92   0.0000       1.268059        34.5056 
  93   0.0000       1.304719        35.5032 
  94   0.0000       1.324760        36.0485 
  95   0.0000       1.328615        36.1535 
  96   0.0000       1.343216        36.5508 
  97   0.0000       1.359676        36.9987 
  98   0.0000       1.363405        37.1001 
  99   0.0000       1.388525        37.7837 
 100   0.0000       1.460863        39.7521 
 101   0.0000       1.474588        40.1256 
 102   0.0000       1.490523        40.5592 
 103   0.0000       1.497323        40.7442 
 104   0.0000       1.507851        41.0307 
 105   0.0000       1.515254        41.2322 
 106   0.0000       1.536324        41.8055 
 107   0.0000       1.536762        41.8174 
 108   0.0000       1.563566        42.5468 
 109   0.0000       1.578302        42.9478 
 110   0.0000       1.582035        43.0494 
 111   0.0000       1.651300        44.9342 
 112   0.0000       1.686307        45.8867 
 113   0.0000       1.698556        46.2200 
 114   0.0000       1.721570        46.8463 
 115   0.0000       1.734888        47.2087 
 116   0.0000       1.784771        48.5661 
 117   0.0000       1.786673        48.6178 
 118   0.0000       1.813147        49.3382 
 119   0.0000       1.813244        49.3409 
 120   0.0000       1.825151        49.6649 
 121   0.0000       1.900050        51.7030 
 122   0.0000       1.902768        51.7769 
 123   0.0000       1.934854        52.6501 
 124   0.0000       1.944782        52.9202 
 125   0.0000       2.022513        55.0354 
 126   0.0000       2.022790        55.0429 
 127   0.0000       2.128128        57.9093 
 128   0.0000       2.160828        58.7991 
 129   0.0000       2.242315        61.0165 
 130   0.0000       2.248587        61.1872 
 131   0.0000       2.260574        61.5134 
 132   0.0000       2.321589        63.1736 
 133   0.0000       2.445408        66.5429 
 134   0.0000       2.499878        68.0251 
 135   0.0000       2.508831        68.2688 
 136   0.0000       2.552526        69.4578 
 137   0.0000       2.586889        70.3928 
 138   0.0000       2.600040        70.7507 
 139   0.0000       2.617576        71.2279 
 140   0.0000       2.646344        72.0107 
 141   0.0000       2.661658        72.4274 
 142   0.0000       2.678640        72.8895 
 143   0.0000       2.690297        73.2067 
 144   0.0000       2.716093        73.9087 
 145   0.0000       2.765580        75.2553 
 146   0.0000       2.767965        75.3202 
 147   0.0000       2.773504        75.4709 
 148   0.0000       2.826065        76.9011 
 149   0.0000       2.826737        76.9194 
 150   0.0000       2.838837        77.2487 
 151   0.0000       2.918201        79.4083 
 152   0.0000       2.935635        79.8827 
 153   0.0000       2.947811        80.2140 
 154   0.0000       2.953973        80.3817 
 155   0.0000       3.046081        82.8881 
 156   0.0000       3.063739        83.3686 
 157   0.0000       3.076537        83.7168 
 158   0.0000       3.081718        83.8578 
 159   0.0000       3.100922        84.3804 
 160   0.0000       3.104518        84.4782 
 161   0.0000       3.116216        84.7965 
 162   0.0000       3.178506        86.4915 
 163   0.0000       3.209160        87.3257 
 164   0.0000       3.233555        87.9895 
 165   0.0000       3.256411        88.6115 
 166   0.0000       3.285183        89.3944 
 167   0.0000       3.300680        89.8161 
 168   0.0000       3.324647        90.4682 
 169   0.0000       3.343390        90.9783 
 170   0.0000       3.356696        91.3403 
 171   0.0000       3.376955        91.8916 
 172   0.0000       3.384545        92.0982 
 173   0.0000       3.391931        92.2991 
 174   0.0000       3.427238        93.2599 
 175   0.0000       3.428724        93.3003 
 176   0.0000       3.445927        93.7684 
 177   0.0000       3.481646        94.7404 
 178   0.0000       3.493607        95.0659 
 179   0.0000       3.517947        95.7282 
 180   0.0000       3.557942        96.8165 
 181   0.0000       3.588680        97.6530 
 182   0.0000       3.607037        98.1525 
 183   0.0000       3.618666        98.4689 
 184   0.0000       3.659305        99.5747 
 185   0.0000       3.674679        99.9931 
 186   0.0000       3.698101       100.6304 
 187   0.0000       3.723910       101.3327 
 188   0.0000       3.757010       102.2334 
 189   0.0000       3.758147       102.2644 
 190   0.0000       3.780841       102.8819 
 191   0.0000       3.794408       103.2511 
 192   0.0000       3.799820       103.3984 
 193   0.0000       3.843439       104.5853 
 194   0.0000       3.866744       105.2195 
 195   0.0000       3.894428       105.9728 
 196   0.0000       3.895759       106.0090 
 197   0.0000       3.939053       107.1871 
 198   0.0000       4.018274       109.3428 
 199   0.0000       4.056370       110.3794 
 200   0.0000       4.082371       111.0870 
 201   0.0000       4.093772       111.3972 
 202   0.0000       4.112204       111.8988 
 203   0.0000       4.144849       112.7871 
 204   0.0000       4.146578       112.8341 
 205   0.0000       4.158093       113.1475 
 206   0.0000       4.163459       113.2935 
 207   0.0000       4.176803       113.6566 
 208   0.0000       4.211735       114.6071 
 209   0.0000       4.253271       115.7374 
 210   0.0000       4.259724       115.9130 
 211   0.0000       4.292453       116.8036 
 212   0.0000       4.307062       117.2011 
 213   0.0000       4.337335       118.0249 
 214   0.0000       4.346431       118.2724 
 215   0.0000       4.351754       118.4172 
 216   0.0000       4.361530       118.6833 
 217   0.0000       4.381652       119.2308 
 218   0.0000       4.387886       119.4005 
 219   0.0000       4.413132       120.0874 
 220   0.0000       4.419677       120.2655 
 221   0.0000       4.455595       121.2429 
 222   0.0000       4.474842       121.7666 
 223   0.0000       4.499831       122.4466 
 224   0.0000       4.527577       123.2016 
 225   0.0000       4.543668       123.6395 
 226   0.0000       4.558882       124.0535 
 227   0.0000       4.573182       124.4426 
 228   0.0000       4.594951       125.0350 
 229   0.0000       4.682897       127.4281 
 230   0.0000       4.719368       128.4205 
 231   0.0000       4.754146       129.3669 
 232   0.0000       4.817822       131.0996 
 233   0.0000       4.964170       135.0819 
 234   0.0000       5.009519       136.3159 
 235   0.0000       5.040684       137.1640 
 236   0.0000       5.060354       137.6992 
 237   0.0000       5.066287       137.8607 
 238   0.0000       5.132295       139.6568 
 239   0.0000       5.169724       140.6753 
 240   0.0000       5.175885       140.8430 
 241   0.0000       5.184851       141.0870 
 242   0.0000       5.264609       143.2573 
 243   0.0000       5.281409       143.7145 
 244   0.0000       5.298121       144.1692 
 245   0.0000       5.347193       145.5045 
 246   0.0000       5.347426       145.5108 
 247   0.0000       5.363142       145.9385 
 248   0.0000       5.387602       146.6041 
 249   0.0000       5.522183       150.2662 
 250   0.0000       5.551361       151.0602 
 251   0.0000       5.551684       151.0690 
 252   0.0000       5.563369       151.3870 
 253   0.0000       5.567865       151.5093 
 254   0.0000       5.580977       151.8661 
 255   0.0000       5.614376       152.7749 
 256   0.0000       5.622314       152.9909 
 257   0.0000       5.629974       153.1994 
 258   0.0000       5.631141       153.2311 
 259   0.0000       5.644361       153.5909 
 260   0.0000       5.649301       153.7253 
 261   0.0000       5.676952       154.4777 
 262   0.0000       5.677810       154.5011 
 263   0.0000       5.721079       155.6785 
 264   0.0000       5.724300       155.7661 
 265   0.0000       5.756325       156.6376 
 266   0.0000       5.776709       157.1922 
 267   0.0000       5.788269       157.5068 
 268   0.0000       5.791612       157.5978 
 269   0.0000       5.866193       159.6272 
 270   0.0000       5.985226       162.8663 
 271   0.0000       6.021181       163.8447 
 272   0.0000       6.034907       164.2182 
 273   0.0000       6.110911       166.2864 
 274   0.0000       6.141488       167.1184 
 275   0.0000       6.183870       168.2717 
 276   0.0000       6.242498       169.8670 
 277   0.0000       6.255703       170.2263 
 278   0.0000       6.261434       170.3823 
 279   0.0000       6.284943       171.0220 
 280   0.0000       6.708249       182.5407 
 281   0.0000       6.845691       186.2807 
 282   0.0000       6.854939       186.5324 
 283   0.0000       6.927389       188.5038 
 284   0.0000       6.974100       189.7749 
 285   0.0000       7.263998       197.6634 
 286   0.0000       7.282876       198.1771 
 287   0.0000       7.354692       200.1313 
 288   0.0000       7.362564       200.3455 
 289   0.0000       7.480434       203.5530 
 290   0.0000       7.604608       206.9319 
 291   0.0000      10.269532       279.4482 
 292   0.0000      10.669120       290.3215 
 293   0.0000      12.638529       343.9119 
 294   0.0000      13.496828       367.2674 
 295   0.0000      14.076829       383.0500 

                    ********************************
                    * MULLIKEN POPULATION ANALYSIS *
                    ********************************

-----------------------
MULLIKEN ATOMIC CHARGES
-----------------------
   0 C :   -0.301506
   1 C :   -0.188407
   2 S :    0.977236
   3 O :   -0.583700
   4 C :   -0.281740
   5 O :   -0.583700
   6 H :    0.106285
   7 H :    0.124117
   8 H :    0.124117
   9 H :    0.118370
  10 H :    0.118370
  11 H :    0.136007
  12 H :    0.117277
  13 H :    0.117277
Sum of atomic charges:   -0.0000000

--------------------------------
MULLIKEN REDUCED ORBITAL CHARGES
--------------------------------
  0 C s       :     3.269143  s :     3.269143
      pz      :     1.047622  p :     2.944399
      px      :     0.997297
      py      :     0.899480
      dz2     :     0.014106  d :     0.083239
      dxz     :     0.005669
      dyz     :     0.027766
      dx2y2   :     0.022081
      dxy     :     0.013617
      f0      :     0.000251  f :     0.004725
      f+1     :     0.000771
      f-1     :     0.001219
      f+2     :     0.000259
      f-2     :     0.000258
      f+3     :     0.001305
      f-3     :     0.000662
  1 C s       :     3.186492  s :     3.186492
      pz      :     1.031003  p :     2.893269
      px      :     0.851951
      py      :     1.010315
      dz2     :     0.021495  d :     0.103327
      dxz     :     0.000940
      dyz     :     0.035546
      dx2y2   :     0.033082
      dxy     :     0.012265
      f0      :     0.000343  f :     0.005319
      f+1     :     0.000818
      f-1     :     0.001397
      f+2     :     0.000342
      f-2     :     0.000165
      f+3     :     0.001477
      f-3     :     0.000777
  2 S s       :     5.352831  s :     5.352831
      pz      :     2.784868  p :     8.679301
      px      :     2.973270
      py      :     2.921163
      dz2     :     0.268588  d :     0.896683
      dxz     :     0.180495
      dyz     :     0.182587
      dx2y2   :     0.199599
      dxy     :     0.065414
      f0      :     0.024811  f :     0.093949
      f+1     :     0.015985
      f-1     :     0.013875
      f+2     :     0.016718
      f-2     :     0.012779
      f+3     :     0.004556
      f-3     :     0.005225
  3 O s       :     3.808277  s :     3.808277
      pz      :     1.385106  p :     4.736952
      px      :     1.690461
      py      :     1.661385
      dz2     :     0.012192  d :     0.036433
      dxz     :     0.008885
      dyz     :     0.009843
      dx2y2   :     0.002545
      dxy     :     0.002967
      f0      :     0.000490  f :     0.002039
      f+1     :     0.000411
      f-1     :     0.000507
      f+2     :     0.000269
      f-2     :     0.000288
      f+3     :     0.000035
      f-3     :     0.000038
  4 C s       :     3.228489  s :     3.228489
      pz      :     1.033148  p :     2.987883
      px      :     1.061551
      py      :     0.893184
      dz2     :     0.018229  d :     0.061818
      dxz     :     0.008317
      dyz     :     0.006222
      dx2y2   :     0.020647
      dxy     :     0.008404
      f0      :     0.000064  f :     0.003551
      f+1     :     0.000965
      f-1     :     0.001025
      f+2     :     0.000209
      f-2     :    -0.000051
      f+3     :     0.000743
      f-3     :     0.000596
  5 O s       :     3.808277  s :     3.808277
      pz      :     1.385106  p :     4.736952
      px      :     1.690461
      py      :     1.661385
      dz2     :     0.012192  d :     0.036433
      dxz     :     0.008885
      dyz     :     0.009843
      dx2y2   :     0.002545
      dxy     :     0.002967
      f0      :     0.000490  f :     0.002039
      f+1     :     0.000411
      f-1     :     0.000507
      f+2     :     0.000269
      f-2     :     0.000288
      f+3     :     0.000035
      f-3     :     0.000038
  6 H s       :     0.864080  s :     0.864080
      pz      :     0.008132  p :     0.027415
      px      :     0.011328
      py      :     0.007955
      dz2     :     0.000235  d :     0.002220
      dxz     :     0.000607
      dyz     :     0.000009
      dx2y2   :     0.000559
      dxy     :     0.000811
  7 H s       :     0.845614  s :     0.845614
      pz      :     0.010021  p :     0.028081
      px      :     0.007906
      py      :     0.010154
      dz2     :     0.000607  d :     0.002189
      dxz     :     0.000396
      dyz     :     0.000655
      dx2y2   :     0.000336
      dxy     :     0.000194
  8 H s       :     0.845614  s :     0.845614
      pz      :     0.010021  p :     0.028081
      px      :     0.007906
      py      :     0.010154
      dz2     :     0.000607  d :     0.002189
      dxz     :     0.000396
      dyz     :     0.000655
      dx2y2   :     0.000336
      dxy     :     0.000194
  9 H s       :     0.845374  s :     0.845374
      pz      :     0.011089  p :     0.033756
      px      :     0.010703
      py      :     0.011964
      dz2     :     0.000597  d :     0.002500
      dxz     :     0.000575
      dyz     :     0.000714
      dx2y2   :     0.000383
      dxy     :     0.000232
 10 H s       :     0.845374  s :     0.845374
      pz      :     0.011089  p :     0.033756
      px      :     0.010703
      py      :     0.011964
      dz2     :     0.000597  d :     0.002500
      dxz     :     0.000575
      dyz     :     0.000714
      dx2y2   :     0.000383
      dxy     :     0.000232
 11 H s       :     0.827772  s :     0.827772
      pz      :     0.009013  p :     0.033819
      px      :     0.015422
      py      :     0.009384
      dz2     :     0.000280  d :     0.002402
      dxz     :     0.000703
      dyz     :     0.000026
      dx2y2   :     0.000608
      dxy     :     0.000785
 12 H s       :     0.847909  s :     0.847909
      pz      :     0.011869  p :     0.032534
      px      :     0.008352
      py      :     0.012312
      dz2     :     0.000626  d :     0.002281
      dxz     :     0.000479
      dyz     :     0.000715
      dx2y2   :     0.000298
      dxy     :     0.000162
 13 H s       :     0.847909  s :     0.847909
      pz      :     0.011869  p :     0.032534
      px      :     0.008352
      py      :     0.012312
      dz2     :     0.000626  d :     0.002281
      dxz     :     0.000479
      dyz     :     0.000715
      dx2y2   :     0.000298
      dxy     :     0.000162


                     *******************************
                     * LOEWDIN POPULATION ANALYSIS *
                     *******************************

----------------------
LOEWDIN ATOMIC CHARGES
----------------------
   0 C :    0.106838
   1 C :   -0.024409
   2 S :    0.670757
   3 O :   -0.301872
   4 C :    0.046873
   5 O :   -0.301872
   6 H :   -0.022171
   7 H :   -0.018205
   8 H :   -0.018205
   9 H :   -0.028880
  10 H :   -0.028880
  11 H :   -0.020437
  12 H :   -0.029769
  13 H :   -0.029769

-------------------------------
LOEWDIN REDUCED ORBITAL CHARGES
-------------------------------
  0 C s       :     2.661795  s :     2.661795
      pz      :     0.998025  p :     2.892162
      px      :     0.975445
      py      :     0.918692
      dz2     :     0.055532  d :     0.309803
      dxz     :     0.019555
      dyz     :     0.094366
      dx2y2   :     0.088549
      dxy     :     0.051801
      f0      :     0.002048  f :     0.029402
      f+1     :     0.004551
      f-1     :     0.005098
      f+2     :     0.002690
      f-2     :     0.004259
      f+3     :     0.006288
      f-3     :     0.004469
  1 C s       :     2.710005  s :     2.710005
      pz      :     1.012722  p :     2.894369
      px      :     0.894759
      py      :     0.986888
      dz2     :     0.066494  d :     0.386950
      dxz     :     0.030165
      dyz     :     0.108706
      dx2y2   :     0.122346
      dxy     :     0.059240
      f0      :     0.002487  f :     0.033085
      f+1     :     0.005118
      f-1     :     0.005056
      f+2     :     0.003387
      f-2     :     0.003931
      f+3     :     0.007346
      f-3     :     0.005760
  2 S s       :     4.897204  s :     4.897204
      pz      :     2.872783  p :     8.671187
      px      :     2.908183
      py      :     2.890220
      dz2     :     0.442593  d :     1.488411
      dxz     :     0.291602
      dyz     :     0.311418
      dx2y2   :     0.317246
      dxy     :     0.125553
      f0      :     0.069478  f :     0.272441
      f+1     :     0.047946
      f-1     :     0.045240
      f+2     :     0.046041
      f-2     :     0.036582
      f+3     :     0.012504
      f-3     :     0.014649
  3 O s       :     3.533349  s :     3.533349
      pz      :     1.468059  p :     4.701992
      px      :     1.624597
      py      :     1.609336
      dz2     :     0.021390  d :     0.062973
      dxz     :     0.014971
      dyz     :     0.018646
      dx2y2   :     0.003928
      dxy     :     0.004038
      f0      :     0.000731  f :     0.003559
      f+1     :     0.000746
      f-1     :     0.001004
      f+2     :     0.000448
      f-2     :     0.000492
      f+3     :     0.000054
      f-3     :     0.000084
  4 C s       :     2.710239  s :     2.710239
      pz      :     1.021245  p :     2.959704
      px      :     1.016842
      py      :     0.921617
      dz2     :     0.061355  d :     0.260799
      dxz     :     0.030252
      dyz     :     0.050805
      dx2y2   :     0.084120
      dxy     :     0.034266
      f0      :     0.000701  f :     0.022384
      f+1     :     0.004530
      f-1     :     0.004944
      f+2     :     0.001312
      f-2     :     0.002850
      f+3     :     0.004481
      f-3     :     0.003567
  5 O s       :     3.533349  s :     3.533349
      pz      :     1.468059  p :     4.701992
      px      :     1.624597
      py      :     1.609336
      dz2     :     0.021390  d :     0.062973
      dxz     :     0.014971
      dyz     :     0.018646
      dx2y2   :     0.003928
      dxy     :     0.004038
      f0      :     0.000731  f :     0.003559
      f+1     :     0.000746
      f-1     :     0.001004
      f+2     :     0.000448
      f-2     :     0.000492
      f+3     :     0.000054
      f-3     :     0.000084
  6 H s       :     0.841115  s :     0.841115
      pz      :     0.041224  p :     0.153251
      px      :     0.073069
      py      :     0.038959
      dz2     :     0.002320  d :     0.027804
      dxz     :     0.009534
      dyz     :     0.000121
      dx2y2   :     0.006917
      dxy     :     0.008912
  7 H s       :     0.837336  s :     0.837336
      pz      :     0.063283  p :     0.152992
      px      :     0.042874
      py      :     0.046835
      dz2     :     0.008795  d :     0.027876
      dxz     :     0.005807
      dyz     :     0.007026
      dx2y2   :     0.003467
      dxy     :     0.002781
  8 H s       :     0.837336  s :     0.837336
      pz      :     0.063283  p :     0.152992
      px      :     0.042874
      py      :     0.046835
      dz2     :     0.008795  d :     0.027876
      dxz     :     0.005807
      dyz     :     0.007026
      dx2y2   :     0.003467
      dxy     :     0.002781
  9 H s       :     0.840438  s :     0.840438
      pz      :     0.066309  p :     0.159629
      px      :     0.042580
      py      :     0.050740
      dz2     :     0.008786  d :     0.028812
      dxz     :     0.006241
      dyz     :     0.007582
      dx2y2   :     0.003483
      dxy     :     0.002720
 10 H s       :     0.840438  s :     0.840438
      pz      :     0.066309  p :     0.159629
      px      :     0.042580
      py      :     0.050740
      dz2     :     0.008786  d :     0.028812
      dxz     :     0.006241
      dyz     :     0.007582
      dx2y2   :     0.003483
      dxy     :     0.002720
 11 H s       :     0.832632  s :     0.832632
      pz      :     0.039313  p :     0.159124
      px      :     0.080955
      py      :     0.038857
      dz2     :     0.002588  d :     0.028681
      dxz     :     0.009642
      dyz     :     0.000032
      dx2y2   :     0.007321
      dxy     :     0.009098
 12 H s       :     0.842915  s :     0.842915
      pz      :     0.066533  p :     0.158436
      px      :     0.044427
      py      :     0.047477
      dz2     :     0.008754  d :     0.028418
      dxz     :     0.006471
      dyz     :     0.007341
      dx2y2   :     0.003380
      dxy     :     0.002472
 13 H s       :     0.842915  s :     0.842915
      pz      :     0.066533  p :     0.158436
      px      :     0.044427
      py      :     0.047477
      dz2     :     0.008754  d :     0.028418
      dxz     :     0.006471
      dyz     :     0.007341
      dx2y2   :     0.003380
      dxy     :     0.002472


                      *****************************
                      * MAYER POPULATION ANALYSIS *
                      *****************************

  NA   - Mulliken gross atomic population
  ZA   - Total nuclear charge
  QA   - Mulliken gross atomic charge
  VA   - Mayer's total valence
  BVA  - Mayer's bonded valence
  FA   - Mayer's free valence

  ATOM       NA         ZA         QA         VA         BVA        FA
  0 C      6.3015     6.0000    -0.3015     3.9018     3.9018    -0.0000
  1 C      6.1884     6.0000    -0.1884     3.8203     3.8203    -0.0000
  2 S     15.0228    16.0000     0.9772     5.4772     5.4772    -0.0000
  3 O      8.5837     8.0000    -0.5837     1.9151     1.9151    -0.0000
  4 C      6.2817     6.0000    -0.2817     3.8454     3.8454     0.0000
  5 O      8.5837     8.0000    -0.5837     1.9151     1.9151    -0.0000
  6 H      0.8937     1.0000     0.1063     0.9760     0.9760    -0.0000
  7 H      0.8759     1.0000     0.1241     0.9879     0.9879    -0.0000
  8 H      0.8759     1.0000     0.1241     0.9879     0.9879    -0.0000
  9 H      0.8816     1.0000     0.1184     0.9890     0.9890    -0.0000
 10 H      0.8816     1.0000     0.1184     0.9890     0.9890    -0.0000
 11 H      0.8640     1.0000     0.1360     0.9992     0.9992     0.0000
 12 H      0.8827     1.0000     0.1173     0.9900     0.9900     0.0000
 13 H      0.8827     1.0000     0.1173     0.9900     0.9900     0.0000

  Mayer bond orders larger than 0.1
B(  0-C ,  1-C ) :   0.9582 B(  0-C ,  6-H ) :   0.9747 B(  0-C ,  7-H ) :   0.9737 
B(  0-C ,  8-H ) :   0.9737 B(  1-C ,  2-S ) :   0.8882 B(  1-C ,  9-H ) :   0.9641 
B(  1-C , 10-H ) :   0.9641 B(  2-S ,  3-O ) :   1.8045 B(  2-S ,  4-C ) :   0.9034 
B(  2-S ,  5-O ) :   1.8045 B(  4-C , 11-H ) :   0.9649 B(  4-C , 12-H ) :   0.9620 
B(  4-C , 13-H ) :   0.9620 

-------
TIMINGS
-------

Total SCF time: 0 days 0 hours 0 min 10 sec 

Total time                  ....      10.542 sec
Sum of individual times     ....      10.326 sec  ( 98.0%)

Fock matrix formation       ....       9.815 sec  ( 93.1%)
Diagonalization             ....       0.073 sec  (  0.7%)
Density matrix formation    ....       0.012 sec  (  0.1%)
Population analysis         ....       0.037 sec  (  0.3%)
Initial guess               ....       0.217 sec  (  2.1%)
Orbital Transformation      ....       0.000 sec  (  0.0%)
Orbital Orthonormalization  ....       0.000 sec  (  0.0%)
DIIS solution               ....       0.000 sec  (  0.0%)
SOSCF solution              ....       0.065 sec  (  0.6%)


           ************************************************************
           *        Program running with 8 parallel MPI-processes     *
           *              working on a common directory               *
           ************************************************************


------------------------------------------------------------------------------- 
                              ORCA-MATRIX DRIVEN CI                            
------------------------------------------------------------------------------- 


Wavefunction type
-----------------
Correlation treatment                      ...      CCSD     
Single excitations                         ... ON
Orbital optimization                       ... OFF
Calculation of Z vector                    ... OFF
Calculation of Brueckner orbitals          ... OFF
Perturbative triple excitations            ... ON
Calculation of F12 correction              ... OFF
Frozen core treatment                      ... chemical core (20 el)
Reference Wavefunction                     ... RHF
  Internal Orbitals:    10 ...   28 ( 19 MO's/ 38 electrons)
  Virtual  Orbitals:    29 ...  295 (267 MO's              )
Number of AO's                             ...    296
Number of electrons                        ...     58
Number of correlated electrons             ...     38

Algorithmic settings
--------------------
Integral transformation                    ... All integrals via the RI transformation
K(C) Formation                             ... RI-DLPNO
   PNO-Integral Storage                    ... ON DISK
   PNO occupation number cut-off           ... 1.000e-07
   Singles PNO occupation number cut-off   ... 3.000e-09
   PNO Mulliken prescreening cut-off       ... 1.000e-03
   Domain cut-off (Mulliken population)    ... 1.000e-03
   PNO Normalization                       ...    1
Maximum number of iterations               ...        50
Convergence tolerance (max. residuum)      ... 1.000e-05
Level shift for amplitude update           ... 2.000e-01
Maximum number of DIIS vectors             ...         7
DIIS turned on at iteration                ...         0
Damping before turning on DIIS             ...     0.500
Damping after turning on DIIS              ...     0.000
Pair specific amplitude update             ... OFF
Natural orbital iterations                 ... OFF
Perturbative natural orbital generation    ... OFF
Printlevel                                 ... 2

Singles Fock matrix elements calculated using PNOs.

Memory handling:
----------------
Maximum memory for working arrays          ...   8000 MB
Data storage in matrix containers          ... UNCOMPRESSED
Data type for integral storage             ... DOUBLE
In-Core Storage of quantities:
   Amplitudes+Sigma Vector      ... NO
   J+K operators                ... NO
   DIIS vectors                 ... NO
   3-external integrals         ... NO
   4-external integrals         ... NO

Localization treatment:
-----------------------
Localization option                        ...    6
Localization threshhold                    ... -1.0e+00
Using relative localization threshhold     ... 1.0e-08
Neglect threshold for strong pairs         ... 1.000e-05 Eh
Prescreening threshold for very weak pairs ... 1.000e-07 Eh

Initializing the integral package          ... done
Localizing the valence orbitals
------------------------------------------------------------------------------
                           ORCA ORBITAL LOCALIZATION
------------------------------------------------------------------------------

Input orbitals are from                  ... MeEt_sulfone_a.proc0.gbw
Output orbitals are to                   ... MeEt_sulfone_a.proc0.loc
Max. number of iterations                ... 128
Localizations seeded randomly            ... off
Convergence tolerance                    ... 1.000e-06
Using relative localization threshhold   ... 1.000e-08
Treshold for strong local MOs            ... 9.500e-01
Treshold for bond MOs                    ... 8.500e-01
Operator                                 ... 0
Orbital range for localization           ... 10 to 28
Localization criterion                   ... FOSTER-BOYS (AUGMENTED HESSIAN)
Doing the dipole integrals     ... o.k.
Initial value of the localization sum :   196.705629
ITERATION   0 : L=  237.8888571010 DL=  4.12e+01 (AVERGE_DL)=    0.4907520689 
ITERATION   1 : L=  240.1815082896 DL=  2.29e+00 (AVERGE_DL)=    0.1157899689 
ITERATION   2 : L=  240.2774105900 DL=  9.59e-02 (AVERGE_DL)=    0.0236818953 
ITERATION   3 : L=  240.3098376575 DL=  3.24e-02 (AVERGE_DL)=    0.0137706926 
ITERATION   4 : L=  240.3337105208 DL=  2.39e-02 (AVERGE_DL)=    0.0118155570 
ITERATION   5 : L=  240.3540518573 DL=  2.03e-02 (AVERGE_DL)=    0.0109066578 
ITERATION   6 : L=  240.3718020945 DL=  1.78e-02 (AVERGE_DL)=    0.0101883540 
ITERATION   7 : L=  240.3857033535 DL=  1.39e-02 (AVERGE_DL)=    0.0090163137 
ITERATION   8 : L=  240.3953842256 DL=  9.68e-03 (AVERGE_DL)=    0.0075241801 
ITERATION   9 : L=  240.4015554952 DL=  6.17e-03 (AVERGE_DL)=    0.0060074367 
ITERATION  10 : L=  240.4052699364 DL=  3.71e-03 (AVERGE_DL)=    0.0046606736 
ITERATION  11 : L=  240.4074257480 DL=  2.16e-03 (AVERGE_DL)=    0.0035506458 
ITERATION  12 : L=  240.4086467441 DL=  1.22e-03 (AVERGE_DL)=    0.0026721392 
ITERATION  13 : L=  240.4093256869 DL=  6.79e-04 (AVERGE_DL)=    0.0019925928 
ITERATION  14 : L=  240.4096973908 DL=  3.72e-04 (AVERGE_DL)=    0.0014743497 
ITERATION  15 : L=  240.4098979926 DL=  2.01e-04 (AVERGE_DL)=    0.0010831021 
ITERATION  16 : L=  240.4100047588 DL=  1.07e-04 (AVERGE_DL)=    0.0007901669 
ITERATION  17 : L=  240.4100608059 DL=  5.60e-05 (AVERGE_DL)=    0.0005725036 
ITERATION  18 : L=  240.4100898246 DL=  2.90e-05 (AVERGE_DL)=    0.0004119469 
ITERATION  19 : L=  240.4101046421 DL=  1.48e-05 (AVERGE_DL)=    0.0002943673 
ITERATION  20 : L=  240.4101121041 DL=  7.46e-06 (AVERGE_DL)=    0.0002088951 
ITERATION  21 : L=  240.4101158092 DL=  3.71e-06 (AVERGE_DL)=    0.0001471991 
ITERATION  22 : L=  240.4101176217 DL=  1.81e-06 (AVERGE_DL)=    0.0001029528 
ITERATION  23 : L=  240.4101184973 DL=  8.76e-07 (AVERGE_DL)=    0.0000715584 
LOCALIZATION SUM CONVERGED

------------------------------------------------------
AUGMENTED HESSIAN OPTIMIZATION OF FOSTER-BOYS ORBITALS
------------------------------------------------------

Spin operator:           0
Orbital window:          10 to 28
Number of iterations:    128
Gradient tolerance:      1.000e-06
Number of pairs:         171
Davidson threshold:      2000
Diagonalization method:  LAPACK
Iter:    0   L: 240.4101184973   Grad. norm: 1.625436e-03
   *** Likely close to a maximum now. ***
       Augmented Hessian eigenvalues:  1.56e-06 -2.47e-01 -2.48e-01 -6.32e-01 ... 
Iter:    1   L: 240.4101192769   Grad. norm: 1.142330e-06
Iter:    2   L: 240.4101192769   Grad. norm: 3.747305e-13
LOCALIZATION HAS CONVERGED.

Eigenvalues of the Hessian:
  0 -2.474e-01
  1 -2.477e-01
  2 -6.317e-01
  3 -6.323e-01
  4 -6.720e-01
  5 -6.723e-01
  6 -3.998e+00
  7 -3.999e+00
  8 -4.083e+00
  9 -4.083e+00
    ...


------------------------------------------------------------------------------- 
                    LOCALIZED MOLECULAR ORBITAL COMPOSITIONS                   
------------------------------------------------------------------------------- 

The Mulliken populations for each LMO on each atom are computed
The LMO`s will be ordered according to atom index and type
  (A) Strongly localized MO`s have populations of >=0.950 on one atom
  (B) Two center bond orbitals have populations of >=0.850 on two atoms
  (C) Other MO`s are considered to be `delocalized`

FOUND  -   0 strongly local MO`s
       -  19 two center bond MO`s
       -   0 significantly delocalized MO`s

Bond-like localized orbitals:
MO  28:  13H  -   0.453474  and   4C  -   0.556339
MO  27:  12H  -   0.453474  and   4C  -   0.556339
MO  26:  11H  -   0.438857  and   4C  -   0.568025
MO  25:  10H  -   0.452875  and   1C  -   0.558051
MO  24:   9H  -   0.452875  and   1C  -   0.558051
MO  23:   8H  -   0.450697  and   0C  -   0.573184
MO  22:   7H  -   0.450697  and   0C  -   0.573184
MO  21:   6H  -   0.467384  and   0C  -   0.556141
MO  20:   5O  -   0.573598  and   2S  -   0.439277
MO  19:   5O  -   0.902869  and   2S  -   0.098159
MO  18:   5O  -   0.915601  and   2S  -   0.083324
MO  17:   5O  -   0.914018  and   2S  -   0.084740
MO  16:   4C  -   0.481872  and   2S  -   0.543652
MO  15:   3O  -   0.902869  and   2S  -   0.098159
MO  14:   3O  -   0.915601  and   2S  -   0.083324
MO  13:   3O  -   0.914018  and   2S  -   0.084740
MO  12:   3O  -   0.573598  and   2S  -   0.439277
MO  11:   2S  -   0.548112  and   1C  -   0.480493
MO  10:   1C  -   0.550741  and   0C  -   0.462162
Localized MO's were stored in: MeEt_sulfone_a.proc0.loc

Localizing the core orbitals
------------------------------------------------------------------------------
                           ORCA ORBITAL LOCALIZATION
------------------------------------------------------------------------------

Input orbitals are from                  ... MeEt_sulfone_a.proc0.loc
Output orbitals are to                   ... MeEt_sulfone_a.proc0.loc
Max. number of iterations                ... 128
Localizations seeded randomly            ... off
Convergence tolerance                    ... 1.000e-06
Using relative localization threshhold   ... 1.000e-08
Treshold for strong local MOs            ... 9.500e-01
Treshold for bond MOs                    ... 8.500e-01
Operator                                 ... 0
Orbital range for localization           ... 0 to 9
Localization criterion                   ... FOSTER-BOYS (AUGMENTED HESSIAN)
Doing the dipole integrals     ... o.k.
Initial value of the localization sum :    64.142439
ITERATION   0 : L=   64.2947522346 DL=  1.52e-01 (AVERGE_DL)=    0.0581785135 
ITERATION   1 : L=   64.3476423157 DL=  5.29e-02 (AVERGE_DL)=    0.0342831611 
ITERATION   2 : L=   64.3488386985 DL=  1.20e-03 (AVERGE_DL)=    0.0051561888 
ITERATION   3 : L=   64.3488825200 DL=  4.38e-05 (AVERGE_DL)=    0.0009868196 
ITERATION   4 : L=   64.3488847769 DL=  2.26e-06 (AVERGE_DL)=    0.0002239457 
ITERATION   5 : L=   64.3488850074 DL=  2.31e-07 (AVERGE_DL)=    0.0000715769 
LOCALIZATION SUM CONVERGED

------------------------------------------------------
AUGMENTED HESSIAN OPTIMIZATION OF FOSTER-BOYS ORBITALS
------------------------------------------------------

Spin operator:           0
Orbital window:          0 to 9
Number of iterations:    128
Gradient tolerance:      1.000e-06
Number of pairs:         45
Davidson threshold:      2000
Diagonalization method:  LAPACK
Iter:    0   L: 64.3488850074   Grad. norm: 2.167387e-04
   *** Detected a saddle point. ***
       Augmented Hessian eigenvalues:  7.19e-04  5.75e-05 -1.23e-04 -4.82e-04 ... 
Iter:    1   L: 64.3488997138   Grad. norm: 2.525097e-04
Iter:    2   L: 64.3489356617   Grad. norm: 2.987025e-04
Iter:    3   L: 64.3489806681   Grad. norm: 2.938475e-04
Iter:    4   L: 64.3490204811   Grad. norm: 2.149710e-04
Iter:    5   L: 64.3490424946   Grad. norm: 6.374763e-05
Iter:    6   L: 64.3490441017   Grad. norm: 1.537404e-06
   *** Likely close to a maximum now. ***
       Augmented Hessian eigenvalues:  1.25e-09 -2.83e-04 -5.79e-04 -8.76e-04 ... 
Iter:    7   L: 64.3490441023   Grad. norm: 5.696705e-10
LOCALIZATION HAS CONVERGED.

Eigenvalues of the Hessian:
  0 -2.827e-04
  1 -5.789e-04
  2 -8.756e-04
  3 -1.376e-01
  4 -1.378e-01
  5 -1.380e-01
  6 -4.131e-01
  7 -5.505e-01
  8 -5.511e-01
  9 -5.518e-01
    ...


------------------------------------------------------------------------------- 
                    LOCALIZED MOLECULAR ORBITAL COMPOSITIONS                   
------------------------------------------------------------------------------- 

The Mulliken populations for each LMO on each atom are computed
The LMO`s will be ordered according to atom index and type
  (A) Strongly localized MO`s have populations of >=0.950 on one atom
  (B) Two center bond orbitals have populations of >=0.850 on two atoms
  (C) Other MO`s are considered to be `delocalized`

FOUND  -  10 strongly local MO`s
       -   0 two center bond MO`s
       -   0 significantly delocalized MO`s

Rather strongly localized orbitals:
MO   9:   5O  -   0.999849
MO   8:   4C  -   1.000869
MO   7:   3O  -   0.999849
MO   6:   2S  -   0.999561
MO   5:   2S  -   0.999825
MO   4:   2S  -   1.000100
MO   3:   2S  -   1.000000
MO   2:   2S  -   0.999561
MO   1:   1C  -   1.001062
MO   0:   0C  -   1.001113
Localized MO's were stored in: MeEt_sulfone_a.proc0.loc

Warning: internal orbitals are localized - no re-canonicalization of internal orbitals

--------------------------
CLOSED-SHELL FOCK OPERATOR
--------------------------

RI-JK section for the Fock operator:
  RHF full Fock operator         ... done
  RHF frozen core Fock operator  ... done
Time needed for Fock operator              ...            1.718 sec
Reference energy                           ...   -665.587112068

--------------
DLPNO SETTINGS (2015 fully linear scaling implementation)
--------------

TCutMKN:           1.000e-03
TCutPAO:           1.000e-03
TCutPNO:           1.000e-07
TCutPNOSingles:    3.000e-09
TCutEN:            9.700e-01
TCutPAOExt:        1.000e-01
TCutPairs:         1.000e-05
TCutPre:           1.000e-07
TCutOSV:           1.000e-06
TCutDOij:          1.000e-05
TCutDO:            5.000e-03
TCutC:             1.000e-04
TCutCPAO:          1.000e-03
TCutCMO:           1.000e-03
TScaleDOMP2PreScr: 2.000e+00
TScaleMKNMP2PreScr:1.000e+01
TScalePNOMP2PreScr:1.000e+00
PAO overlap thresh 1.000e-08
Using PNOs for Singles Fock computation
Use new domains
Use fully linear algorithm
TCutTNO:           1.000e-09
TCutMP2Pairs:      1.000e-06
TCutDOStrong:      2.000e-03
TCutMKNStrong:     1.000e-02
TCutMKNWeak:       1.000e-01
TCutDOWeak:        4.000e-03
NTCutTNO:          1

--------------------------
Calculating differential overlap integrals ... ok
--------------------------
ELECTRON PAIR PRESCREENING
--------------------------

Dipole-based pair screening          .... used

   TCutDOij = 1.000000e-05
   TCutPre  = 1.000000e-07
   .... Finished loop over pairs
Total time spent in the prescreening                  ...     0.000 sec
sum of pair energies estimated for screened out pairs ...       0.000000000000 Eh
Thresholds for map construction and integral transformation for crude MP2:
   TCutMKN                    ...     1.0e-02
   TCutDO                     ...     1.0e-02
   TCutPairs                  ...     1.0e-05
   TCutPNO_CrudeMP2           ...     1.0e-07
   TCutPNOSingles_CrudeMP2    ...     3.0e-09
--------------------------------
LOCAL RI TRANSFORMATION (IAVPAO)
--------------------------------

Orbital window:      10 to 28
Number of PAOs:     296
Basis functions:    296 (110 shells)
Aux. functions:     767 (227 shells)

Processing maps (0.0 sec)
Average map sizes:
   Aux shells -> MOs              19.0
   Aux shells -> PAOs            296.0
   MOs        -> AO shells       106.2
   PAOs       -> AO shells       110.0

Calculating integrals (0.7 sec, 32.919 MB)
Sorting integrals (0.1 sec, 32.910 MB)
Total time for the integral transformation: 0.8 sec
--------------------------------
INITIAL GUESS AND PNO GENERATION
--------------------------------

PNO truncation parameters                   .... 
    PAOOverlapThresh   =        1.000e-08

    TCutPairs          =        1.000e-05
    TCutPNO            =        1.000e-07
    TCutPNOSingles     =        3.000e-09
    TCutMP2Pairs       =        1.000e-06
    TCutMKN            =        1.000e-02
    TCutDO             =        1.000e-02

Pair selection                          .... not used
Type of local MP2 treatment                 .... semi-local MP2
Strategy for PNO selection                  .... occupation number selection
Pair density normalization                  .... MP2 norm
Spin component scaling                      .... not used

   .... Finished loop over pairs
Making pair pair interaction lists          ... done

                       ===========================
                        190 OF  190 PAIRS ARE KEPT CCSD PAIRS
                          0 OF  190 PAIRS ARE KEPT MP2 PAIRS FOR (T)
                          0 OF  190 PAIRS ARE SKIPPED
                       ===========================

Total time spent in the initial guess                 ...     1.388 sec
SL-MP2 correlation energy (all non-screened pairs)    ...      -1.153785785527 Eh

Initial PNO correlation energy                        ...      -1.152761978647 Eh
sum of pair energies prescreened and skipped MP2 pairs...       0.000000000000 Eh
sum of pair energies of crude MP2 skipped pairs only  ...       0.000000000000 Eh
sum of MP2 pair energies for pairs that were not kept ...       0.000000000000 Eh
sum of PNO error estimates for the kept pairs         ...      -0.001023806880 Eh
                                                          --------------------
sum of all corrections                                         -0.001023806880
Initial total correlation energy                               -1.153785785527
Thresholds for map construction and integral transformation for fine MP2 and CCSD(T) calculation:
   TCutMKN   ...     1.0e-03
   TCutDO    ...     5.0e-03
   TCutPairs ...     1.0e-05
   TCutCMO   ...     1.0e-03
   TCutCPAO  ...     1.0e-03

Thresholds for map construction and integral transformation for strong Triples:
   TCutMKN   ...     1.0e-02
   TCutDO    ...     1.0e-02
   TCutCMO   ...     1.0e-03
   TCutCPAO  ...     1.0e-03

Thresholds for map construction and integral transformation for weak Triples:
   TCutMKN   ...     1.0e-01
   TCutDO    ...     2.0e-02
   TCutCMO   ...     1.0e-03
   TCutCPAO  ...     1.0e-03

--------------------------------
LOCAL RI TRANSFORMATION (IAVPAO)
--------------------------------

Orbital window:      10 to 28
Number of PAOs:     296
Basis functions:    296 (110 shells)
Aux. functions:     767 (227 shells)

Processing maps (0.0 sec)
Average map sizes:
   Aux shells -> MOs              19.0
   Aux shells -> PAOs            296.0
   MOs        -> AO shells       106.2
   PAOs       -> AO shells       110.0

Calculating integrals (0.7 sec, 32.919 MB)
Sorting integrals (0.1 sec, 32.910 MB)
Total time for the integral transformation: 0.8 sec
--------------------------------
INITIAL GUESS AND PNO GENERATION
--------------------------------

PNO truncation parameters                   .... 
    ScaleTCutPNO       =        1.000e-02
    PAOOverlapThresh   =        1.000e-08

    TCutPairs          =        1.000e-05
    TCutPNO            =        1.000e-07
    TCutPNOSingles     =        3.000e-09
    TCutMP2Pairs       =        1.000e-06
    TCutMKN            =        1.000e-03
    TCutDO             =        5.000e-03

Pair selection                          .... not used
Type of local MP2 treatment                 .... full local PMP2
Strategy for PNO selection                  .... occupation number selection
Pair density normalization                  .... MP2 norm
Spin component scaling                      .... not used

PASS-1: Formation of initial guess LMP2 amplitudes
Initial amplitudes guess done. Entering LMP2 iteration loop:
   Max. no of iterations          ...  50
   Energy convergence tolerance   ...    1.0e-07
   Residual convergence tolerance ...    5.0e-07
   Fock matrix cutoff             ...    1.0e-05 Eh
   DIIS convergence acceleration parameters:
        Max # vectors in DIIS     ... 7
        Start iteration of DIIS   ... 0
        Levelshift                ... 2.000e-01
        Damping factor 1          ... 5.000e-01
        Damping factor 2          ... 1.000e+00
   L-MP2 PNO cut-off              ...   1.0e-09
   L-MP2 PNO cut-off (core)       ...   1.0e-11
                           *** Turning on DIIS ***
LMP2-Iter=   0:  ELMP2= -1.182354990590  DE=   2.8e-02 RMAX=   6.2e-03
LMP2-Iter=   1:  ELMP2= -1.195870386778  DE=   1.4e-02 RMAX=   4.0e-03
LMP2-Iter=   2:  ELMP2= -1.198272983952  DE=   2.4e-03 RMAX=   8.5e-04
LMP2-Iter=   3:  ELMP2= -1.198596272513  DE=   3.2e-04 RMAX=   3.8e-04
LMP2-Iter=   4:  ELMP2= -1.198618533943  DE=   2.2e-05 RMAX=   4.8e-05
LMP2-Iter=   5:  ELMP2= -1.198615501954  DE=   3.0e-06 RMAX=   1.6e-05
LMP2-Iter=   6:  ELMP2= -1.198614883560  DE=   6.2e-07 RMAX=   2.1e-06
LMP2-Iter=   7:  ELMP2= -1.198614809290  DE=   7.4e-08 RMAX=   4.4e-07
LMP2-Iter=   8:  ELMP2= -1.198614821556  DE=   1.2e-08 RMAX=   8.6e-08 => CONVERGED
PASS-2: Formation of Pair natural orbitals
   .... Finished loop over pairs

 PNO Occupation Number Statistics: 
  | Av. % of trace(Dij) retained        ...  99.589944276934
  | sigma^2 in % of trace(Dij) retained ...   2.35e-01
  | Av. % of trace(Di) retained         ...  99.999781391511
  | sigma^2 in % of trace(Di) retained  ...   1.01e-08
 Distributions of % trace(Dij) recovered:
  |       >= 99.9  ...    69 ( 36.3 % of all pairs)
  |   [90.0, 99.0) ...    21 ( 11.1 % of all pairs)
  |   [99.0, 99.9) ...   100 ( 52.6 % of all pairs)
 Distributions of % trace(Di) recovered :
  |       >= 99.9  ...    19 (100.0 % of all I-pairs )

Making pair pair interaction lists          ... done

                       ===========================
                        190 OF  190 PAIRS ARE KEPT
                       ===========================

Total time spent in the initial guess                 ...    10.154 sec
L-MP2 correlation energy (all non-screened pairs)     ...      -1.198614821556 Eh
L-MP2 PNO error correction                            ...      -0.000019790198 Eh
                                                          --------------------
Initial total L-MP2 energy (non-screened pairs)       ...      -1.198634611754 Eh

Initial PNO correlation energy                        ...      -1.197633087459 Eh
sum of pair energies estimated for screened out pairs ...       0.000000000000 Eh
sum of MP2 pair energies for pairs that were not kept ...       0.000000000000 Eh
sum of PNO error estimates for the kept pairs         ...      -0.001001524295 Eh
                                                          --------------------
sum of all corrections                                         -0.001001524295
Initial total correlation energy                               -1.198634611754
Thresholds for map construction and integral transformation for fine MP2 and CCSD(T) calculation:
   TCutMKN   ...     1.0e-03
   TCutDO    ...     5.0e-03
   TCutPairs ...     1.0e-05
   TCutCMO   ...     1.0e-03
   TCutCPAO  ...     1.0e-03

Time for aux screen maps:            0.003
Time for maps after fine MP2:            0.010
-----------------------------
LOCAL RI TRANSFORMATION (IJV)
-----------------------------

Orbital window:      10 to 28
Basis functions:    296 (110 shells)
Aux. functions:     767 (227 shells)

Processing maps (0.0 sec)
Average map sizes:
   Aux shells -> MOs(i)           19.0
   Aux shells -> MOs(j)           19.0
   MOs        -> AO shells       106.2

Calculating integrals (0.7 sec, 2.121 MB)
Sorting integrals (0.0 sec, 2.113 MB)
Total time for the integral transformation: 0.7 sec
--------------------------------
LOCAL RI TRANSFORMATION (VABPAO)
--------------------------------

Number of PAOs:     296
Basis functions:    296 (110 shells)
Aux. functions:     767 (227 shells)

Processing maps (0.0 sec)
Average map sizes:
   Aux shells -> PAOs            296.0
   PAOs       -> AO shells       110.0

Calculating integrals (1.6 sec, 959.252 MB)
Finished


-------------------------------------
Pair Pair Term precalculation with     
RI-(ij|mn) and (im|jn) transformation  
ON THE FLY                             
-------------------------------------

   IBatch   1 (of   1)              ... done (   39.963 sec)
Total EXT                           ...          39.963 sec

---------------------
RI-PNO TRANSFORMATION
---------------------

Total Number of PNOs                   ...  7683
Average number of PNOs per pair        ...    40
Maximal number of PNOs per pair        ...    69
   #pairs with  1 -  5 PNOs   :    0
   #pairs with  6 - 10 PNOs   :    4
   #pairs with 11 - 15 PNOs   :    8
   #pairs with 16 - 20 PNOs   :   12
   #pairs with 21 - 25 PNOs   :   15
   #pairs with 26 - 30 PNOs   :   14
   #pairs with 31 - 35 PNOs   :   22
   #pairs with 36 - 40 PNOs   :   14
   #pairs with 41 - 45 PNOs   :   22
   #pairs with 46 - 50 PNOs   :   21
   #pairs with 51 - 55 PNOs   :   27
   #pairs with 56 - 60 PNOs   :    5
   #pairs with 61 - 65 PNOs   :   19
   #pairs with 66 - 70 PNOs   :    7

Generation of (ij|ab)[P] integrals            ... on
Generation of (ia|bc)[P],(ja|bc)[P] integrals ... on
Storage of 3 and 4 external integrals         ... on
Generation of ALL (ka|bc)[P] integrals        ... on
Keep RI integrals in memory                   ... off

Ibatch:  1 (of  1)
Starting 2-4 index PNO integral generation ... done

Timings:
Total PNO integral transformation time     ...         16.874 sec
Size of the 3-external file                ...       140 MB
Size of the 4-external file                ...       954 MB
Size of the IKJL file                      ...         0 MB
Size of the all 3-external file            ...      1331 MB
Size of the 1-external file                ...         3 MB

Making pair/pair overlap matrices          ... done (    1.856 sec)
Size of the pair overlap file              ... 320 MB
Redoing the guess amplitudes               ... done (    0.003 sec)

-------------------------
FINAL STARTUP INFORMATION
-------------------------

E(0)                                       ...   -665.587112068
E(L-MP2)                                   ...     -1.198634612
E(L-MP2) including corrections             ...     -1.198634612
Initial E(tot)                             ...   -666.785746680
<T|T>                                      ...      0.314520504
Number of pairs included                   ... 190
Total number of pairs                      ... 190

------------------------------------------------
                  RHF COUPLED CLUSTER ITERATIONS
------------------------------------------------

Number of PNO amplitudes to be optimized   ...       356457
Number of non-PNO amplitudes               ...     13544910
Untruncated number of regular amplitudes   ...     13544910

Iter       E(tot)           E(Corr)          Delta-E          Residual     Time
  0   -666.741026089     -1.152912497      0.045722115      0.020804642    8.10
                           *** Turning on DIIS ***
  1   -666.780777065     -1.192663473     -0.039750976      0.006639846    8.35
  2   -666.811446295     -1.223332703     -0.030669230      0.004327118   14.44
  3   -666.817935383     -1.229821791     -0.006489088      0.001844032    8.24
  4   -666.819896816     -1.231783224     -0.001961433      0.001040279    8.21
  5   -666.820553036     -1.232439444     -0.000656220      0.000422077   10.05
  6   -666.820706808     -1.232593215     -0.000153771      0.000154180    8.63
  7   -666.820746298     -1.232632706     -0.000039490      0.000062500    9.85
  8   -666.820748180     -1.232634588     -0.000001882      0.000039861   12.38
  9   -666.820745215     -1.232631622      0.000002966      0.000013755   11.97
 10   -666.820745357     -1.232631764     -0.000000142      0.000006441   12.10
               --- The Coupled-Cluster iterations have converged ---

----------------------
COUPLED CLUSTER ENERGY
----------------------

E(0)                                       ...   -665.587112068
E(CORR)(strong-pairs)                      ...     -1.232631764
E(CORR)(weak-pairs)                        ...     -0.001001524
E(CORR)(corrected)                         ...     -1.233633289
E(TOT)                                     ...   -666.820745357
Singles Norm <S|S>**1/2                    ...      0.090908451  
T1 diagnostic                              ...      0.014747298  

------------------
LARGEST AMPLITUDES
------------------
  11-> 29  11-> 29       0.037127
  16-> 29  16-> 29       0.036227
  11-> 30  11-> 30       0.033919
  20-> 29  20-> 29       0.032916
  12-> 29  12-> 29       0.032916
  23-> 36  23-> 36       0.032263
  22-> 36  22-> 36       0.032263
  21-> 37  21-> 37       0.031407
  15-> 30  -1-> -1       0.028843
  19-> 30  -1-> -1       0.028843
  25-> 29  25-> 29       0.027894
  24-> 29  24-> 29       0.027894
  28-> 29  28-> 29       0.027137
  27-> 29  27-> 29       0.027137
  28-> 37  28-> 37       0.026635
  27-> 37  27-> 37       0.026635


-------------------------------------------
DLPNO BASED TRIPLES CORRECTION
-------------------------------------------

Singles multiplier          ...  1.000000
TCutTNO                     ... 1.000e-09
TCutMP2Pairs                ... 1.000e-06
TCutDOStrong                ... 1.000e-02
TCutMKNStrong               ... 1.000e-02
TCutDOWeak                  ... 2.000e-02
TCutMKNWeak                 ... 1.000e-01

Fragment selection                          .... not used
Number of Triples that are to be computed   ...      1311

 . . . . . . . . .
10% done  
20% done  
30% done  
40% done  
50% done  
60% done  
70% done  
80% done  
90% done               (    102.806 sec)
Triples timings:
Total time for T0               ...   110.015 sec
Total time for Iterative (T)    ...     0.000 sec
Total time of overall (T)       ...   111.207 sec

Triples List generation         ...     0.000 sec
TNO generation                  ...     7.203 sec
Pair density generation         ...     0.004 sec
Look up tables                  ...     0.000 sec
Generating 3-index integrals    ...    61.852 sec
  Make 4-ind.int. from 3-ind.int...    13.478 sec
  Projecting amplitudes (D + S) ...     9.064 sec
  Downprojecting integrals      ...     0.003 sec
  Energy contr. (sum over a,b,c)...     5.321 sec
Fitting ET(->0)                 ...     0.000 sec

Everything after 3-index        ...    40.954 sec

Timing details:
 TNO integrals                  ...    74.196 sec
   Reading 3-index integrals    ...     0.196 sec
   Sorting integrals            ...    11.256 sec
       Sorting integrals 1      ...     0.001 sec
       Sorting integrals 2      ...     4.899 sec
       Sorting integrals 3      ...     0.332 sec
       Sorting integrals 4      ...     0.020 sec
       Sorting integrals 5      ...     0.110 sec
       Sorting integrals 6      ...     5.893 sec
   Calculating local VM**-1/2   ...     0.263 sec
   Orthogonal. integrals        ...     0.569 sec
   Multipl. 3-index integrals   ...    61.912 sec
   All concerning IRIab (w/TNO) ...     6.390 sec

 Calculate W0/W1                ...    13.079 sec
 W 3-ext contribution           ...     6.876 sec
 W 3-int contribution           ...     1.986 sec
 Sorting W                      ...     4.035 sec

 V exchange contribution        ...     1.711 sec

 Timings for Triples without generation
     of 3-index integrals       ...    40.951 sec
       0 weak pairs             ...    40.951 sec
       1 weak pair              ...     0.000 sec
       2 weak pairs             ...     0.000 sec
       3 weak pairs             ...     0.000 sec
  Extra time for extrapolation  ...     0.000 sec

Number of Triples   (0, 1, 2, 3 weak pairs; overall):   1311       0       0       0  (  1311)
Number of Atoms     (0, 1, 2, 3 weak pairs; overall):   13.6     0.0     0.0     0.0  (    14)
Number of PAOs      (0, 1, 2, 3 weak pairs; overall):  290.2     0.0     0.0     0.0  (   296)
Number of AuxFcns   (0, 1, 2, 3 weak pairs; overall):  341.6     0.0     0.0     0.0  (   767)
Number of TNOs      (0, 1, 2, 3 weak pairs         ):   94.6     0.0     0.0     0.0
Aver. Number of NTNO, Atoms, PAOs, AuxFcns / Triples:   1311    94.6    13.6   290.2   341.6

Triples Correction (T)                     ...     -0.051036199
Final correlation energy                   ...     -1.284669488
E(CCSD)                                    ...   -666.820745357
E(CCSD(T))                                 ...   -666.871781556


Maximum memory used throughout the entire calculation: 6833.9 MB


------------------------------------------------------------------------------- 
                                     TIMINGS                                   
------------------------------------------------------------------------------- 


Total execution time                   ...      302.327 sec

Localization of occupied MO's          ...        0.610 sec (  0.2%)
Fock Matrix Formation                  ...        1.718 sec (  0.6%)
Global overlap, Fock, MKN matrices     ...        0.187 sec (  0.1%)
Differential overlap integrals         ...        0.087 sec (  0.0%)
Organizing maps                        ...        0.031 sec (  0.0%)
RI 3-index integral generations        ...        3.768 sec (  1.2%)
RI-PNO integral transformation         ...       60.125 sec ( 19.9%)
Initial Guess                          ...       11.597 sec (  3.8%)
DIIS Solver                            ...        1.319 sec (  0.4%)
State Vector Update                    ...        0.030 sec (  0.0%)
Sigma-vector construction              ...      112.032 sec ( 37.1%)
  <D|H|D>(0-ext)                       ...        2.502 sec (  2.2% of sigma)
  <D|H|D>(2-ext Fock)                  ...        0.013 sec (  0.0% of sigma)
  <D|H|D>(2-ext)                       ...       10.435 sec (  9.3% of sigma)
  <D|H|D>(4-ext)                       ...       13.745 sec ( 12.3% of sigma)
  <D|H|D>(4-ext-corr)                  ...       59.324 sec ( 53.0% of sigma)
  CCSD doubles correction              ...        0.172 sec (  0.2% of sigma)
  <S|H|S>                              ...        0.711 sec (  0.6% of sigma)
  <S|H|D>(1-ext)                       ...        0.291 sec (  0.3% of sigma)
  <D|H|S>(1-ext)                       ...        0.010 sec (  0.0% of sigma)
  <S|H|D>(3-ext)                       ...        0.401 sec (  0.4% of sigma)
  Fock-dressing                        ...       18.026 sec ( 16.1% of sigma)
  Singles amplitudes                   ...        0.408 sec (  0.4% of sigma)
  (ik|jl)-dressing                     ...        1.800 sec (  1.6% of sigma)
  (ij|ab),(ia|jb)-dressing             ...        2.429 sec (  2.2% of sigma)
  Pair energies                        ...        0.007 sec (  0.0% of sigma)
Total Time for computing (T)           ...      111.269 sec ( 36.8% of ALL)


-------------------------   --------------------
FINAL SINGLE POINT ENERGY      -666.871781555761
-------------------------   --------------------


                            ***************************************
                            *     ORCA property calculations      *
                            ***************************************

                                    ---------------------
                                    Active property flags
                                    ---------------------
   (+) Dipole Moment


------------------------------------------------------------------------------
                       ORCA ELECTRIC PROPERTIES CALCULATION
------------------------------------------------------------------------------

Dipole Moment Calculation                       ... on
Quadrupole Moment Calculation                   ... off
Polarizability Calculation                      ... off
GBWName                                         ... MeEt_sulfone_a.gbw
Electron density file                           ... MeEt_sulfone_a.scfp.tmp
The origin for moment calculation is the CENTER OF MASS  = (-0.115151, -0.048341  0.000000)

-------------
DIPOLE MOMENT
-------------
                                X             Y             Z
Electronic contribution:     -5.32645      -1.28532      -0.00000
Nuclear contribution   :      6.67884       2.80387       0.00000
                        -----------------------------------------
Total Dipole Moment    :      1.35240       1.51854      -0.00000
                        -----------------------------------------
Magnitude (a.u.)       :      2.03346
Magnitude (Debye)      :      5.16864



--------------------
Rotational spectrum 
--------------------
 
Rotational constants in cm-1:     0.143865     0.075092     0.074193 
Rotational constants in MHz :  4312.976552  2251.200240  2224.250430 

 Dipole components along the rotational axes: 
x,y,z [a.u.] :    -0.275558    -2.014700    -0.000000 
x,y,z [Debye]:    -0.700414    -5.120961    -0.000000 

 

Timings for individual modules:

Sum of individual times         ...      313.992 sec (=   5.233 min)
GTO integral calculation        ...        0.729 sec (=   0.012 min)   0.2 %
SCF iterations                  ...       10.663 sec (=   0.178 min)   3.4 %
MDCI module                     ...      302.600 sec (=   5.043 min)  96.4 %
                             ****ORCA TERMINATED NORMALLY****
TOTAL RUN TIME: 0 days 0 hours 5 minutes 14 seconds 314 msec
MeEt_sulfone_a.gbw -> /home1/pantazis/klk/xyz_1/Sulphur_compounds/MeEt_sulfone_a.gbw
MeEt_sulfone_a.job -> /home1/pantazis/klk/xyz_1/Sulphur_compounds/MeEt_sulfone_a.job
MeEt_sulfone_a.loc -> /home1/pantazis/klk/xyz_1/Sulphur_compounds/MeEt_sulfone_a.loc
MeEt_sulfone_a.nodes -> /home1/pantazis/klk/xyz_1/Sulphur_compounds/MeEt_sulfone_a.nodes
MeEt_sulfone_a.prop -> /home1/pantazis/klk/xyz_1/Sulphur_compounds/MeEt_sulfone_a.prop
MeEt_sulfone_a_property.txt -> /home1/pantazis/klk/xyz_1/Sulphur_compounds/MeEt_sulfone_a_property.txt
MeEt_sulfone_a.xyz -> /home1/pantazis/klk/xyz_1/Sulphur_compounds/MeEt_sulfone_a.xyz
cp: cannot stat MeEt_sulfone_a.asa.inp: No such file or directory
