! Job execution by suborca V 6.07 on ZEUS !
Job started from zeus1, running /scratch/pantazis/methanol_ecl__26YNyb/orca/orca copied from /opt/orca on zeussn125 in /scratch/pantazis/methanol_ecl__26YNyb
Job execution start: Fri Jun 28 02:01:53 CEST 2019
Shared library path: /scratch/pantazis/methanol_ecl__26YNyb/orca:/opt/openmpi_1.10.2/lib:/opt/intel/mkl/lib/intel64:/opt/intel/lib/intel64:
PBS Job ID is: 158322.icqc
izeussn125
izeussn125
izeussn125
izeussn125
izeussn125
izeussn125
izeussn125
izeussn125

                                 *****************
                                 * O   R   C   A *
                                 *****************

           --- An Ab Initio, DFT and Semiempirical electronic structure package ---

                  #######################################################
                  #                        -***-                        #
                  #          Department of theory and spectroscopy      #
                  #               Directorship: Frank Neese             #
                  #        Max Planck Institute fuer Kohlenforschung    #
                  #                Kaiser Wilhelm Platz 1               #
                  #                 D-45470 Muelheim/Ruhr               #
                  #                      Germany                        #
                  #                                                     #
                  #                  All rights reserved                #
                  #                        -***-                        #
                  #######################################################


                         Program Version 4.1.x  -  STABLE  -
                                (SVN: $Rev: 14094$)
                ($Date: 2019-06-14 15:01:15 +0200 (Fri, 14 Jun 2019) $)

                         (BUILD: $Sun Jun 23 06:18:31 CEST 2019$)


 With contributions from (in alphabetic order):
   Daniel Aravena         : Magnetic Properties
   Michael Atanasov       : Ab Initio Ligand Field Theory
   Alexander A. Auer      : GIAO ZORA
   Ute Becker             : Parallelization
   Giovanni Bistoni       : ED, Open-shell LED
   Martin Brehm           : Molecular dynamics
   Dmytro Bykov           : SCF Hessian
   Vijay G. Chilkuri      : MRCI spin determinant printing
   Dipayan Datta          : RHF DLPNO-CCSD density
   Achintya Kumar Dutta   : EOM-CC, STEOM-CC
   Dmitry Ganyushin       : Spin-Orbit,Spin-Spin,Magnetic field MRCI
   Miquel Garcia          : C-PCM Hessian
   Yang Guo               : DLPNO-NEVPT2, CIM, IAO-localization
   Andreas Hansen         : Spin unrestricted coupled pair/coupled cluster methods
   Benjamin Helmich-Paris : CASSCF linear response (MC-RPA)
   Lee Huntington         : MR-EOM, pCC
   Robert Izsak           : Overlap fitted RIJCOSX, COSX-SCS-MP3, EOM
   Christian Kollmar      : KDIIS, OOCD, Brueckner-CCSD(T), CCSD density
   Simone Kossmann        : Meta GGA functionals, TD-DFT gradient, OOMP2, MP2 Hessian
   Martin Krupicka        : AUTO-CI
   Lucas Lang             : DCDCAS
   Dagmar Lenk            : GEPOL surface, SMD
   Dimitrios Liakos       : Extrapolation schemes; parallel MDCI
   Dimitrios Manganas     : ROCIS; embedding schemes
   Dimitrios Pantazis     : SARC Basis sets
   Taras Petrenko         : DFT Hessian,TD-DFT gradient, ASA, ECA, R-Raman, ABS, FL, XAS/XES, NRVS
   Peter Pinski           : DLPNO-MP2, DLPNO-MP2 Gradient
   Christoph Reimann      : Effective Core Potentials
   Marius Retegan         : Local ZFS, SOC
   Christoph Riplinger    : Optimizer, TS searches, QM/MM, DLPNO-CCSD(T), (RO)-DLPNO pert. Triples
   Tobias Risthaus        : Range-separated hybrids, TD-DFT gradient, RPA, STAB
   Michael Roemelt        : Restricted open shell CIS
   Masaaki Saitow         : Open-shell DLPNO
   Barbara Sandhoefer     : DKH picture change effects
   Avijit Sen             : IP-ROCIS
   Kantharuban Sivalingam : CASSCF convergence, NEVPT2, FIC-MRCI
   Bernardo de Souza      : ESD, SOC TD-DFT
   Georgi Stoychev        : AutoAux, RI-MP2 NMR
   Willem Van den Heuvel  : Paramagnetic NMR
   Boris Wezisla          : Elementary symmetry handling
   Frank Wennmohs         : Technical directorship


 We gratefully acknowledge several colleagues who have allowed us to
 interface, adapt or use parts of their codes:
   Stefan Grimme, W. Hujo, H. Kruse,             : VdW corrections, initial TS optimization,
                  C. Bannwarth                     DFT functionals, gCP, sTDA/sTD-DF
   Ed Valeev                                     : LibInt (2-el integral package), F12 methods
   Garnet Chan, S. Sharma, J. Yang, R. Olivares  : DMRG
   Ulf Ekstrom                                   : XCFun DFT Library
   Mihaly Kallay                                 : mrcc  (arbitrary order and MRCC methods)
   Andreas Klamt, Michael Diedenhofen            : otool_cosmo (COSMO solvation model)
   Jiri Pittner, Ondrej Demel                    : Mk-CCSD
   Frank Weinhold                                : gennbo (NPA and NBO analysis)
   Christopher J. Cramer and Donald G. Truhlar   : smd solvation model
   Lars Goerigk                                  : TD-DFT with DH, B97 family of functionals
   V. Asgeirsson, H. Jonsson                     : NEB implementation
   FAccTs GmbH                                   : IRC, NEB, NEB-TS, Multilevel


 Your calculation uses the libint2 library for the computation of 2-el integrals
 For citations please refer to: http://libint.valeyev.net

 This ORCA versions uses:
   CBLAS   interface :  Fast vector & matrix operations
   LAPACKE interface :  Fast linear algebra routines
   SCALAPACK package :  Parallel linear algebra routines




***************************************
The coordinates will be read from file: methanol_ecl.xyz
***************************************


----- Orbital basis set information -----
Your calculation utilizes the basis: cc-pVTZ 
       H, B-Ne : Obtained from the ccRepo (grant-hill.group.shef.ac.uk/ccrepo) Feb. 2017
                 T. H. Dunning, Jr., J. Chem. Phys. 90, 1007 (1989)
            He : Obtained from the ccRepo (grant-hill.group.shef.ac.uk/ccrepo) Feb. 2017
                 D. E. Woon, T. H. Dunning, Jr., J. Chem. Phys. 100, 2975 (1994)
  Li-Be, Na-Mg : Obtained from the ccRepo (grant-hill.group.shef.ac.uk/ccrepo) Feb. 2017
                 B. P. Prascher, D. E. Woon, K. A. Peterson, T. H. Dunning, Jr., A. K. Wilson, Theor. Chem. Acc. 128, 69 (2011)
         Al-Ar : Obtained from the ccRepo (grant-hill.group.shef.ac.uk/ccrepo) Feb. 2017
                 D. E. Woon, T. H. Dunning, Jr., J. Chem. Phys. 98, 1358 (1993)
            Ca : Obtained from the Peterson Research Group Website (tyr0.chem.wsu.edu/~kipeters) Feb. 2017
                 J. Koput, K. A. Peterson, J. Phys. Chem. 106, 9595 (2002)
         Sc-Zn : Obtained from the ccRepo (grant-hill.group.shef.ac.uk/ccrepo) Feb. 2017
                 N. B. Balabanov, K. A. Peterson, J. Chem. Phys. 123, 064107 (2005)
                 N. B. Balabanov, K. A. Peterson, J. Chem. Phys. 125, 074110 (2006)
         Ga-Kr : Obtained from the ccRepo (grant-hill.group.shef.ac.uk/ccrepo) Feb. 2017
                 A. K. Wilson, D. E. Woon, K. A. Peterson, T. H. Dunning, Jr., J. Chem. Phys. 110, 7667 (1999)
             Y : Obtained from the ccRepo (grant-hill.group.shef.ac.uk/ccrepo) Feb. 2017
                 K. A. Peterson, D. Figgen, M. Dolg, H. Stoll, J. Chem. Phys. 126, 124101 (2007)
        Ag, Au : Obtained from the Peterson Research Group Website (tyr0.chem.wsu.edu/~kipeters) Feb. 2017
                 K. A. Peterson, C. Puzzarini, Theor. Chem. Acc. 114, 283 (2005)

----- AuxC basis set information -----
Your calculation utilizes the auxiliary basis: cc-pVTZ/C 
  Obtained from the EMSL Basis Set Exchange (bse.pnl.gov) Feb. 2017
  H-He, B-F, Al-Ar, Ga-Kr : F. Weigend, A. Kohn, C. Hattig, J. Chem. Phys. 116, 3175 (2002)
             Li-Be, Na-Mg : C. Haettig, Phys. Chem. Chem. Phys. 7, 59 (2005)
                       Ne : C. Haettig, Phys. Chem. Chem. Phys. 7, 59 (2005)
                            F. Weigend, A. Kohn, C. Hattig, J. Chem. Phys. 116, 3175 (2002)
                    Sc-Zn : J. G. Hill, J. A. Platts, J. Chem. Phys. 128, 044104 (2008)

----- AuxJK basis set information -----
Your calculation utilizes the auxiliary basis: cc-pVTZ/JK 
  H, B-F, Al-Cl, Ga-Br : Obtained from the TURBOMOLE 7.0 basis set library

================================================================================
                                        WARNINGS
                       Please study these warnings very carefully!
================================================================================


WARNING: MDCI localization with Augmented Hessian Foster-Boys
  ===> : Switching off randomization!

WARNING: Post HF methods need fully converged wavefunctions
  ===> : Setting SCFConvForced true
         You can overwrite this default with %scf ConvForced false 


INFO   : the flag for use of LIBINT has been found!

================================================================================
                                       INPUT FILE
================================================================================
NAME = methanol_ecl.inp
|  1> ! RHF DLPNO-CCSD(T) cc-pVTZ RIJK cc-pVTZ/JK cc-pVTZ/C
|  2> ! KDIIS SOSCF TightSCF TightPNO
|  3> 
|  4> %pal nprocs 8 end
|  5> 
|  6> %maxcore 8000
|  7> 
|  8> %scf maxiter 300
|  9>      shift shift 0.2 erroff 0.1 end
| 10> end
| 11> 
| 12> * xyzfile 0 1 methanol_ecl.xyz 
| 13> 
| 14> 
| 15>                          ****END OF INPUT****
================================================================================

                       ****************************
                       * Single Point Calculation *
                       ****************************

---------------------------------
CARTESIAN COORDINATES (ANGSTROEM)
---------------------------------
  C      0.662360    0.018660   -0.000000
  O     -0.740050   -0.127530    0.000000
  H     -1.118430    0.735130   -0.000010
  H      1.079990   -0.466700   -0.913120
  H      0.904680    1.106510   -0.000010
  H      1.080000   -0.466660    0.913140

----------------------------
CARTESIAN COORDINATES (A.U.)
----------------------------
  NO LB      ZA    FRAG     MASS         X           Y           Z
   0 C     6.0000    0    12.011    1.251679    0.035262   -0.000000
   1 O     8.0000    0    15.999   -1.398492   -0.240997    0.000000
   2 H     1.0000    0     1.008   -2.113526    1.389194   -0.000019
   3 H     1.0000    0     1.008    2.040885   -0.881935   -1.725547
   4 H     1.0000    0     1.008    1.709597    2.091001   -0.000019
   5 H     1.0000    0     1.008    2.040904   -0.881860    1.725585

--------------------------------
INTERNAL COORDINATES (ANGSTROEM)
--------------------------------
 C      0   0   0     0.000000000000     0.00000000     0.00000000
 O      1   0   0     1.410008980184     0.00000000     0.00000000
 H      2   1   0     0.941994532946   107.73208927     0.00000000
 H      1   2   3     1.115247632098   109.10696233   240.05459336
 H      1   2   3     1.114511823625   108.50882380     0.00000000
 H      1   2   3     1.115250344811   109.10768030   119.94431552

---------------------------
INTERNAL COORDINATES (A.U.)
---------------------------
 C      0   0   0     0.000000000000     0.00000000     0.00000000
 O      1   0   0     2.664530818918     0.00000000     0.00000000
 H      2   1   0     1.780111686919   107.73208927     0.00000000
 H      1   2   3     2.107512596169   109.10696233   240.05459336
 H      1   2   3     2.106122119668   108.50882380     0.00000000
 H      1   2   3     2.107517722453   109.10768030   119.94431552

---------------------
BASIS SET INFORMATION
---------------------
There are 3 groups of distinct atoms

 Group   1 Type C   : 18s5p2d1f contracted to 4s3p2d1f pattern {8811/311/11/1}
 Group   2 Type O   : 18s5p2d1f contracted to 4s3p2d1f pattern {8811/311/11/1}
 Group   3 Type H   : 5s2p1d contracted to 3s2p1d pattern {311/11/1}

Atom   0C    basis set group =>   1
Atom   1O    basis set group =>   2
Atom   2H    basis set group =>   3
Atom   3H    basis set group =>   3
Atom   4H    basis set group =>   3
Atom   5H    basis set group =>   3
-------------------------------
AUXILIARY BASIS SET INFORMATION
-------------------------------
There are 3 groups of distinct atoms

 Group   1 Type C   : 8s6p5d3f1g contracted to 8s6p5d3f1g pattern {11111111/111111/11111/111/1}
 Group   2 Type O   : 8s6p5d3f1g contracted to 8s6p5d3f1g pattern {11111111/111111/11111/111/1}
 Group   3 Type H   : 4s3p2d1f contracted to 4s3p2d1f pattern {1111/111/11/1}

Atom   0C    basis set group =>   1
Atom   1O    basis set group =>   2
Atom   2H    basis set group =>   3
Atom   3H    basis set group =>   3
Atom   4H    basis set group =>   3
Atom   5H    basis set group =>   3
-------------------------------
AUXILIARY BASIS SET INFORMATION
-------------------------------
There are 3 groups of distinct atoms

 Group   1 Type C   : 10s7p5d2f1g contracted to 10s7p5d2f1g pattern {1111111111/1111111/11111/11/1}
 Group   2 Type O   : 10s7p5d2f1g contracted to 10s7p5d2f1g pattern {1111111111/1111111/11111/11/1}
 Group   3 Type H   : 4s3p2d1f contracted to 4s3p2d1f pattern {1111/111/11/1}

Atom   0C    basis set group =>   1
Atom   1O    basis set group =>   2
Atom   2H    basis set group =>   3
Atom   3H    basis set group =>   3
Atom   4H    basis set group =>   3
Atom   5H    basis set group =>   3


           ************************************************************
           *        Program running with 8 parallel MPI-processes     *
           *              working on a common directory               *
           ************************************************************
------------------------------------------------------------------------------
                           ORCA GTO INTEGRAL CALCULATION
                           -- RI-GTO INTEGRALS CHOSEN --
------------------------------------------------------------------------------

                         BASIS SET STATISTICS AND STARTUP INFO

Gaussian basis set:
 # of primitive gaussian shells          ...   84
 # of primitive gaussian functions       ...  164
 # of contracted shells                  ...   44
 # of contracted basis functions         ...  116
 Highest angular momentum                ...    3
 Maximum contraction depth               ...    8
Auxiliary gaussian basis set:
 # of primitive gaussian shells          ...   90
 # of primitive gaussian functions       ...  278
 # of contracted shells                  ...   90
 # of contracted aux-basis functions     ...  278
 Highest angular momentum                ...    4
 Maximum contraction depth               ...    1
Ratio of auxiliary to basis functions    ...  2.40
Integral package used                  ... LIBINT
 One Electron integrals                  ... done
 Ordering auxiliary basis shells         ... done
 Integral threshhold             Thresh  ...  2.500e-11
 Primitive cut-off               TCut    ...  2.500e-12
 Pre-screening matrix                    ... done
 Shell pair data                         ... 
 Ordering of the shell pairs             ... done (   0.000 sec) 990 of 990 pairs
 Determination of significant pairs      ... done (   0.000 sec)
 Creation of shell pair data             ... done (   0.000 sec)
 Storage of shell pair data              ... done (   0.001 sec)
 Shell pair data done in (   0.001 sec)
 Computing two index integrals           ... done
 Cholesky decomposition of the V-matrix  ... done


Timings:
 Total evaluation time                   ...   0.212 sec (  0.004 min)
 One electron matrix time                ...   0.012 sec (  0.000 min) =  5.6%
 Schwartz matrix evaluation time         ...   0.143 sec (  0.002 min) = 67.7%
 Two index repulsion integral time       ...   0.004 sec (  0.000 min) =  1.7%
 Cholesky decomposition of V             ...   0.026 sec (  0.000 min) = 12.2%
 Three index repulsion integral time     ...   0.000 sec (  0.000 min) =  0.0%



           ************************************************************
           *        Program running with 8 parallel MPI-processes     *
           *              working on a common directory               *
           ************************************************************
-------------------------------------------------------------------------------
                                 ORCA SCF
-------------------------------------------------------------------------------

------------
SCF SETTINGS
------------
Hamiltonian:
 Ab initio Hamiltonian  Method          .... Hartree-Fock(GTOs)
 RI-approximation to the Coulomb term is turned on
   Number of auxiliary basis functions  .... 278
   RI-JK (J+K treated both via RI)      .... on


General Settings:
 Integral files         IntName         .... methanol_ecl
 Hartree-Fock type      HFTyp           .... RHF
 Total Charge           Charge          ....    0
 Multiplicity           Mult            ....    1
 Number of Electrons    NEL             ....   18
 Basis Dimension        Dim             ....  116
 Nuclear Repulsion      ENuc            ....     40.3888017267 Eh

Convergence Acceleration:
 DIIS                   CNVDIIS         .... off
 Newton-Raphson         CNVNR           .... off
 SOSCF                  CNVSOSCF        .... on
   Start iteration      SOSCFMaxIt      ....   150
   Startup grad/error   SOSCFStart      ....  0.003300
 Level Shifting         CNVShift        .... on
   Level shift para.    LevelShift      ....    0.2000
   Turn off err/grad.   ShiftErr        ....    0.1000
 Zerner damping         CNVZerner       .... off
 Static damping         CNVDamp         .... off
 Fernandez-Rico         CNVRico         .... off

SCF Procedure:
 Maximum # iterations   MaxIter         ....   300
 SCF integral mode      SCFMode         .... Direct
   Integral package                     .... LIBINT
 Reset frequency        DirectResetFreq ....    20
 Integral Threshold     Thresh          ....  2.500e-11 Eh
 Primitive CutOff       TCut            ....  2.500e-12 Eh

Convergence Tolerance:
 Convergence Check Mode ConvCheckMode   .... Total+1el-Energy
 Convergence forced     ConvForced      .... 1
 Energy Change          TolE            ....  1.000e-08 Eh
 1-El. energy change                    ....  1.000e-05 Eh
 Orbital Gradient       TolG            ....  1.000e-05
 Orbital Rotation angle TolX            ....  1.000e-05


Diagonalization of the overlap matrix:
Smallest eigenvalue                        ... 1.910e-03
Time for diagonalization                   ...    0.005 sec
Threshold for overlap eigenvalues          ... 1.000e-08
Number of eigenvalues below threshold      ... 0
Time for construction of square roots      ...    0.006 sec
Total time needed                          ...    0.011 sec

-------------------
DFT GRID GENERATION
-------------------

General Integration Accuracy     IntAcc      ...  4.340
Radial Grid Type                 RadialGrid  ... Gauss-Chebyshev
Angular Grid (max. acc.)         AngularGrid ... Lebedev-110
Angular grid pruning method      GridPruning ... 3 (G Style)
Weight generation scheme         WeightScheme... Becke
Basis function cutoff            BFCut       ...    1.0000e-11
Integration weight cutoff        WCut        ...    1.0000e-14
Grids for H and He will be reduced by one unit

# of grid points (after initial pruning)     ...   6548 (   0.0 sec)
# of grid points (after weights+screening)   ...   6376 (   0.0 sec)
nearest neighbour list constructed           ...    0.0 sec
Grid point re-assignment to atoms done       ...    0.0 sec
Grid point division into batches done        ...    0.0 sec
Reduced shell lists constructed in    0.0 sec

Total number of grid points                  ...     6376
Total number of batches                      ...      103
Average number of points per batch           ...       61
Average number of grid points per atom       ...     1063
Average number of shells per batch           ...    38.36 (87.18%)
Average number of basis functions per batch  ...   100.36 (86.51%)
Average number of large shells per batch     ...    37.43 (97.58%)
Average number of large basis fcns per batch ...    98.14 (97.79%)
Average number of aux-shells per batch       ...    38.36 (42.62%)
Average number of aux functions per batch    ...   100.36 (36.10%)
Maximum spatial batch extension              ...  13.03, 13.63, 25.60 au
Average spatial batch extension              ...   0.28,  0.29,  0.40 au

Time for grid setup =    0.024 sec

------------------------------
INITIAL GUESS: MODEL POTENTIAL
------------------------------
Loading Hartree-Fock densities                     ... done
Calculating cut-offs                               ... done
Setting up the integral package                    ... done
Initializing the effective Hamiltonian             ... done
Starting the Coulomb interaction                   ... done (   0.0 sec)
Reading the grid                                   ... done
Mapping shells                                     ... done
Starting the XC term evaluation                    ... done (   0.0 sec)
Transforming the Hamiltonian                       ... done (   0.0 sec)
Diagonalizing the Hamiltonian                      ... done (   0.0 sec)
Back transforming the eigenvectors                 ... done (   0.0 sec)
Now organizing SCF variables                       ... done
                      ------------------
                      INITIAL GUESS DONE (   0.2 sec)
                      ------------------
--------------
SCF ITERATIONS
--------------
ITER       Energy         Delta-E        Max-DP      RMS-DP      [F,P]   Gradient Norm
                             ****Turning on KDIIS(Cayley)****
  0   -114.9624808668   0.000000000000 0.01194062  0.00043106  0.1455491   0.165303793
  1   -114.9990648179  -0.036583951109 0.01783675  0.00044212  0.1345627   0.141651901
  2   -115.0278580588  -0.028793240917 0.02921061  0.00073924  0.1079519   0.115068680
  3   -115.0628991650  -0.035041106178 0.04421386  0.00118302  0.0652873   0.070633046
                      *** Initiating the SOSCF procedure ***
                           *** Shutting down KDIIS ***
                      *** Re-Reading the Fockian *** 
                      *** Removing any level shift *** 
ITER      Energy       Delta-E        Grad      Rot      Max-DP    RMS-DP
  4   -115.08543117  -0.0225320013  0.003127  0.003127  0.003381  0.000133
  5   -115.08556387  -0.0001327014  0.000564  0.000796  0.001002  0.000035
  6   -115.08556728  -0.0000034129  0.000186  0.000347  0.000585  0.000022
  7   -115.08556793  -0.0000006487  0.000037  0.000024  0.000114  0.000003
  8   -115.08556797  -0.0000000358  0.000019  0.000015  0.000026  0.000001
  9   -115.08556797  -0.0000000055  0.000005  0.000004  0.000007  0.000000
                  ***Gradient check signals convergence***
              ***Rediagonalizing the Fockian in SOSCF/NRSCF***

               *****************************************************
               *                     SUCCESS                       *
               *           SCF CONVERGED AFTER  10 CYCLES          *
               *****************************************************


----------------
TOTAL SCF ENERGY
----------------

Total Energy       :         -115.08556797 Eh           -3131.63751 eV

Components:
Nuclear Repulsion  :           40.38880173 Eh            1099.03517 eV
Electronic Energy  :         -155.47436970 Eh           -4230.67268 eV
One Electron Energy:         -237.05821349 Eh           -6450.68194 eV
Two Electron Energy:           81.58384380 Eh            2220.00925 eV

Virial components:
Potential Energy   :         -230.00075509 Eh           -6258.63873 eV
Kinetic Energy     :          114.91518711 Eh            3127.00122 eV
Virial Ratio       :            2.00148267


---------------
SCF CONVERGENCE
---------------

  Last Energy change         ...   -4.9445e-10  Tolerance :   1.0000e-08
  Last MAX-Density change    ...    3.0806e-06  Tolerance :   1.0000e-07
  Last RMS-Density change    ...    1.1346e-07  Tolerance :   5.0000e-09
  Last Orbital Gradient      ...    9.8184e-07  Tolerance :   1.0000e-05
  Last Orbital Rotation      ...    1.4083e-06  Tolerance :   1.0000e-05

             **** THE GBW FILE WAS UPDATED (methanol_ecl.gbw) ****
             **** DENSITY FILE WAS UPDATED (methanol_ecl.scfp.tmp) ****
             **** ENERGY FILE WAS UPDATED (methanol_ecl.en.tmp) ****
----------------
ORBITAL ENERGIES
----------------

  NO   OCC          E(Eh)            E(eV) 
   0   2.0000     -20.547901      -559.1368 
   1   2.0000     -11.277429      -306.8745 
   2   2.0000      -1.361440       -37.0467 
   3   2.0000      -0.915710       -24.9177 
   4   2.0000      -0.691859       -18.8264 
   5   2.0000      -0.616329       -16.7712 
   6   2.0000      -0.593857       -16.1597 
   7   2.0000      -0.496709       -13.5161 
   8   2.0000      -0.444021       -12.0824 
   9   0.0000       0.136034         3.7017 
  10   0.0000       0.178490         4.8569 
  11   0.0000       0.221824         6.0361 
  12   0.0000       0.223799         6.0899 
  13   0.0000       0.292472         7.9586 
  14   0.0000       0.387172        10.5355 
  15   0.0000       0.387885        10.5549 
  16   0.0000       0.560635        15.2556 
  17   0.0000       0.581270        15.8172 
  18   0.0000       0.616435        16.7740 
  19   0.0000       0.617784        16.8108 
  20   0.0000       0.655472        17.8363 
  21   0.0000       0.666301        18.1310 
  22   0.0000       0.710744        19.3403 
  23   0.0000       0.726174        19.7602 
  24   0.0000       0.803646        21.8683 
  25   0.0000       0.848097        23.0779 
  26   0.0000       0.867138        23.5960 
  27   0.0000       0.946433        25.7537 
  28   0.0000       1.052521        28.6406 
  29   0.0000       1.129829        30.7442 
  30   0.0000       1.162606        31.6361 
  31   0.0000       1.171318        31.8732 
  32   0.0000       1.237579        33.6762 
  33   0.0000       1.265267        34.4297 
  34   0.0000       1.286529        35.0082 
  35   0.0000       1.314940        35.7813 
  36   0.0000       1.458865        39.6977 
  37   0.0000       1.503563        40.9140 
  38   0.0000       1.507229        41.0138 
  39   0.0000       1.522518        41.4298 
  40   0.0000       1.572656        42.7941 
  41   0.0000       1.644865        44.7591 
  42   0.0000       1.742889        47.4264 
  43   0.0000       2.107297        57.3425 
  44   0.0000       2.166289        58.9477 
  45   0.0000       2.167570        58.9826 
  46   0.0000       2.228638        60.6443 
  47   0.0000       2.372630        64.5625 
  48   0.0000       2.522623        68.6441 
  49   0.0000       2.542020        69.1719 
  50   0.0000       2.553254        69.4776 
  51   0.0000       2.815348        76.6095 
  52   0.0000       2.973831        80.9220 
  53   0.0000       3.007240        81.8312 
  54   0.0000       3.051063        83.0236 
  55   0.0000       3.096050        84.2478 
  56   0.0000       3.182021        86.5872 
  57   0.0000       3.191899        86.8560 
  58   0.0000       3.286216        89.4225 
  59   0.0000       3.297708        89.7352 
  60   0.0000       3.334772        90.7438 
  61   0.0000       3.353023        91.2404 
  62   0.0000       3.481068        94.7247 
  63   0.0000       3.506320        95.4118 
  64   0.0000       3.568054        97.0917 
  65   0.0000       3.593969        97.7969 
  66   0.0000       3.679407       100.1217 
  67   0.0000       3.682336       100.2015 
  68   0.0000       3.705273       100.8256 
  69   0.0000       3.726072       101.3916 
  70   0.0000       3.787731       103.0694 
  71   0.0000       3.863933       105.1430 
  72   0.0000       3.927935       106.8845 
  73   0.0000       4.027487       109.5935 
  74   0.0000       4.068613       110.7126 
  75   0.0000       4.091297       111.3299 
  76   0.0000       4.098081       111.5145 
  77   0.0000       4.148941       112.8984 
  78   0.0000       4.234687       115.2317 
  79   0.0000       4.303486       117.1038 
  80   0.0000       4.314791       117.4114 
  81   0.0000       4.339847       118.0932 
  82   0.0000       4.365529       118.7921 
  83   0.0000       4.406089       119.8958 
  84   0.0000       4.490653       122.1969 
  85   0.0000       4.568183       124.3066 
  86   0.0000       4.696619       127.8015 
  87   0.0000       4.724458       128.5590 
  88   0.0000       4.970207       135.2462 
  89   0.0000       5.003869       136.1622 
  90   0.0000       5.022806       136.6775 
  91   0.0000       5.188933       141.1980 
  92   0.0000       5.228064       142.2628 
  93   0.0000       5.259465       143.1173 
  94   0.0000       5.325213       144.9064 
  95   0.0000       5.446264       148.2004 
  96   0.0000       5.472661       148.9187 
  97   0.0000       5.482153       149.1770 
  98   0.0000       5.570171       151.5720 
  99   0.0000       5.786050       157.4464 
 100   0.0000       6.037736       164.2951 
 101   0.0000       6.088164       165.6674 
 102   0.0000       6.186486       168.3428 
 103   0.0000       6.243149       169.8847 
 104   0.0000       6.398164       174.1029 
 105   0.0000       6.648752       180.9217 
 106   0.0000       7.047335       191.7677 
 107   0.0000       7.159162       194.8107 
 108   0.0000       7.202516       195.9904 
 109   0.0000       7.281624       198.1431 
 110   0.0000       7.355861       200.1632 
 111   0.0000       7.519762       204.6231 
 112   0.0000       7.611911       207.1306 
 113   0.0000       7.931312       215.8220 
 114   0.0000      12.248827       333.3075 
 115   0.0000      13.437613       365.6560 

                    ********************************
                    * MULLIKEN POPULATION ANALYSIS *
                    ********************************

-----------------------
MULLIKEN ATOMIC CHARGES
-----------------------
   0 C :    0.008736
   1 O :   -0.400437
   2 H :    0.219907
   3 H :    0.063311
   4 H :    0.045175
   5 H :    0.063308
Sum of atomic charges:    0.0000000

--------------------------------
MULLIKEN REDUCED ORBITAL CHARGES
--------------------------------
  0 C s       :     3.208644  s :     3.208644
      pz      :     0.999882  p :     2.668918
      px      :     0.688846
      py      :     0.980191
      dz2     :     0.016782  d :     0.104131
      dxz     :     0.029222
      dyz     :     0.007649
      dx2y2   :     0.027051
      dxy     :     0.023427
      f0      :     0.001154  f :     0.009572
      f+1     :     0.001424
      f-1     :     0.001140
      f+2     :     0.001824
      f-2     :     0.000064
      f+3     :     0.001762
      f-3     :     0.002203
  1 O s       :     3.738634  s :     3.738634
      pz      :     1.886574  p :     4.633570
      px      :     1.291033
      py      :     1.455964
      dz2     :     0.004117  d :     0.026764
      dxz     :     0.002879
      dyz     :     0.001527
      dx2y2   :     0.011879
      dxy     :     0.006362
      f0      :     0.000165  f :     0.001469
      f+1     :     0.000403
      f-1     :     0.000235
      f+2     :     0.000092
      f-2     :     0.000009
      f+3     :     0.000446
      f-3     :     0.000119
  2 H s       :     0.686188  s :     0.686188
      pz      :     0.038615  p :     0.086322
      px      :     0.021531
      py      :     0.026176
      dz2     :     0.000505  d :     0.007583
      dxz     :     0.000582
      dyz     :     0.002800
      dx2y2   :     0.002157
      dxy     :     0.001539
  3 H s       :     0.911470  s :     0.911470
      pz      :     0.010759  p :     0.023204
      px      :     0.003408
      py      :     0.009036
      dz2     :     0.000604  d :     0.002015
      dxz     :     0.000518
      dyz     :     0.000516
      dx2y2   :     0.000200
      dxy     :     0.000177
  4 H s       :     0.925400  s :     0.925400
      pz      :     0.008984  p :     0.027410
      px      :     0.005462
      py      :     0.012964
      dz2     :     0.000261  d :     0.002014
      dxz     :     0.000022
      dyz     :     0.000562
      dx2y2   :     0.000610
      dxy     :     0.000560
  5 H s       :     0.911473  s :     0.911473
      pz      :     0.010759  p :     0.023204
      px      :     0.003408
      py      :     0.009036
      dz2     :     0.000604  d :     0.002015
      dxz     :     0.000518
      dyz     :     0.000516
      dx2y2   :     0.000200
      dxy     :     0.000177


                     *******************************
                     * LOEWDIN POPULATION ANALYSIS *
                     *******************************

----------------------
LOEWDIN ATOMIC CHARGES
----------------------
   0 C :    0.005313
   1 O :    0.331919
   2 H :   -0.225237
   3 H :   -0.035794
   4 H :   -0.040408
   5 H :   -0.035793

-------------------------------
LOEWDIN REDUCED ORBITAL CHARGES
-------------------------------
  0 C s       :     2.699798  s :     2.699798
      pz      :     1.012695  p :     2.767269
      px      :     0.753453
      py      :     1.001120
      dz2     :     0.066962  d :     0.461249
      dxz     :     0.142138
      dyz     :     0.036434
      dx2y2   :     0.115122
      dxy     :     0.100594
      f0      :     0.007498  f :     0.066372
      f+1     :     0.008964
      f-1     :     0.005128
      f+2     :     0.011499
      f-2     :     0.004658
      f+3     :     0.011815
      f-3     :     0.016811
  1 O s       :     3.194802  s :     3.194802
      pz      :     1.680446  p :     4.399035
      px      :     1.261827
      py      :     1.456761
      dz2     :     0.007563  d :     0.069505
      dxz     :     0.012373
      dyz     :     0.000517
      dx2y2   :     0.026226
      dxy     :     0.022826
      f0      :     0.000594  f :     0.004739
      f+1     :     0.000429
      f-1     :     0.000311
      f+2     :     0.000561
      f-2     :     0.000124
      f+3     :     0.001372
      f-3     :     0.001348
  2 H s       :     0.727391  s :     0.727391
      pz      :     0.125419  p :     0.388332
      px      :     0.086992
      py      :     0.175921
      dz2     :     0.008232  d :     0.109515
      dxz     :     0.007103
      dyz     :     0.035395
      dx2y2   :     0.032989
      dxy     :     0.025797
  3 H s       :     0.874369  s :     0.874369
      pz      :     0.063346  p :     0.136803
      px      :     0.030339
      py      :     0.043118
      dz2     :     0.007984  d :     0.024622
      dxz     :     0.005432
      dyz     :     0.006066
      dx2y2   :     0.002959
      dxy     :     0.002181
  4 H s       :     0.877854  s :     0.877854
      pz      :     0.037210  p :     0.137705
      px      :     0.027530
      py      :     0.072964
      dz2     :     0.002356  d :     0.024849
      dxz     :     0.000247
      dyz     :     0.008517
      dx2y2   :     0.006931
      dxy     :     0.006798
  5 H s       :     0.874369  s :     0.874369
      pz      :     0.063347  p :     0.136802
      px      :     0.030339
      py      :     0.043116
      dz2     :     0.007984  d :     0.024622
      dxz     :     0.005432
      dyz     :     0.006066
      dx2y2   :     0.002959
      dxy     :     0.002181


                      *****************************
                      * MAYER POPULATION ANALYSIS *
                      *****************************

  NA   - Mulliken gross atomic population
  ZA   - Total nuclear charge
  QA   - Mulliken gross atomic charge
  VA   - Mayer's total valence
  BVA  - Mayer's bonded valence
  FA   - Mayer's free valence

  ATOM       NA         ZA         QA         VA         BVA        FA
  0 C      5.9913     6.0000     0.0087     3.9288     3.9288     0.0000
  1 O      8.4004     8.0000    -0.4004     1.9771     1.9771     0.0000
  2 H      0.7801     1.0000     0.2199     1.0253     1.0253     0.0000
  3 H      0.9367     1.0000     0.0633     0.9663     0.9663    -0.0000
  4 H      0.9548     1.0000     0.0452     0.9780     0.9780     0.0000
  5 H      0.9367     1.0000     0.0633     0.9663     0.9663     0.0000

  Mayer bond orders larger than 0.1
B(  0-C ,  1-O ) :   0.9794 B(  0-C ,  3-H ) :   0.9708 B(  0-C ,  4-H ) :   0.9907 
B(  0-C ,  5-H ) :   0.9708 B(  1-O ,  2-H ) :   1.0065 

-------
TIMINGS
-------

Total SCF time: 0 days 0 hours 0 min 2 sec 

Total time                  ....       2.126 sec
Sum of individual times     ....       1.975 sec  ( 92.9%)

Fock matrix formation       ....       1.795 sec  ( 84.4%)
Diagonalization             ....       0.008 sec  (  0.4%)
Density matrix formation    ....       0.002 sec  (  0.1%)
Population analysis         ....       0.006 sec  (  0.3%)
Initial guess               ....       0.132 sec  (  6.2%)
Orbital Transformation      ....       0.000 sec  (  0.0%)
Orbital Orthonormalization  ....       0.000 sec  (  0.0%)
DIIS solution               ....       0.000 sec  (  0.0%)
SOSCF solution              ....       0.007 sec  (  0.3%)


           ************************************************************
           *        Program running with 8 parallel MPI-processes     *
           *              working on a common directory               *
           ************************************************************


------------------------------------------------------------------------------- 
                              ORCA-MATRIX DRIVEN CI                            
------------------------------------------------------------------------------- 


Wavefunction type
-----------------
Correlation treatment                      ...      CCSD     
Single excitations                         ... ON
Orbital optimization                       ... OFF
Calculation of Z vector                    ... OFF
Calculation of Brueckner orbitals          ... OFF
Perturbative triple excitations            ... ON
Calculation of F12 correction              ... OFF
Frozen core treatment                      ... chemical core (4 el)
Reference Wavefunction                     ... RHF
  Internal Orbitals:     2 ...    8 (  7 MO's/ 14 electrons)
  Virtual  Orbitals:     9 ...  115 (107 MO's              )
Number of AO's                             ...    116
Number of electrons                        ...     18
Number of correlated electrons             ...     14

Algorithmic settings
--------------------
Integral transformation                    ... All integrals via the RI transformation
K(C) Formation                             ... RI-DLPNO
   PNO-Integral Storage                    ... ON DISK
   PNO occupation number cut-off           ... 1.000e-07
   Singles PNO occupation number cut-off   ... 3.000e-09
   PNO Mulliken prescreening cut-off       ... 1.000e-03
   Domain cut-off (Mulliken population)    ... 1.000e-03
   PNO Normalization                       ...    1
Maximum number of iterations               ...        50
Convergence tolerance (max. residuum)      ... 1.000e-05
Level shift for amplitude update           ... 2.000e-01
Maximum number of DIIS vectors             ...         7
DIIS turned on at iteration                ...         0
Damping before turning on DIIS             ...     0.500
Damping after turning on DIIS              ...     0.000
Pair specific amplitude update             ... OFF
Natural orbital iterations                 ... OFF
Perturbative natural orbital generation    ... OFF
Printlevel                                 ... 2

Singles Fock matrix elements calculated using PNOs.

Memory handling:
----------------
Maximum memory for working arrays          ...   8000 MB
Data storage in matrix containers          ... UNCOMPRESSED
Data type for integral storage             ... DOUBLE
In-Core Storage of quantities:
   Amplitudes+Sigma Vector      ... NO
   J+K operators                ... NO
   DIIS vectors                 ... NO
   3-external integrals         ... NO
   4-external integrals         ... NO

Localization treatment:
-----------------------
Localization option                        ...    6
Localization threshhold                    ... -1.0e+00
Using relative localization threshhold     ... 1.0e-08
Neglect threshold for strong pairs         ... 1.000e-05 Eh
Prescreening threshold for very weak pairs ... 1.000e-07 Eh

Initializing the integral package          ... done
Localizing the valence orbitals
------------------------------------------------------------------------------
                           ORCA ORBITAL LOCALIZATION
------------------------------------------------------------------------------

Input orbitals are from                  ... methanol_ecl.proc0.gbw
Output orbitals are to                   ... methanol_ecl.proc0.loc
Max. number of iterations                ... 128
Localizations seeded randomly            ... off
Convergence tolerance                    ... 1.000e-06
Using relative localization threshhold   ... 1.000e-08
Treshold for strong local MOs            ... 9.500e-01
Treshold for bond MOs                    ... 8.500e-01
Operator                                 ... 0
Orbital range for localization           ... 2 to 8
Localization criterion                   ... FOSTER-BOYS (AUGMENTED HESSIAN)
Doing the dipole integrals     ... o.k.
Initial value of the localization sum :    14.057609
ITERATION   0 : L=   23.4280012397 DL=  9.37e+00 (AVERGE_DL)=    0.6679888708 
ITERATION   1 : L=   23.8358715372 DL=  4.08e-01 (AVERGE_DL)=    0.1393642534 
ITERATION   2 : L=   23.8423759717 DL=  6.50e-03 (AVERGE_DL)=    0.0175992891 
ITERATION   3 : L=   23.8433689646 DL=  9.93e-04 (AVERGE_DL)=    0.0068764361 
ITERATION   4 : L=   23.8434988356 DL=  1.30e-04 (AVERGE_DL)=    0.0024868324 
ITERATION   5 : L=   23.8435155587 DL=  1.67e-05 (AVERGE_DL)=    0.0008923780 
ITERATION   6 : L=   23.8435175886 DL=  2.03e-06 (AVERGE_DL)=    0.0003109009 
ITERATION   7 : L=   23.8435178286 DL=  2.40e-07 (AVERGE_DL)=    0.0001069091 
LOCALIZATION SUM CONVERGED

------------------------------------------------------
AUGMENTED HESSIAN OPTIMIZATION OF FOSTER-BOYS ORBITALS
------------------------------------------------------

Spin operator:           0
Orbital window:          2 to 8
Number of iterations:    128
Gradient tolerance:      1.000e-06
Number of pairs:         21
Davidson threshold:      2000
Diagonalization method:  LAPACK
Iter:    0   L: 23.8435178286   Grad. norm: 3.287793e-04
   *** Likely close to a maximum now. ***
       Augmented Hessian eigenvalues:  6.35e-08 -1.17e+00 -3.36e+00 -5.01e+00 ... 
Iter:    1   L: 23.8435178603   Grad. norm: 3.687222e-08
LOCALIZATION HAS CONVERGED.

Eigenvalues of the Hessian:
  0 -1.169e+00
  1 -3.358e+00
  2 -5.008e+00
  3 -5.340e+00
  4 -7.353e+00
  5 -1.017e+01
  6 -1.844e+01
  7 -2.182e+01
  8 -2.207e+01
  9 -2.460e+01
    ...


------------------------------------------------------------------------------- 
                    LOCALIZED MOLECULAR ORBITAL COMPOSITIONS                   
------------------------------------------------------------------------------- 

The Mulliken populations for each LMO on each atom are computed
The LMO`s will be ordered according to atom index and type
  (A) Strongly localized MO`s have populations of >=0.950 on one atom
  (B) Two center bond orbitals have populations of >=0.850 on two atoms
  (C) Other MO`s are considered to be `delocalized`

FOUND  -   2 strongly local MO`s
       -   5 two center bond MO`s
       -   0 significantly delocalized MO`s

Rather strongly localized orbitals:
MO   3:   1O  -   0.982134
MO   2:   1O  -   0.982134
Bond-like localized orbitals:
MO   8:   5H  -   0.494295  and   0C  -   0.536658
MO   7:   4H  -   0.501287  and   0C  -   0.536470
MO   6:   3H  -   0.494293  and   0C  -   0.536660
MO   5:   2H  -   0.388527  and   1O  -   0.620273
MO   4:   1O  -   0.659141  and   0C  -   0.353877
Localized MO's were stored in: methanol_ecl.proc0.loc

Localizing the core orbitals
------------------------------------------------------------------------------
                           ORCA ORBITAL LOCALIZATION
------------------------------------------------------------------------------

Input orbitals are from                  ... methanol_ecl.proc0.loc
Output orbitals are to                   ... methanol_ecl.proc0.loc
Max. number of iterations                ... 128
Localizations seeded randomly            ... off
Convergence tolerance                    ... 1.000e-06
Using relative localization threshhold   ... 1.000e-08
Treshold for strong local MOs            ... 9.500e-01
Treshold for bond MOs                    ... 8.500e-01
Operator                                 ... 0
Orbital range for localization           ... 0 to 1
Localization criterion                   ... FOSTER-BOYS (AUGMENTED HESSIAN)
Doing the dipole integrals     ... o.k.
Initial value of the localization sum :     3.580725
ITERATION   0 : L=    3.5807255143 DL=  1.01e-06 (AVERGE_DL)=    0.0010028456 
ITERATION   1 : L=    3.5807255143 DL=  0.00e+00 (AVERGE_DL)=    0.0000000000 
LOCALIZATION SUM CONVERGED

------------------------------------------------------
AUGMENTED HESSIAN OPTIMIZATION OF FOSTER-BOYS ORBITALS
------------------------------------------------------

Spin operator:           0
Orbital window:          0 to 1
Number of iterations:    128
Gradient tolerance:      1.000e-06
Number of pairs:         1
Davidson threshold:      2000
Diagonalization method:  LAPACK
Iter:    0   L: 3.5807255143   Grad. norm: 1.109244e-17
   *** Likely close to a maximum now. ***
       Augmented Hessian eigenvalues:  4.33e-36 -2.84e+01
Iter:    1   L: 3.5807255143   Grad. norm: 6.514436e-24
LOCALIZATION HAS CONVERGED.

Eigenvalues of the Hessian:
  0 -2.839e+01


------------------------------------------------------------------------------- 
                    LOCALIZED MOLECULAR ORBITAL COMPOSITIONS                   
------------------------------------------------------------------------------- 

The Mulliken populations for each LMO on each atom are computed
The LMO`s will be ordered according to atom index and type
  (A) Strongly localized MO`s have populations of >=0.950 on one atom
  (B) Two center bond orbitals have populations of >=0.850 on two atoms
  (C) Other MO`s are considered to be `delocalized`

FOUND  -   2 strongly local MO`s
       -   0 two center bond MO`s
       -   0 significantly delocalized MO`s

Rather strongly localized orbitals:
MO   1:   1O  -   0.999787
MO   0:   0C  -   1.000595
Localized MO's were stored in: methanol_ecl.proc0.loc

Warning: internal orbitals are localized - no re-canonicalization of internal orbitals

--------------------------
CLOSED-SHELL FOCK OPERATOR
--------------------------

RI-JK section for the Fock operator:
  RHF full Fock operator         ... done
  RHF frozen core Fock operator  ... done
Time needed for Fock operator              ...            0.414 sec
Reference energy                           ...   -115.085567971

--------------
DLPNO SETTINGS (2015 fully linear scaling implementation)
--------------

TCutMKN:           1.000e-03
TCutPAO:           1.000e-03
TCutPNO:           1.000e-07
TCutPNOSingles:    3.000e-09
TCutEN:            9.700e-01
TCutPAOExt:        1.000e-01
TCutPairs:         1.000e-05
TCutPre:           1.000e-07
TCutOSV:           1.000e-06
TCutDOij:          1.000e-05
TCutDO:            5.000e-03
TCutC:             1.000e-04
TCutCPAO:          1.000e-03
TCutCMO:           1.000e-03
TScaleDOMP2PreScr: 2.000e+00
TScaleMKNMP2PreScr:1.000e+01
TScalePNOMP2PreScr:1.000e+00
PAO overlap thresh 1.000e-08
Using PNOs for Singles Fock computation
Use new domains
Use fully linear algorithm
TCutTNO:           1.000e-09
TCutMP2Pairs:      1.000e-06
TCutDOStrong:      2.000e-03
TCutMKNStrong:     1.000e-02
TCutMKNWeak:       1.000e-01
TCutDOWeak:        4.000e-03
NTCutTNO:          1

--------------------------
Calculating differential overlap integrals ... ok
--------------------------
ELECTRON PAIR PRESCREENING
--------------------------

Dipole-based pair screening          .... used

   TCutDOij = 1.000000e-05
   TCutPre  = 1.000000e-07
   .... Finished loop over pairs
Total time spent in the prescreening                  ...     0.000 sec
sum of pair energies estimated for screened out pairs ...       0.000000000000 Eh
Thresholds for map construction and integral transformation for crude MP2:
   TCutMKN                    ...     1.0e-02
   TCutDO                     ...     1.0e-02
   TCutPairs                  ...     1.0e-05
   TCutPNO_CrudeMP2           ...     1.0e-07
   TCutPNOSingles_CrudeMP2    ...     3.0e-09
--------------------------------
LOCAL RI TRANSFORMATION (IAVPAO)
--------------------------------

Orbital window:       2 to 8
Number of PAOs:     116
Basis functions:    116 (44 shells)
Aux. functions:     282 (86 shells)

Processing maps (0.0 sec)
Average map sizes:
   Aux shells -> MOs               7.0
   Aux shells -> PAOs            116.0
   MOs        -> AO shells        44.0
   PAOs       -> AO shells        44.0

Calculating integrals (0.2 sec, 1.750 MB)
Sorting integrals (0.0 sec, 1.747 MB)
Total time for the integral transformation: 0.2 sec
--------------------------------
INITIAL GUESS AND PNO GENERATION
--------------------------------

PNO truncation parameters                   .... 
    PAOOverlapThresh   =        1.000e-08

    TCutPairs          =        1.000e-05
    TCutPNO            =        1.000e-07
    TCutPNOSingles     =        3.000e-09
    TCutMP2Pairs       =        1.000e-06
    TCutMKN            =        1.000e-02
    TCutDO             =        1.000e-02

Pair selection                          .... not used
Type of local MP2 treatment                 .... semi-local MP2
Strategy for PNO selection                  .... occupation number selection
Pair density normalization                  .... MP2 norm
Spin component scaling                      .... not used

   .... Finished loop over pairs
Making pair pair interaction lists          ... done

                       ===========================
                         28 OF   28 PAIRS ARE KEPT CCSD PAIRS
                          0 OF   28 PAIRS ARE KEPT MP2 PAIRS FOR (T)
                          0 OF   28 PAIRS ARE SKIPPED
                       ===========================

Total time spent in the initial guess                 ...     0.043 sec
SL-MP2 correlation energy (all non-screened pairs)    ...      -0.415775721912 Eh

Initial PNO correlation energy                        ...      -0.415614051548 Eh
sum of pair energies prescreened and skipped MP2 pairs...       0.000000000000 Eh
sum of pair energies of crude MP2 skipped pairs only  ...       0.000000000000 Eh
sum of MP2 pair energies for pairs that were not kept ...       0.000000000000 Eh
sum of PNO error estimates for the kept pairs         ...      -0.000161670364 Eh
                                                          --------------------
sum of all corrections                                         -0.000161670364
Initial total correlation energy                               -0.415775721912
Thresholds for map construction and integral transformation for fine MP2 and CCSD(T) calculation:
   TCutMKN   ...     1.0e-03
   TCutDO    ...     5.0e-03
   TCutPairs ...     1.0e-05
   TCutCMO   ...     1.0e-03
   TCutCPAO  ...     1.0e-03

Thresholds for map construction and integral transformation for strong Triples:
   TCutMKN   ...     1.0e-02
   TCutDO    ...     1.0e-02
   TCutCMO   ...     1.0e-03
   TCutCPAO  ...     1.0e-03

Thresholds for map construction and integral transformation for weak Triples:
   TCutMKN   ...     1.0e-01
   TCutDO    ...     2.0e-02
   TCutCMO   ...     1.0e-03
   TCutCPAO  ...     1.0e-03

--------------------------------
LOCAL RI TRANSFORMATION (IAVPAO)
--------------------------------

Orbital window:       2 to 8
Number of PAOs:     116
Basis functions:    116 (44 shells)
Aux. functions:     282 (86 shells)

Processing maps (0.0 sec)
Average map sizes:
   Aux shells -> MOs               7.0
   Aux shells -> PAOs            116.0
   MOs        -> AO shells        44.0
   PAOs       -> AO shells        44.0

Calculating integrals (0.2 sec, 1.750 MB)
Sorting integrals (0.0 sec, 1.747 MB)
Total time for the integral transformation: 0.3 sec
--------------------------------
INITIAL GUESS AND PNO GENERATION
--------------------------------

PNO truncation parameters                   .... 
    ScaleTCutPNO       =        1.000e-02
    PAOOverlapThresh   =        1.000e-08

    TCutPairs          =        1.000e-05
    TCutPNO            =        1.000e-07
    TCutPNOSingles     =        3.000e-09
    TCutMP2Pairs       =        1.000e-06
    TCutMKN            =        1.000e-03
    TCutDO             =        5.000e-03

Pair selection                          .... not used
Type of local MP2 treatment                 .... full local PMP2
Strategy for PNO selection                  .... occupation number selection
Pair density normalization                  .... MP2 norm
Spin component scaling                      .... not used

PASS-1: Formation of initial guess LMP2 amplitudes
Initial amplitudes guess done. Entering LMP2 iteration loop:
   Max. no of iterations          ...  50
   Energy convergence tolerance   ...    1.0e-07
   Residual convergence tolerance ...    5.0e-07
   Fock matrix cutoff             ...    1.0e-05 Eh
   DIIS convergence acceleration parameters:
        Max # vectors in DIIS     ... 7
        Start iteration of DIIS   ... 0
        Levelshift                ... 2.000e-01
        Damping factor 1          ... 5.000e-01
        Damping factor 2          ... 1.000e+00
   L-MP2 PNO cut-off              ...   1.0e-09
   L-MP2 PNO cut-off (core)       ...   1.0e-11
                           *** Turning on DIIS ***
LMP2-Iter=   0:  ELMP2= -0.423095501223  DE=   7.3e-03 RMAX=   6.2e-03
LMP2-Iter=   1:  ELMP2= -0.426978544596  DE=   3.9e-03 RMAX=   2.8e-03
LMP2-Iter=   2:  ELMP2= -0.427539251489  DE=   5.6e-04 RMAX=   4.4e-04
LMP2-Iter=   3:  ELMP2= -0.427608637364  DE=   6.9e-05 RMAX=   1.6e-04
LMP2-Iter=   4:  ELMP2= -0.427613386818  DE=   4.7e-06 RMAX=   2.5e-05
LMP2-Iter=   5:  ELMP2= -0.427613183210  DE=   2.0e-07 RMAX=   8.3e-06
LMP2-Iter=   6:  ELMP2= -0.427613115099  DE=   6.8e-08 RMAX=   1.0e-06
LMP2-Iter=   7:  ELMP2= -0.427613105926  DE=   9.2e-09 RMAX=   3.1e-07
LMP2-Iter=   8:  ELMP2= -0.427613110075  DE=   4.1e-09 RMAX=   2.9e-08 => CONVERGED
PASS-2: Formation of Pair natural orbitals
   .... Finished loop over pairs

 PNO Occupation Number Statistics: 
  | Av. % of trace(Dij) retained        ...  99.955734071804
  | sigma^2 in % of trace(Dij) retained ...   2.80e-03
  | Av. % of trace(Di) retained         ...  99.999804026516
  | sigma^2 in % of trace(Di) retained  ...   2.87e-09
 Distributions of % trace(Dij) recovered:
  |       >= 99.9  ...    21 ( 75.0 % of all pairs)
  |   [99.0, 99.9) ...     7 ( 25.0 % of all pairs)
 Distributions of % trace(Di) recovered :
  |       >= 99.9  ...     7 (100.0 % of all I-pairs )

Making pair pair interaction lists          ... done

                       ===========================
                         28 OF   28 PAIRS ARE KEPT
                       ===========================

Total time spent in the initial guess                 ...     0.409 sec
L-MP2 correlation energy (all non-screened pairs)     ...      -0.427613110075 Eh
L-MP2 PNO error correction                            ...      -0.000001138125 Eh
                                                          --------------------
Initial total L-MP2 energy (non-screened pairs)       ...      -0.427614248200 Eh

Initial PNO correlation energy                        ...      -0.427460025812 Eh
sum of pair energies estimated for screened out pairs ...       0.000000000000 Eh
sum of MP2 pair energies for pairs that were not kept ...       0.000000000000 Eh
sum of PNO error estimates for the kept pairs         ...      -0.000154222388 Eh
                                                          --------------------
sum of all corrections                                         -0.000154222388
Initial total correlation energy                               -0.427614248200
Thresholds for map construction and integral transformation for fine MP2 and CCSD(T) calculation:
   TCutMKN   ...     1.0e-03
   TCutDO    ...     5.0e-03
   TCutPairs ...     1.0e-05
   TCutCMO   ...     1.0e-03
   TCutCPAO  ...     1.0e-03

Time for aux screen maps:            0.000
Time for maps after fine MP2:            0.001
-----------------------------
LOCAL RI TRANSFORMATION (IJV)
-----------------------------

Orbital window:       2 to 8
Basis functions:    116 (44 shells)
Aux. functions:     282 (86 shells)

Processing maps (0.0 sec)
Average map sizes:
   Aux shells -> MOs(i)            7.0
   Aux shells -> MOs(j)            7.0
   MOs        -> AO shells        44.0

Calculating integrals (0.2 sec, 0.109 MB)
Sorting integrals (0.0 sec, 0.106 MB)
Total time for the integral transformation: 0.3 sec
--------------------------------
LOCAL RI TRANSFORMATION (VABPAO)
--------------------------------

Number of PAOs:     116
Basis functions:    116 (44 shells)
Aux. functions:     282 (86 shells)

Processing maps (0.0 sec)
Average map sizes:
   Aux shells -> PAOs            116.0
   PAOs       -> AO shells        44.0

Calculating integrals (0.3 sec, 54.724 MB)
Finished


-------------------------------------
Pair Pair Term precalculation with     
RI-(ij|mn) and (im|jn) transformation  
ON THE FLY                             
-------------------------------------

   IBatch   1 (of   1)              ... done (    0.916 sec)
Total EXT                           ...           0.916 sec

---------------------
RI-PNO TRANSFORMATION
---------------------

Total Number of PNOs                   ...  1469
Average number of PNOs per pair        ...    52
Maximal number of PNOs per pair        ...    62
   #pairs with  1 -  5 PNOs   :    0
   #pairs with  6 - 10 PNOs   :    0
   #pairs with 11 - 15 PNOs   :    0
   #pairs with 16 - 20 PNOs   :    0
   #pairs with 21 - 25 PNOs   :    0
   #pairs with 26 - 30 PNOs   :    0
   #pairs with 31 - 35 PNOs   :    0
   #pairs with 36 - 40 PNOs   :    0
   #pairs with 41 - 45 PNOs   :    3
   #pairs with 46 - 50 PNOs   :   13
   #pairs with 51 - 55 PNOs   :    2
   #pairs with 56 - 60 PNOs   :    7
   #pairs with 61 - 65 PNOs   :    3

Generation of (ij|ab)[P] integrals            ... on
Generation of (ia|bc)[P],(ja|bc)[P] integrals ... on
Storage of 3 and 4 external integrals         ... on
Generation of ALL (ka|bc)[P] integrals        ... on
Keep RI integrals in memory                   ... off

Ibatch:  1 (of  1)
Starting 2-4 index PNO integral generation ... done

Timings:
Total PNO integral transformation time     ...          1.204 sec
Size of the 3-external file                ...        32 MB
Size of the 4-external file                ...       224 MB
Size of the IKJL file                      ...         0 MB
Size of the all 3-external file            ...       113 MB
Size of the 1-external file                ...         0 MB

Making pair/pair overlap matrices          ... done (    0.031 sec)
Size of the pair overlap file              ... 15 MB
Redoing the guess amplitudes               ... done (    0.001 sec)

-------------------------
FINAL STARTUP INFORMATION
-------------------------

E(0)                                       ...   -115.085567971
E(L-MP2)                                   ...     -0.427614248
E(L-MP2) including corrections             ...     -0.427614248
Initial E(tot)                             ...   -115.513182219
<T|T>                                      ...      0.102618163
Number of pairs included                   ... 28
Total number of pairs                      ... 28

------------------------------------------------
                  RHF COUPLED CLUSTER ITERATIONS
------------------------------------------------

Number of PNO amplitudes to be optimized   ...        77917
Number of non-PNO amplitudes               ...       320572
Untruncated number of regular amplitudes   ...       320572

Iter       E(tot)           E(Corr)          Delta-E          Residual     Time
  0   -115.501309145     -0.415586952      0.012027296      0.017440204    1.68
                           *** Turning on DIIS ***
  1   -115.518790930     -0.433068737     -0.017481785      0.006109834    1.69
  2   -115.529720485     -0.443998292     -0.010929555      0.001956065    1.68
  3   -115.531813522     -0.446091329     -0.002093037      0.000881781    1.68
  4   -115.532286517     -0.446564323     -0.000472994      0.000299415    1.69
  5   -115.532370789     -0.446648596     -0.000084272      0.000153969    1.68
  6   -115.532389162     -0.446666969     -0.000018373      0.000076416    1.68
  7   -115.532391942     -0.446669749     -0.000002780      0.000031755    1.68
  8   -115.532392376     -0.446670182     -0.000000434      0.000009793    1.69
               --- The Coupled-Cluster iterations have converged ---

----------------------
COUPLED CLUSTER ENERGY
----------------------

E(0)                                       ...   -115.085567971
E(CORR)(strong-pairs)                      ...     -0.446670182
E(CORR)(weak-pairs)                        ...     -0.000154222
E(CORR)(corrected)                         ...     -0.446824405
E(TOT)                                     ...   -115.532392376
Singles Norm <S|S>**1/2                    ...      0.031234847  
T1 diagnostic                              ...      0.008347864  

------------------
LARGEST AMPLITUDES
------------------
   6-> 15   6-> 15       0.035550
   8-> 15   8-> 15       0.035549
   7-> 15   7-> 15       0.031608
   7->  9   7->  9       0.029067
   8->  9   8->  9       0.028549
   6->  9   6->  9       0.028549
   7-> 15   7->  9       0.026236
   7->  9   7-> 15       0.026236
   6->  9   6-> 15       0.026023
   6-> 15   6->  9       0.026023
   8->  9   8-> 15       0.026023
   8-> 15   8->  9       0.026023
   5->  9   5->  9       0.025696
   7-> 13   7-> 13       0.024695
   5-> 11   5-> 11       0.024367
   4->  9   4->  9       0.023691


-------------------------------------------
DLPNO BASED TRIPLES CORRECTION
-------------------------------------------

Singles multiplier          ...  1.000000
TCutTNO                     ... 1.000e-09
TCutMP2Pairs                ... 1.000e-06
TCutDOStrong                ... 1.000e-02
TCutMKNStrong               ... 1.000e-02
TCutDOWeak                  ... 2.000e-02
TCutMKNWeak                 ... 1.000e-01

Fragment selection                          .... not used
Number of Triples that are to be computed   ...        77

 . . . . . . . . .
10% done  
20% done  
30% done  
40% done  
50% done  
60% done  
70% done  
80% done  
90% done               (      1.942 sec)
Triples timings:
Total time for T0               ...     2.018 sec
Total time for Iterative (T)    ...     0.000 sec
Total time of overall (T)       ...     2.018 sec

Triples List generation         ...     0.000 sec
TNO generation                  ...     0.074 sec
Pair density generation         ...     0.001 sec
Look up tables                  ...     0.000 sec
Generating 3-index integrals    ...     0.516 sec
  Make 4-ind.int. from 3-ind.int...     0.560 sec
  Projecting amplitudes (D + S) ...     0.054 sec
  Downprojecting integrals      ...     0.000 sec
  Energy contr. (sum over a,b,c)...     0.222 sec
Fitting ET(->0)                 ...     0.000 sec

Everything after 3-index        ...     1.426 sec

Timing details:
 TNO integrals                  ...     1.041 sec
   Reading 3-index integrals    ...     0.010 sec
   Sorting integrals            ...     0.345 sec
       Sorting integrals 1      ...     0.000 sec
       Sorting integrals 2      ...     0.027 sec
       Sorting integrals 3      ...     0.011 sec
       Sorting integrals 4      ...     0.000 sec
       Sorting integrals 5      ...     0.001 sec
       Sorting integrals 6      ...     0.306 sec
   Calculating local VM**-1/2   ...     0.005 sec
   Orthogonal. integrals        ...     0.015 sec
   Multipl. 3-index integrals   ...     0.666 sec
   All concerning IRIab (w/TNO) ...     0.216 sec

 Calculate W0/W1                ...     0.589 sec
 W 3-ext contribution           ...     0.323 sec
 W 3-int contribution           ...     0.071 sec
 Sorting W                      ...     0.185 sec

 V exchange contribution        ...     0.079 sec

 Timings for Triples without generation
     of 3-index integrals       ...     1.426 sec
       0 weak pairs             ...     1.426 sec
       1 weak pair              ...     0.000 sec
       2 weak pairs             ...     0.000 sec
       3 weak pairs             ...     0.000 sec
  Extra time for extrapolation  ...     0.000 sec

Number of Triples   (0, 1, 2, 3 weak pairs; overall):     77       0       0       0  (    77)
Number of Atoms     (0, 1, 2, 3 weak pairs; overall):    6.0     0.0     0.0     0.0  (     6)
Number of PAOs      (0, 1, 2, 3 weak pairs; overall):  116.0     0.0     0.0     0.0  (   116)
Number of AuxFcns   (0, 1, 2, 3 weak pairs; overall):  219.7     0.0     0.0     0.0  (   282)
Number of TNOs      (0, 1, 2, 3 weak pairs         ):   88.7     0.0     0.0     0.0
Aver. Number of NTNO, Atoms, PAOs, AuxFcns / Triples:     77    88.7     6.0   116.0   219.7

Triples Correction (T)                     ...     -0.014249327
Final correlation energy                   ...     -0.461073732
E(CCSD)                                    ...   -115.532392376
E(CCSD(T))                                 ...   -115.546641703


Maximum memory used throughout the entire calculation: 417.0 MB


------------------------------------------------------------------------------- 
                                     TIMINGS                                   
------------------------------------------------------------------------------- 


Total execution time                   ...       22.058 sec

Localization of occupied MO's          ...        0.387 sec (  1.8%)
Fock Matrix Formation                  ...        0.414 sec (  1.9%)
Global overlap, Fock, MKN matrices     ...        0.155 sec (  0.7%)
Differential overlap integrals         ...        0.019 sec (  0.1%)
Organizing maps                        ...        0.004 sec (  0.0%)
RI 3-index integral generations        ...        1.040 sec (  4.7%)
RI-PNO integral transformation         ...        2.209 sec ( 10.0%)
Initial Guess                          ...        0.461 sec (  2.1%)
DIIS Solver                            ...        0.170 sec (  0.8%)
State Vector Update                    ...        0.005 sec (  0.0%)
Sigma-vector construction              ...       15.107 sec ( 68.5%)
  <D|H|D>(0-ext)                       ...        0.088 sec (  0.6% of sigma)
  <D|H|D>(2-ext Fock)                  ...        0.002 sec (  0.0% of sigma)
  <D|H|D>(2-ext)                       ...        0.286 sec (  1.9% of sigma)
  <D|H|D>(4-ext)                       ...        2.984 sec ( 19.8% of sigma)
  <D|H|D>(4-ext-corr)                  ...        9.885 sec ( 65.4% of sigma)
  CCSD doubles correction              ...        0.013 sec (  0.1% of sigma)
  <S|H|S>                              ...        0.036 sec (  0.2% of sigma)
  <S|H|D>(1-ext)                       ...        0.018 sec (  0.1% of sigma)
  <S|H|D>(3-ext)                       ...        0.088 sec (  0.6% of sigma)
  Fock-dressing                        ...        0.822 sec (  5.4% of sigma)
  Singles amplitudes                   ...        0.024 sec (  0.2% of sigma)
  (ik|jl)-dressing                     ...        0.065 sec (  0.4% of sigma)
  (ij|ab),(ia|jb)-dressing             ...        0.192 sec (  1.3% of sigma)
  Pair energies                        ...        0.002 sec (  0.0% of sigma)
Total Time for computing (T)           ...        2.021 sec (  9.2% of ALL)


-------------------------   --------------------
FINAL SINGLE POINT ENERGY      -115.546641703119
-------------------------   --------------------


                            ***************************************
                            *     ORCA property calculations      *
                            ***************************************

                                    ---------------------
                                    Active property flags
                                    ---------------------
   (+) Dipole Moment


------------------------------------------------------------------------------
                       ORCA ELECTRIC PROPERTIES CALCULATION
------------------------------------------------------------------------------

Dipole Moment Calculation                       ... on
Quadrupole Moment Calculation                   ... off
Polarizability Calculation                      ... off
GBWName                                         ... methanol_ecl.gbw
Electron density file                           ... methanol_ecl.scfp.tmp
The origin for moment calculation is the CENTER OF MASS  = (-0.113391, -0.053119 -0.000000)

-------------
DIPOLE MOMENT
-------------
                                X             Y             Z
Electronic contribution:     -1.71361      -0.32706      -0.00001
Nuclear contribution   :      2.04104       0.95614       0.00000
                        -----------------------------------------
Total Dipole Moment    :      0.32743       0.62908      -0.00001
                        -----------------------------------------
Magnitude (a.u.)       :      0.70919
Magnitude (Debye)      :      1.80262



--------------------
Rotational spectrum 
--------------------
 
Rotational constants in cm-1:     4.110701     0.839871     0.810047 
Rotational constants in MHz : 123235.724125 25178.711803 24284.589811 

 Dipole components along the rotational axes: 
x,y,z [a.u.] :     0.357355    -0.612576    -0.000013 
x,y,z [Debye]:     0.908325    -1.557045    -0.000034 

 

Timings for individual modules:

Sum of individual times         ...       24.781 sec (=   0.413 min)
GTO integral calculation        ...        0.339 sec (=   0.006 min)   1.4 %
SCF iterations                  ...        2.240 sec (=   0.037 min)   9.0 %
MDCI module                     ...       22.202 sec (=   0.370 min)  89.6 %
                             ****ORCA TERMINATED NORMALLY****
TOTAL RUN TIME: 0 days 0 hours 0 minutes 25 seconds 37 msec
methanol_ecl.gbw -> /home1/pantazis/klk/xyz/Energy_barrier/methanol_ecl.gbw
methanol_ecl.job -> /home1/pantazis/klk/xyz/Energy_barrier/methanol_ecl.job
methanol_ecl.loc -> /home1/pantazis/klk/xyz/Energy_barrier/methanol_ecl.loc
methanol_ecl.nodes -> /home1/pantazis/klk/xyz/Energy_barrier/methanol_ecl.nodes
methanol_ecl.prop -> /home1/pantazis/klk/xyz/Energy_barrier/methanol_ecl.prop
methanol_ecl_property.txt -> /home1/pantazis/klk/xyz/Energy_barrier/methanol_ecl_property.txt
methanol_ecl.xyz -> /home1/pantazis/klk/xyz/Energy_barrier/methanol_ecl.xyz
cp: cannot stat methanol_ecl.asa.inp: No such file or directory
