! Job execution by suborca V 6.07 on ZEUS !
Job started from zeus1, running /scratch/pantazis/methyl_glycolate_sk__N2luIR/orca/orca copied from /opt/orca on zeussn124 in /scratch/pantazis/methyl_glycolate_sk__N2luIR
Job execution start: Thu Jun 27 14:13:55 CEST 2019
Shared library path: /scratch/pantazis/methyl_glycolate_sk__N2luIR/orca:/opt/openmpi_1.10.2/lib:/opt/intel/mkl/lib/intel64:/opt/intel/lib/intel64:
PBS Job ID is: 158147.icqc
izeussn124
izeussn124
izeussn124
izeussn124
izeussn124
izeussn124
izeussn124
izeussn124

                                 *****************
                                 * O   R   C   A *
                                 *****************

           --- An Ab Initio, DFT and Semiempirical electronic structure package ---

                  #######################################################
                  #                        -***-                        #
                  #          Department of theory and spectroscopy      #
                  #               Directorship: Frank Neese             #
                  #        Max Planck Institute fuer Kohlenforschung    #
                  #                Kaiser Wilhelm Platz 1               #
                  #                 D-45470 Muelheim/Ruhr               #
                  #                      Germany                        #
                  #                                                     #
                  #                  All rights reserved                #
                  #                        -***-                        #
                  #######################################################


                         Program Version 4.1.x  -  STABLE  -
                                (SVN: $Rev: 14094$)
                ($Date: 2019-06-14 15:01:15 +0200 (Fri, 14 Jun 2019) $)

                         (BUILD: $Sun Jun 23 06:18:31 CEST 2019$)


 With contributions from (in alphabetic order):
   Daniel Aravena         : Magnetic Properties
   Michael Atanasov       : Ab Initio Ligand Field Theory
   Alexander A. Auer      : GIAO ZORA
   Ute Becker             : Parallelization
   Giovanni Bistoni       : ED, Open-shell LED
   Martin Brehm           : Molecular dynamics
   Dmytro Bykov           : SCF Hessian
   Vijay G. Chilkuri      : MRCI spin determinant printing
   Dipayan Datta          : RHF DLPNO-CCSD density
   Achintya Kumar Dutta   : EOM-CC, STEOM-CC
   Dmitry Ganyushin       : Spin-Orbit,Spin-Spin,Magnetic field MRCI
   Miquel Garcia          : C-PCM Hessian
   Yang Guo               : DLPNO-NEVPT2, CIM, IAO-localization
   Andreas Hansen         : Spin unrestricted coupled pair/coupled cluster methods
   Benjamin Helmich-Paris : CASSCF linear response (MC-RPA)
   Lee Huntington         : MR-EOM, pCC
   Robert Izsak           : Overlap fitted RIJCOSX, COSX-SCS-MP3, EOM
   Christian Kollmar      : KDIIS, OOCD, Brueckner-CCSD(T), CCSD density
   Simone Kossmann        : Meta GGA functionals, TD-DFT gradient, OOMP2, MP2 Hessian
   Martin Krupicka        : AUTO-CI
   Lucas Lang             : DCDCAS
   Dagmar Lenk            : GEPOL surface, SMD
   Dimitrios Liakos       : Extrapolation schemes; parallel MDCI
   Dimitrios Manganas     : ROCIS; embedding schemes
   Dimitrios Pantazis     : SARC Basis sets
   Taras Petrenko         : DFT Hessian,TD-DFT gradient, ASA, ECA, R-Raman, ABS, FL, XAS/XES, NRVS
   Peter Pinski           : DLPNO-MP2, DLPNO-MP2 Gradient
   Christoph Reimann      : Effective Core Potentials
   Marius Retegan         : Local ZFS, SOC
   Christoph Riplinger    : Optimizer, TS searches, QM/MM, DLPNO-CCSD(T), (RO)-DLPNO pert. Triples
   Tobias Risthaus        : Range-separated hybrids, TD-DFT gradient, RPA, STAB
   Michael Roemelt        : Restricted open shell CIS
   Masaaki Saitow         : Open-shell DLPNO
   Barbara Sandhoefer     : DKH picture change effects
   Avijit Sen             : IP-ROCIS
   Kantharuban Sivalingam : CASSCF convergence, NEVPT2, FIC-MRCI
   Bernardo de Souza      : ESD, SOC TD-DFT
   Georgi Stoychev        : AutoAux, RI-MP2 NMR
   Willem Van den Heuvel  : Paramagnetic NMR
   Boris Wezisla          : Elementary symmetry handling
   Frank Wennmohs         : Technical directorship


 We gratefully acknowledge several colleagues who have allowed us to
 interface, adapt or use parts of their codes:
   Stefan Grimme, W. Hujo, H. Kruse,             : VdW corrections, initial TS optimization,
                  C. Bannwarth                     DFT functionals, gCP, sTDA/sTD-DF
   Ed Valeev                                     : LibInt (2-el integral package), F12 methods
   Garnet Chan, S. Sharma, J. Yang, R. Olivares  : DMRG
   Ulf Ekstrom                                   : XCFun DFT Library
   Mihaly Kallay                                 : mrcc  (arbitrary order and MRCC methods)
   Andreas Klamt, Michael Diedenhofen            : otool_cosmo (COSMO solvation model)
   Jiri Pittner, Ondrej Demel                    : Mk-CCSD
   Frank Weinhold                                : gennbo (NPA and NBO analysis)
   Christopher J. Cramer and Donald G. Truhlar   : smd solvation model
   Lars Goerigk                                  : TD-DFT with DH, B97 family of functionals
   V. Asgeirsson, H. Jonsson                     : NEB implementation
   FAccTs GmbH                                   : IRC, NEB, NEB-TS, Multilevel


 Your calculation uses the libint2 library for the computation of 2-el integrals
 For citations please refer to: http://libint.valeyev.net

 This ORCA versions uses:
   CBLAS   interface :  Fast vector & matrix operations
   LAPACKE interface :  Fast linear algebra routines
   SCALAPACK package :  Parallel linear algebra routines




***************************************
The coordinates will be read from file: methyl_glycolate_sk.xyz
***************************************


----- Orbital basis set information -----
Your calculation utilizes the basis: cc-pVTZ 
       H, B-Ne : Obtained from the ccRepo (grant-hill.group.shef.ac.uk/ccrepo) Feb. 2017
                 T. H. Dunning, Jr., J. Chem. Phys. 90, 1007 (1989)
            He : Obtained from the ccRepo (grant-hill.group.shef.ac.uk/ccrepo) Feb. 2017
                 D. E. Woon, T. H. Dunning, Jr., J. Chem. Phys. 100, 2975 (1994)
  Li-Be, Na-Mg : Obtained from the ccRepo (grant-hill.group.shef.ac.uk/ccrepo) Feb. 2017
                 B. P. Prascher, D. E. Woon, K. A. Peterson, T. H. Dunning, Jr., A. K. Wilson, Theor. Chem. Acc. 128, 69 (2011)
         Al-Ar : Obtained from the ccRepo (grant-hill.group.shef.ac.uk/ccrepo) Feb. 2017
                 D. E. Woon, T. H. Dunning, Jr., J. Chem. Phys. 98, 1358 (1993)
            Ca : Obtained from the Peterson Research Group Website (tyr0.chem.wsu.edu/~kipeters) Feb. 2017
                 J. Koput, K. A. Peterson, J. Phys. Chem. 106, 9595 (2002)
         Sc-Zn : Obtained from the ccRepo (grant-hill.group.shef.ac.uk/ccrepo) Feb. 2017
                 N. B. Balabanov, K. A. Peterson, J. Chem. Phys. 123, 064107 (2005)
                 N. B. Balabanov, K. A. Peterson, J. Chem. Phys. 125, 074110 (2006)
         Ga-Kr : Obtained from the ccRepo (grant-hill.group.shef.ac.uk/ccrepo) Feb. 2017
                 A. K. Wilson, D. E. Woon, K. A. Peterson, T. H. Dunning, Jr., J. Chem. Phys. 110, 7667 (1999)
             Y : Obtained from the ccRepo (grant-hill.group.shef.ac.uk/ccrepo) Feb. 2017
                 K. A. Peterson, D. Figgen, M. Dolg, H. Stoll, J. Chem. Phys. 126, 124101 (2007)
        Ag, Au : Obtained from the Peterson Research Group Website (tyr0.chem.wsu.edu/~kipeters) Feb. 2017
                 K. A. Peterson, C. Puzzarini, Theor. Chem. Acc. 114, 283 (2005)

----- AuxC basis set information -----
Your calculation utilizes the auxiliary basis: cc-pVTZ/C 
  Obtained from the EMSL Basis Set Exchange (bse.pnl.gov) Feb. 2017
  H-He, B-F, Al-Ar, Ga-Kr : F. Weigend, A. Kohn, C. Hattig, J. Chem. Phys. 116, 3175 (2002)
             Li-Be, Na-Mg : C. Haettig, Phys. Chem. Chem. Phys. 7, 59 (2005)
                       Ne : C. Haettig, Phys. Chem. Chem. Phys. 7, 59 (2005)
                            F. Weigend, A. Kohn, C. Hattig, J. Chem. Phys. 116, 3175 (2002)
                    Sc-Zn : J. G. Hill, J. A. Platts, J. Chem. Phys. 128, 044104 (2008)

----- AuxJK basis set information -----
Your calculation utilizes the auxiliary basis: cc-pVTZ/JK 
  H, B-F, Al-Cl, Ga-Br : Obtained from the TURBOMOLE 7.0 basis set library

================================================================================
                                        WARNINGS
                       Please study these warnings very carefully!
================================================================================


WARNING: MDCI localization with Augmented Hessian Foster-Boys
  ===> : Switching off randomization!

WARNING: Post HF methods need fully converged wavefunctions
  ===> : Setting SCFConvForced true
         You can overwrite this default with %scf ConvForced false 


INFO   : the flag for use of LIBINT has been found!

================================================================================
                                       INPUT FILE
================================================================================
NAME = methyl_glycolate_sk.inp
|  1> ! RHF DLPNO-CCSD(T) cc-pVTZ RIJK cc-pVTZ/JK cc-pVTZ/C
|  2> ! KDIIS SOSCF TightSCF TightPNO
|  3> 
|  4> %pal nprocs 8 end
|  5> 
|  6> %maxcore 8000
|  7> 
|  8> %scf maxiter 300
|  9>      shift shift 0.2 erroff 0.1 end
| 10> end
| 11> 
| 12> * xyzfile 0 1 methyl_glycolate_sk.xyz 
| 13> 
| 14> 
| 15>                          ****END OF INPUT****
================================================================================

                       ****************************
                       * Single Point Calculation *
                       ****************************

---------------------------------
CARTESIAN COORDINATES (ANGSTROEM)
---------------------------------
  C      2.096940   -0.692390   -0.000000
  O      0.654690   -0.706310    0.000030
  C      0.062020    0.491920   -0.000000
  O      0.653490    1.554650   -0.000050
  C     -1.456820    0.431740    0.000060
  O     -1.942270   -0.897970   -0.000030
  H     -1.784190    0.993700    0.886470
  H     -1.784270    0.993840   -0.886210
  H     -2.907370   -0.872140   -0.000240
  H      2.393110   -1.740600    0.000140
  H      2.471290   -0.182830   -0.890880
  H      2.471350   -0.182540    0.890680

----------------------------
CARTESIAN COORDINATES (A.U.)
----------------------------
  NO LB      ZA    FRAG     MASS         X           Y           Z
   0 C     6.0000    0    12.011    3.962642   -1.308427   -0.000000
   1 O     8.0000    0    15.999    1.237185   -1.334732    0.000057
   2 C     6.0000    0    12.011    0.117201    0.929594   -0.000000
   3 O     8.0000    0    15.999    1.234917    2.937863   -0.000094
   4 C     6.0000    0    12.011   -2.752991    0.815870    0.000113
   5 O     8.0000    0    15.999   -3.670358   -1.696917   -0.000057
   6 H     1.0000    0     1.008   -3.371630    1.877821    1.675186
   7 H     1.0000    0     1.008   -3.371782    1.878085   -1.674694
   8 H     1.0000    0     1.008   -5.494133   -1.648106   -0.000454
   9 H     1.0000    0     1.008    4.522323   -3.289257    0.000265
  10 H     1.0000    0     1.008    4.670061   -0.345499   -1.683519
  11 H     1.0000    0     1.008    4.670175   -0.344951    1.683141

--------------------------------
INTERNAL COORDINATES (ANGSTROEM)
--------------------------------
 C      0   0   0     0.000000000000     0.00000000     0.00000000
 O      1   0   0     1.442317173787     0.00000000     0.00000000
 C      2   1   0     1.336792004277   115.76499858     0.00000000
 O      3   2   1     1.216236743525   124.58358471     0.00000000
 C      3   2   1     1.520031769931   114.04897037   180.00110648
 O      5   3   2     1.415553034930   112.32511274     0.00000000
 H      5   3   2     1.099405678810   106.10099253   122.94512259
 H      5   3   2     1.099388205049   106.10149525   237.04011074
 H      6   5   3     0.965445618872   108.52300512   180.01586394
 H      1   2   3     1.089247856367   105.22457286   179.99404661
 H      1   2   3     1.092454342524   110.31440398   299.59410448
 H      1   2   3     1.092447130529   110.31598353    60.39073941

---------------------------
INTERNAL COORDINATES (A.U.)
---------------------------
 C      0   0   0     0.000000000000     0.00000000     0.00000000
 O      1   0   0     2.725584456708     0.00000000     0.00000000
 C      2   1   0     2.526170786100   115.76499858     0.00000000
 O      3   2   1     2.298354359274   124.58358471     0.00000000
 C      3   2   1     2.872443760029   114.04897037   180.00110648
 O      5   3   2     2.675007564059   112.32511274     0.00000000
 H      5   3   2     2.077575643029   106.10099253   122.94512259
 H      5   3   2     2.077542622405   106.10149525   237.04011074
 H      6   5   3     1.824427816863   108.52300512   180.01586394
 H      1   2   3     2.058380140494   105.22457286   179.99404661
 H      1   2   3     2.064439521184   110.31440398   299.59410448
 H      1   2   3     2.064425892487   110.31598353    60.39073941

---------------------
BASIS SET INFORMATION
---------------------
There are 3 groups of distinct atoms

 Group   1 Type C   : 18s5p2d1f contracted to 4s3p2d1f pattern {8811/311/11/1}
 Group   2 Type O   : 18s5p2d1f contracted to 4s3p2d1f pattern {8811/311/11/1}
 Group   3 Type H   : 5s2p1d contracted to 3s2p1d pattern {311/11/1}

Atom   0C    basis set group =>   1
Atom   1O    basis set group =>   2
Atom   2C    basis set group =>   1
Atom   3O    basis set group =>   2
Atom   4C    basis set group =>   1
Atom   5O    basis set group =>   2
Atom   6H    basis set group =>   3
Atom   7H    basis set group =>   3
Atom   8H    basis set group =>   3
Atom   9H    basis set group =>   3
Atom  10H    basis set group =>   3
Atom  11H    basis set group =>   3
-------------------------------
AUXILIARY BASIS SET INFORMATION
-------------------------------
There are 3 groups of distinct atoms

 Group   1 Type C   : 8s6p5d3f1g contracted to 8s6p5d3f1g pattern {11111111/111111/11111/111/1}
 Group   2 Type O   : 8s6p5d3f1g contracted to 8s6p5d3f1g pattern {11111111/111111/11111/111/1}
 Group   3 Type H   : 4s3p2d1f contracted to 4s3p2d1f pattern {1111/111/11/1}

Atom   0C    basis set group =>   1
Atom   1O    basis set group =>   2
Atom   2C    basis set group =>   1
Atom   3O    basis set group =>   2
Atom   4C    basis set group =>   1
Atom   5O    basis set group =>   2
Atom   6H    basis set group =>   3
Atom   7H    basis set group =>   3
Atom   8H    basis set group =>   3
Atom   9H    basis set group =>   3
Atom  10H    basis set group =>   3
Atom  11H    basis set group =>   3
-------------------------------
AUXILIARY BASIS SET INFORMATION
-------------------------------
There are 3 groups of distinct atoms

 Group   1 Type C   : 10s7p5d2f1g contracted to 10s7p5d2f1g pattern {1111111111/1111111/11111/11/1}
 Group   2 Type O   : 10s7p5d2f1g contracted to 10s7p5d2f1g pattern {1111111111/1111111/11111/11/1}
 Group   3 Type H   : 4s3p2d1f contracted to 4s3p2d1f pattern {1111/111/11/1}

Atom   0C    basis set group =>   1
Atom   1O    basis set group =>   2
Atom   2C    basis set group =>   1
Atom   3O    basis set group =>   2
Atom   4C    basis set group =>   1
Atom   5O    basis set group =>   2
Atom   6H    basis set group =>   3
Atom   7H    basis set group =>   3
Atom   8H    basis set group =>   3
Atom   9H    basis set group =>   3
Atom  10H    basis set group =>   3
Atom  11H    basis set group =>   3


           ************************************************************
           *        Program running with 8 parallel MPI-processes     *
           *              working on a common directory               *
           ************************************************************
------------------------------------------------------------------------------
                           ORCA GTO INTEGRAL CALCULATION
                           -- RI-GTO INTEGRALS CHOSEN --
------------------------------------------------------------------------------

                         BASIS SET STATISTICS AND STARTUP INFO

Gaussian basis set:
 # of primitive gaussian shells          ...  204
 # of primitive gaussian functions       ...  396
 # of contracted shells                  ...   96
 # of contracted basis functions         ...  264
 Highest angular momentum                ...    3
 Maximum contraction depth               ...    8
Auxiliary gaussian basis set:
 # of primitive gaussian shells          ...  210
 # of primitive gaussian functions       ...  654
 # of contracted shells                  ...  210
 # of contracted aux-basis functions     ...  654
 Highest angular momentum                ...    4
 Maximum contraction depth               ...    1
Ratio of auxiliary to basis functions    ...  2.48
Integral package used                  ... LIBINT
 One Electron integrals                  ... done
 Ordering auxiliary basis shells         ... done
 Integral threshhold             Thresh  ...  2.500e-11
 Primitive cut-off               TCut    ...  2.500e-12
 Pre-screening matrix                    ... done
 Shell pair data                         ... 
 Ordering of the shell pairs             ... done (   0.001 sec) 4380 of 4656 pairs
 Determination of significant pairs      ... done (   0.000 sec)
 Creation of shell pair data             ... done (   0.001 sec)
 Storage of shell pair data              ... done (   0.001 sec)
 Shell pair data done in (   0.004 sec)
 Computing two index integrals           ... done
 Cholesky decomposition of the V-matrix  ... done


Timings:
 Total evaluation time                   ...   2.440 sec (  0.041 min)
 One electron matrix time                ...   2.097 sec (  0.035 min) = 85.9%
 Schwartz matrix evaluation time         ...   0.216 sec (  0.004 min) =  8.9%
 Two index repulsion integral time       ...   0.055 sec (  0.001 min) =  2.2%
 Cholesky decomposition of V             ...   0.042 sec (  0.001 min) =  1.7%
 Three index repulsion integral time     ...   0.000 sec (  0.000 min) =  0.0%



           ************************************************************
           *        Program running with 8 parallel MPI-processes     *
           *              working on a common directory               *
           ************************************************************
-------------------------------------------------------------------------------
                                 ORCA SCF
-------------------------------------------------------------------------------

------------
SCF SETTINGS
------------
Hamiltonian:
 Ab initio Hamiltonian  Method          .... Hartree-Fock(GTOs)
 RI-approximation to the Coulomb term is turned on
   Number of auxiliary basis functions  .... 654
   RI-JK (J+K treated both via RI)      .... on


General Settings:
 Integral files         IntName         .... methyl_glycolate_sk
 Hartree-Fock type      HFTyp           .... RHF
 Total Charge           Charge          ....    0
 Multiplicity           Mult            ....    1
 Number of Electrons    NEL             ....   48
 Basis Dimension        Dim             ....  264
 Nuclear Repulsion      ENuc            ....    246.3154210224 Eh

Convergence Acceleration:
 DIIS                   CNVDIIS         .... off
 Newton-Raphson         CNVNR           .... off
 SOSCF                  CNVSOSCF        .... on
   Start iteration      SOSCFMaxIt      ....   150
   Startup grad/error   SOSCFStart      ....  0.003300
 Level Shifting         CNVShift        .... on
   Level shift para.    LevelShift      ....    0.2000
   Turn off err/grad.   ShiftErr        ....    0.1000
 Zerner damping         CNVZerner       .... off
 Static damping         CNVDamp         .... off
 Fernandez-Rico         CNVRico         .... off

SCF Procedure:
 Maximum # iterations   MaxIter         ....   300
 SCF integral mode      SCFMode         .... Direct
   Integral package                     .... LIBINT
 Reset frequency        DirectResetFreq ....    20
 Integral Threshold     Thresh          ....  2.500e-11 Eh
 Primitive CutOff       TCut            ....  2.500e-12 Eh

Convergence Tolerance:
 Convergence Check Mode ConvCheckMode   .... Total+1el-Energy
 Convergence forced     ConvForced      .... 1
 Energy Change          TolE            ....  1.000e-08 Eh
 1-El. energy change                    ....  1.000e-05 Eh
 Orbital Gradient       TolG            ....  1.000e-05
 Orbital Rotation angle TolX            ....  1.000e-05


Diagonalization of the overlap matrix:
Smallest eigenvalue                        ... 5.856e-04
Time for diagonalization                   ...    0.015 sec
Threshold for overlap eigenvalues          ... 1.000e-08
Number of eigenvalues below threshold      ... 0
Time for construction of square roots      ...    0.010 sec
Total time needed                          ...    0.025 sec

-------------------
DFT GRID GENERATION
-------------------

General Integration Accuracy     IntAcc      ...  4.340
Radial Grid Type                 RadialGrid  ... Gauss-Chebyshev
Angular Grid (max. acc.)         AngularGrid ... Lebedev-110
Angular grid pruning method      GridPruning ... 3 (G Style)
Weight generation scheme         WeightScheme... Becke
Basis function cutoff            BFCut       ...    1.0000e-11
Integration weight cutoff        WCut        ...    1.0000e-14
Grids for H and He will be reduced by one unit

# of grid points (after initial pruning)     ...  14880 (   0.0 sec)
# of grid points (after weights+screening)   ...  14106 (   0.0 sec)
nearest neighbour list constructed           ...    0.0 sec
Grid point re-assignment to atoms done       ...    0.0 sec
Grid point division into batches done        ...    0.0 sec
Reduced shell lists constructed in    0.1 sec

Total number of grid points                  ...    14106
Total number of batches                      ...      226
Average number of points per batch           ...       62
Average number of grid points per atom       ...     1176
Average number of shells per batch           ...    78.87 (82.15%)
Average number of basis functions per batch  ...   212.60 (80.53%)
Average number of large shells per batch     ...    64.50 (81.78%)
Average number of large basis fcns per batch ...   173.30 (81.51%)
Average number of aux-shells per batch       ...    78.87 (37.56%)
Average number of aux functions per batch    ...   212.60 (32.51%)
Maximum spatial batch extension              ...   2.90,  5.72,  8.89 au
Average spatial batch extension              ...   0.23,  0.24,  0.28 au

Time for grid setup =    0.097 sec

------------------------------
INITIAL GUESS: MODEL POTENTIAL
------------------------------
Loading Hartree-Fock densities                     ... done
Calculating cut-offs                               ... done
Setting up the integral package                    ... done
Initializing the effective Hamiltonian             ... done
Starting the Coulomb interaction                   ... done (   0.0 sec)
Reading the grid                                   ... done
Mapping shells                                     ... done
Starting the XC term evaluation                    ... done (   0.0 sec)
Transforming the Hamiltonian                       ... done (   0.0 sec)
Diagonalizing the Hamiltonian                      ... done (   0.0 sec)
Back transforming the eigenvectors                 ... done (   0.0 sec)
Now organizing SCF variables                       ... done
                      ------------------
                      INITIAL GUESS DONE (   0.3 sec)
                      ------------------
--------------
SCF ITERATIONS
--------------
ITER       Energy         Delta-E        Max-DP      RMS-DP      [F,P]   Gradient Norm
                             ****Turning on KDIIS(Cayley)****
  0   -341.5417823735   0.000000000000 0.01312696  0.00028123  0.1493624   0.161968164
  1   -341.6166177476  -0.074835374054 0.01765428  0.00032740  0.1364421   0.140216193
  2   -341.6815176491  -0.064899901510 0.02922355  0.00053499  0.1103300   0.113635651
  3   -341.7593184535  -0.077800804397 0.04429952  0.00086527  0.0662796   0.069607096
  4   -341.8089653879  -0.049646934379 0.00238590  0.00005591  0.0034764   0.002944705
                      *** Initiating the SOSCF procedure ***
                           *** Shutting down KDIIS ***
                      *** Re-Reading the Fockian *** 
                      *** Removing any level shift *** 
ITER      Energy       Delta-E        Grad      Rot      Max-DP    RMS-DP
  5   -341.80916014  -0.0001947508  0.001436  0.001436  0.001476  0.000042
  6   -341.80919677  -0.0000366308  0.000357  0.000536  0.000485  0.000013
  7   -341.80919964  -0.0000028735  0.000233  0.000285  0.000216  0.000005
  8   -341.80920150  -0.0000018617  0.000117  0.000232  0.000136  0.000003
  9   -341.80920172  -0.0000002201  0.000033  0.000110  0.000094  0.000002
 10   -341.80920176  -0.0000000395  0.000020  0.000029  0.000021  0.000001
 11   -341.80920177  -0.0000000054  0.000010  0.000015  0.000010  0.000000
                  ***Gradient check signals convergence***
              ***Rediagonalizing the Fockian in SOSCF/NRSCF***

               *****************************************************
               *                     SUCCESS                       *
               *           SCF CONVERGED AFTER  12 CYCLES          *
               *****************************************************


----------------
TOTAL SCF ENERGY
----------------

Total Energy       :         -341.80920177 Eh           -9301.10124 eV

Components:
Nuclear Repulsion  :          246.31542102 Eh            6702.58336 eV
Electronic Energy  :         -588.12462279 Eh          -16003.68460 eV
One Electron Energy:         -957.10656236 Eh          -26044.19362 eV
Two Electron Energy:          368.98193957 Eh           10040.50903 eV

Virial components:
Potential Energy   :         -683.00348430 Eh          -18585.46967 eV
Kinetic Energy     :          341.19428253 Eh            9284.36844 eV
Virial Ratio       :            2.00180226


---------------
SCF CONVERGENCE
---------------

  Last Energy change         ...   -1.0027e-09  Tolerance :   1.0000e-08
  Last MAX-Density change    ...    1.7665e-06  Tolerance :   1.0000e-07
  Last RMS-Density change    ...    4.8241e-08  Tolerance :   5.0000e-09
  Last Orbital Gradient      ...    1.2121e-06  Tolerance :   1.0000e-05
  Last Orbital Rotation      ...    1.1239e-06  Tolerance :   1.0000e-05

             **** THE GBW FILE WAS UPDATED (methyl_glycolate_sk.gbw) ****
             **** DENSITY FILE WAS UPDATED (methyl_glycolate_sk.scfp.tmp) ****
             **** ENERGY FILE WAS UPDATED (methyl_glycolate_sk.en.tmp) ****
----------------
ORBITAL ENERGIES
----------------

  NO   OCC          E(Eh)            E(eV) 
   0   2.0000     -20.604423      -560.6748 
   1   2.0000     -20.571876      -559.7892 
   2   2.0000     -20.539789      -558.9161 
   3   2.0000     -11.381983      -309.7195 
   4   2.0000     -11.304247      -307.6042 
   5   2.0000     -11.286792      -307.1292 
   6   2.0000      -1.459493       -39.7148 
   7   2.0000      -1.374185       -37.3935 
   8   2.0000      -1.354357       -36.8539 
   9   2.0000      -1.013362       -27.5750 
  10   2.0000      -0.943663       -25.6784 
  11   2.0000      -0.777638       -21.1606 
  12   2.0000      -0.717738       -19.5306 
  13   2.0000      -0.697914       -18.9912 
  14   2.0000      -0.683930       -18.6107 
  15   2.0000      -0.656940       -17.8763 
  16   2.0000      -0.637144       -17.3376 
  17   2.0000      -0.588104       -16.0031 
  18   2.0000      -0.541120       -14.7246 
  19   2.0000      -0.536447       -14.5975 
  20   2.0000      -0.526039       -14.3142 
  21   2.0000      -0.474762       -12.9189 
  22   2.0000      -0.450769       -12.2661 
  23   2.0000      -0.448659       -12.2086 
  24   0.0000       0.130691         3.5563 
  25   0.0000       0.153831         4.1860 
  26   0.0000       0.166087         4.5195 
  27   0.0000       0.180669         4.9162 
  28   0.0000       0.213638         5.8134 
  29   0.0000       0.218340         5.9413 
  30   0.0000       0.241051         6.5593 
  31   0.0000       0.247783         6.7425 
  32   0.0000       0.307035         8.3548 
  33   0.0000       0.320210         8.7133 
  34   0.0000       0.381555        10.3826 
  35   0.0000       0.387921        10.5559 
  36   0.0000       0.433894        11.8069 
  37   0.0000       0.478955        13.0330 
  38   0.0000       0.487979        13.2786 
  39   0.0000       0.491649        13.3785 
  40   0.0000       0.506431        13.7807 
  41   0.0000       0.526236        14.3196 
  42   0.0000       0.545064        14.8319 
  43   0.0000       0.552334        15.0298 
  44   0.0000       0.592359        16.1189 
  45   0.0000       0.608421        16.5560 
  46   0.0000       0.626538        17.0490 
  47   0.0000       0.627237        17.0680 
  48   0.0000       0.629991        17.1429 
  49   0.0000       0.658338        17.9143 
  50   0.0000       0.663262        18.0483 
  51   0.0000       0.695867        18.9355 
  52   0.0000       0.714312        19.4374 
  53   0.0000       0.731825        19.9140 
  54   0.0000       0.758410        20.6374 
  55   0.0000       0.779346        21.2071 
  56   0.0000       0.800438        21.7810 
  57   0.0000       0.825961        22.4756 
  58   0.0000       0.833306        22.6754 
  59   0.0000       0.834596        22.7105 
  60   0.0000       0.882925        24.0256 
  61   0.0000       0.903393        24.5826 
  62   0.0000       0.909648        24.7528 
  63   0.0000       0.968242        26.3472 
  64   0.0000       0.974882        26.5279 
  65   0.0000       0.983298        26.7569 
  66   0.0000       1.048467        28.5302 
  67   0.0000       1.061060        28.8729 
  68   0.0000       1.078443        29.3459 
  69   0.0000       1.145965        31.1833 
  70   0.0000       1.147226        31.2176 
  71   0.0000       1.159072        31.5400 
  72   0.0000       1.172594        31.9079 
  73   0.0000       1.190956        32.4076 
  74   0.0000       1.230956        33.4960 
  75   0.0000       1.237286        33.6683 
  76   0.0000       1.242748        33.8169 
  77   0.0000       1.276101        34.7245 
  78   0.0000       1.298699        35.3394 
  79   0.0000       1.327344        36.1189 
  80   0.0000       1.356273        36.9061 
  81   0.0000       1.373511        37.3751 
  82   0.0000       1.425620        38.7931 
  83   0.0000       1.431094        38.9420 
  84   0.0000       1.452296        39.5190 
  85   0.0000       1.487914        40.4882 
  86   0.0000       1.498168        40.7672 
  87   0.0000       1.501380        40.8546 
  88   0.0000       1.513454        41.1832 
  89   0.0000       1.555803        42.3355 
  90   0.0000       1.561269        42.4843 
  91   0.0000       1.587713        43.2039 
  92   0.0000       1.659894        45.1680 
  93   0.0000       1.705049        46.3967 
  94   0.0000       1.723388        46.8958 
  95   0.0000       1.773321        48.2545 
  96   0.0000       1.828055        49.7439 
  97   0.0000       1.863565        50.7102 
  98   0.0000       1.902888        51.7802 
  99   0.0000       1.954544        53.1858 
 100   0.0000       2.009169        54.6723 
 101   0.0000       2.024803        55.0977 
 102   0.0000       2.099449        57.1289 
 103   0.0000       2.172315        59.1117 
 104   0.0000       2.173871        59.1540 
 105   0.0000       2.266923        61.6861 
 106   0.0000       2.286085        62.2075 
 107   0.0000       2.296374        62.4875 
 108   0.0000       2.360951        64.2447 
 109   0.0000       2.373435        64.5844 
 110   0.0000       2.388163        64.9852 
 111   0.0000       2.434979        66.2591 
 112   0.0000       2.471588        67.2553 
 113   0.0000       2.483595        67.5821 
 114   0.0000       2.512101        68.3577 
 115   0.0000       2.591962        70.5309 
 116   0.0000       2.627379        71.4946 
 117   0.0000       2.690969        73.2250 
 118   0.0000       2.698355        73.4260 
 119   0.0000       2.735637        74.4405 
 120   0.0000       2.787675        75.8565 
 121   0.0000       2.826254        76.9063 
 122   0.0000       2.892395        78.7061 
 123   0.0000       2.912810        79.2616 
 124   0.0000       2.954194        80.3877 
 125   0.0000       3.019577        82.1669 
 126   0.0000       3.025348        82.3239 
 127   0.0000       3.051783        83.0432 
 128   0.0000       3.091609        84.1270 
 129   0.0000       3.110779        84.6486 
 130   0.0000       3.116473        84.8035 
 131   0.0000       3.159227        85.9669 
 132   0.0000       3.203308        87.1664 
 133   0.0000       3.218675        87.5846 
 134   0.0000       3.221089        87.6503 
 135   0.0000       3.258937        88.6802 
 136   0.0000       3.260175        88.7139 
 137   0.0000       3.292130        89.5834 
 138   0.0000       3.328462        90.5721 
 139   0.0000       3.341815        90.9354 
 140   0.0000       3.341878        90.9371 
 141   0.0000       3.360498        91.4438 
 142   0.0000       3.400574        92.5343 
 143   0.0000       3.405721        92.6744 
 144   0.0000       3.430050        93.3364 
 145   0.0000       3.442278        93.6691 
 146   0.0000       3.461167        94.1831 
 147   0.0000       3.514995        95.6479 
 148   0.0000       3.523373        95.8758 
 149   0.0000       3.588792        97.6560 
 150   0.0000       3.590877        97.7127 
 151   0.0000       3.604912        98.0946 
 152   0.0000       3.630004        98.7774 
 153   0.0000       3.632089        98.8342 
 154   0.0000       3.677047       100.0575 
 155   0.0000       3.715972       101.1167 
 156   0.0000       3.720668       101.2445 
 157   0.0000       3.727501       101.4305 
 158   0.0000       3.750050       102.0440 
 159   0.0000       3.771287       102.6219 
 160   0.0000       3.775490       102.7363 
 161   0.0000       3.826822       104.1331 
 162   0.0000       3.833504       104.3149 
 163   0.0000       3.858834       105.0042 
 164   0.0000       3.887086       105.7730 
 165   0.0000       3.908131       106.3457 
 166   0.0000       3.976656       108.2103 
 167   0.0000       3.985748       108.4577 
 168   0.0000       4.013002       109.1993 
 169   0.0000       4.051221       110.2393 
 170   0.0000       4.096013       111.4582 
 171   0.0000       4.097126       111.4885 
 172   0.0000       4.146023       112.8190 
 173   0.0000       4.147647       112.8632 
 174   0.0000       4.170544       113.4863 
 175   0.0000       4.184732       113.8723 
 176   0.0000       4.195882       114.1757 
 177   0.0000       4.252302       115.7110 
 178   0.0000       4.267418       116.1224 
 179   0.0000       4.302639       117.0808 
 180   0.0000       4.346916       118.2856 
 181   0.0000       4.353129       118.4547 
 182   0.0000       4.377917       119.1292 
 183   0.0000       4.391982       119.5119 
 184   0.0000       4.418899       120.2444 
 185   0.0000       4.455455       121.2391 
 186   0.0000       4.494545       122.3028 
 187   0.0000       4.527844       123.2089 
 188   0.0000       4.548136       123.7611 
 189   0.0000       4.581888       124.6795 
 190   0.0000       4.596395       125.0743 
 191   0.0000       4.608829       125.4126 
 192   0.0000       4.650941       126.5585 
 193   0.0000       4.725917       128.5987 
 194   0.0000       4.774380       129.9175 
 195   0.0000       4.829283       131.4115 
 196   0.0000       4.866975       132.4371 
 197   0.0000       4.912951       133.6882 
 198   0.0000       5.021737       136.6484 
 199   0.0000       5.044799       137.2760 
 200   0.0000       5.047869       137.3595 
 201   0.0000       5.084104       138.3455 
 202   0.0000       5.086381       138.4075 
 203   0.0000       5.200313       141.5077 
 204   0.0000       5.224449       142.1645 
 205   0.0000       5.246203       142.7564 
 206   0.0000       5.287011       143.8669 
 207   0.0000       5.304071       144.3311 
 208   0.0000       5.358405       145.8096 
 209   0.0000       5.394899       146.8027 
 210   0.0000       5.417352       147.4136 
 211   0.0000       5.489257       149.3703 
 212   0.0000       5.539148       150.7279 
 213   0.0000       5.563778       151.3981 
 214   0.0000       5.579901       151.8368 
 215   0.0000       5.635461       153.3487 
 216   0.0000       5.646873       153.6592 
 217   0.0000       5.648318       153.6986 
 218   0.0000       5.723465       155.7434 
 219   0.0000       5.793984       157.6623 
 220   0.0000       5.819548       158.3579 
 221   0.0000       5.826215       158.5394 
 222   0.0000       5.933604       161.4616 
 223   0.0000       5.958426       162.1370 
 224   0.0000       5.966172       162.3478 
 225   0.0000       6.091758       165.7652 
 226   0.0000       6.154305       167.4672 
 227   0.0000       6.179931       168.1645 
 228   0.0000       6.218362       169.2102 
 229   0.0000       6.237307       169.7258 
 230   0.0000       6.267957       170.5598 
 231   0.0000       6.391040       173.9090 
 232   0.0000       6.492550       176.6713 
 233   0.0000       6.566573       178.6855 
 234   0.0000       6.585964       179.2132 
 235   0.0000       6.631893       180.4630 
 236   0.0000       6.722047       182.9162 
 237   0.0000       6.724909       182.9941 
 238   0.0000       6.792079       184.8219 
 239   0.0000       6.893043       187.5692 
 240   0.0000       6.981371       189.9728 
 241   0.0000       6.997623       190.4150 
 242   0.0000       7.117332       193.6724 
 243   0.0000       7.142958       194.3698 
 244   0.0000       7.198734       195.8875 
 245   0.0000       7.221608       196.5099 
 246   0.0000       7.254274       197.3988 
 247   0.0000       7.342320       199.7947 
 248   0.0000       7.381367       200.8572 
 249   0.0000       7.410918       201.6613 
 250   0.0000       7.435279       202.3242 
 251   0.0000       7.459060       202.9713 
 252   0.0000       7.557527       205.6508 
 253   0.0000       7.594378       206.6535 
 254   0.0000       7.662550       208.5086 
 255   0.0000       7.835197       213.2065 
 256   0.0000       7.915107       215.3810 
 257   0.0000       7.990133       217.4226 
 258   0.0000       9.713038       264.3052 
 259   0.0000      11.823593       321.7363 
 260   0.0000      12.534108       341.0704 
 261   0.0000      12.968645       352.8948 
 262   0.0000      13.725783       373.4975 
 263   0.0000      14.093914       383.5149 

                    ********************************
                    * MULLIKEN POPULATION ANALYSIS *
                    ********************************

-----------------------
MULLIKEN ATOMIC CHARGES
-----------------------
   0 C :   -0.058927
   1 O :   -0.276103
   2 C :    0.371019
   3 O :   -0.430736
   4 C :    0.089237
   5 O :   -0.379614
   6 H :    0.079868
   7 H :    0.079879
   8 H :    0.223846
   9 H :    0.113395
  10 H :    0.094063
  11 H :    0.094073
Sum of atomic charges:    0.0000000

--------------------------------
MULLIKEN REDUCED ORBITAL CHARGES
--------------------------------
  0 C s       :     3.215072  s :     3.215072
      pz      :     1.025977  p :     2.727872
      px      :     0.647881
      py      :     1.054013
      dz2     :     0.016695  d :     0.106682
      dxz     :     0.025133
      dyz     :     0.011253
      dx2y2   :     0.032792
      dxy     :     0.020808
      f0      :     0.000997  f :     0.009302
      f+1     :     0.001417
      f-1     :     0.001280
      f+2     :     0.001600
      f-2     :     0.000020
      f+3     :     0.002088
      f-3     :     0.001900
  1 O s       :     3.702029  s :     3.702029
      pz      :     1.763886  p :     4.534562
      px      :     1.298107
      py      :     1.472569
      dz2     :     0.004504  d :     0.037204
      dxz     :     0.003396
      dyz     :     0.004834
      dx2y2   :     0.014807
      dxy     :     0.009664
      f0      :     0.000253  f :     0.002308
      f+1     :     0.000392
      f-1     :     0.000310
      f+2     :     0.000139
      f-2     :     0.000147
      f+3     :     0.000685
      f-3     :     0.000383
  2 C s       :     3.103859  s :     3.103859
      pz      :     0.629279  p :     2.195361
      px      :     0.851680
      py      :     0.714402
      dz2     :     0.012252  d :     0.303501
      dxz     :     0.028462
      dyz     :     0.081670
      dx2y2   :     0.109292
      dxy     :     0.071825
      f0      :     0.003435  f :     0.026260
      f+1     :     0.001254
      f-1     :     0.001273
      f+2     :     0.002150
      f-2     :     0.004088
      f+3     :     0.005266
      f-3     :     0.008795
  3 O s       :     3.751285  s :     3.751285
      pz      :     1.457443  p :     4.641517
      px      :     1.710122
      py      :     1.473952
      dz2     :     0.003466  d :     0.035524
      dxz     :     0.002929
      dyz     :     0.009555
      dx2y2   :     0.008739
      dxy     :     0.010836
      f0      :     0.000207  f :     0.002410
      f+1     :     0.000095
      f-1     :     0.000274
      f+2     :     0.000149
      f-2     :     0.000361
      f+3     :     0.000782
      f-3     :     0.000542
  4 C s       :     3.139228  s :     3.139228
      pz      :     1.003432  p :     2.642664
      px      :     0.885802
      py      :     0.753429
      dz2     :     0.016598  d :     0.117653
      dxz     :     0.012173
      dyz     :     0.026265
      dx2y2   :     0.040681
      dxy     :     0.021935
      f0      :     0.001316  f :     0.011219
      f+1     :     0.001080
      f-1     :     0.001974
      f+2     :     0.001425
      f-2     :     0.000478
      f+3     :     0.002568
      f-3     :     0.002378
  5 O s       :     3.753896  s :     3.753896
      pz      :     1.892302  p :     4.596802
      px      :     1.274672
      py      :     1.429828
      dz2     :     0.004450  d :     0.027428
      dxz     :     0.000675
      dyz     :     0.003378
      dx2y2   :     0.014546
      dxy     :     0.004380
      f0      :     0.000162  f :     0.001488
      f+1     :     0.000315
      f-1     :     0.000331
      f+2     :     0.000078
      f-2     :     0.000039
      f+3     :     0.000399
      f-3     :     0.000164
  6 H s       :     0.888987  s :     0.888987
      pz      :     0.010064  p :     0.028722
      px      :     0.009735
      py      :     0.008924
      dz2     :     0.000567  d :     0.002423
      dxz     :     0.000538
      dyz     :     0.000724
      dx2y2   :     0.000288
      dxy     :     0.000306
  7 H s       :     0.888975  s :     0.888975
      pz      :     0.010062  p :     0.028723
      px      :     0.009735
      py      :     0.008926
      dz2     :     0.000567  d :     0.002423
      dxz     :     0.000538
      dyz     :     0.000724
      dx2y2   :     0.000288
      dxy     :     0.000306
  8 H s       :     0.687977  s :     0.687977
      pz      :     0.034118  p :     0.080708
      px      :     0.026931
      py      :     0.019659
      dz2     :     0.000538  d :     0.007469
      dxz     :     0.003259
      dyz     :     0.000036
      dx2y2   :     0.001678
      dxy     :     0.001956
  9 H s       :     0.859590  s :     0.859590
      pz      :     0.009800  p :     0.024984
      px      :     0.002398
      py      :     0.012786
      dz2     :     0.000220  d :     0.002031
      dxz     :     0.000019
      dyz     :     0.000684
      dx2y2   :     0.000536
      dxy     :     0.000572
 10 H s       :     0.878799  s :     0.878799
      pz      :     0.010249  p :     0.025080
      px      :     0.004740
      py      :     0.010090
      dz2     :     0.000575  d :     0.002058
      dxz     :     0.000498
      dyz     :     0.000598
      dx2y2   :     0.000192
      dxy     :     0.000195
 11 H s       :     0.878789  s :     0.878789
      pz      :     0.010248  p :     0.025081
      px      :     0.004741
      py      :     0.010092
      dz2     :     0.000575  d :     0.002058
      dxz     :     0.000498
      dyz     :     0.000598
      dx2y2   :     0.000193
      dxy     :     0.000195


                     *******************************
                     * LOEWDIN POPULATION ANALYSIS *
                     *******************************

----------------------
LOEWDIN ATOMIC CHARGES
----------------------
   0 C :    0.065741
   1 O :    0.323317
   2 C :   -0.439333
   3 O :    0.093628
   4 C :   -0.049436
   5 O :    0.328376
   6 H :   -0.022946
   7 H :   -0.022953
   8 H :   -0.183750
   9 H :   -0.029545
  10 H :   -0.031548
  11 H :   -0.031551

-------------------------------
LOEWDIN REDUCED ORBITAL CHARGES
-------------------------------
  0 C s       :     2.687665  s :     2.687665
      pz      :     1.023626  p :     2.758209
      px      :     0.711223
      py      :     1.023360
      dz2     :     0.068187  d :     0.427497
      dxz     :     0.108524
      dyz     :     0.045282
      dx2y2   :     0.121613
      dxy     :     0.083891
      f0      :     0.005713  f :     0.060888
      f+1     :     0.009344
      f-1     :     0.004938
      f+2     :     0.009684
      f-2     :     0.003646
      f+3     :     0.013943
      f-3     :     0.013620
  1 O s       :     3.225535  s :     3.225535
      pz      :     1.590167  p :     4.345121
      px      :     1.279495
      py      :     1.475459
      dz2     :     0.010374  d :     0.100167
      dxz     :     0.013733
      dyz     :     0.007169
      dx2y2   :     0.034909
      dxy     :     0.033982
      f0      :     0.000476  f :     0.005860
      f+1     :     0.000498
      f-1     :     0.000460
      f+2     :     0.000753
      f-2     :     0.000187
      f+3     :     0.001351
      f-3     :     0.002135
  2 C s       :     2.757539  s :     2.757539
      pz      :     0.634427  p :     2.539737
      px      :     0.967689
      py      :     0.937621
      dz2     :     0.064524  d :     0.980369
      dxz     :     0.089239
      dyz     :     0.208797
      dx2y2   :     0.351424
      dxy     :     0.266385
      f0      :     0.011454  f :     0.161687
      f+1     :     0.006418
      f-1     :     0.012873
      f+2     :     0.012772
      f-2     :     0.026385
      f+3     :     0.027002
      f-3     :     0.064783
  3 O s       :     3.378664  s :     3.378664
      pz      :     1.352035  p :     4.458002
      px      :     1.593949
      py      :     1.512018
      dz2     :     0.008120  d :     0.064615
      dxz     :     0.002808
      dyz     :     0.009154
      dx2y2   :     0.019971
      dxy     :     0.024562
      f0      :     0.000289  f :     0.005091
      f+1     :     0.000240
      f-1     :     0.000634
      f+2     :     0.000228
      f-2     :     0.000396
      f+3     :     0.001599
      f-3     :     0.001705
  4 C s       :     2.688702  s :     2.688702
      pz      :     1.009299  p :     2.743539
      px      :     0.929935
      py      :     0.804305
      dz2     :     0.072359  d :     0.543025
      dxz     :     0.044167
      dyz     :     0.159802
      dx2y2   :     0.169174
      dxy     :     0.097523
      f0      :     0.007977  f :     0.074170
      f+1     :     0.005993
      f-1     :     0.009260
      f+2     :     0.008134
      f-2     :     0.009580
      f+3     :     0.015004
      f-3     :     0.018223
  5 O s       :     3.209182  s :     3.209182
      pz      :     1.696236  p :     4.389822
      px      :     1.306160
      py      :     1.387426
      dz2     :     0.008477  d :     0.068222
      dxz     :     0.001214
      dyz     :     0.011144
      dx2y2   :     0.031502
      dxy     :     0.015885
      f0      :     0.000533  f :     0.004399
      f+1     :     0.000436
      f-1     :     0.000284
      f+2     :     0.000446
      f-2     :     0.000169
      f+3     :     0.001202
      f-3     :     0.001329
  6 H s       :     0.848675  s :     0.848675
      pz      :     0.065003  p :     0.147043
      px      :     0.040218
      py      :     0.041822
      dz2     :     0.008576  d :     0.027228
      dxz     :     0.005504
      dyz     :     0.006998
      dx2y2   :     0.003047
      dxy     :     0.003104
  7 H s       :     0.848676  s :     0.848676
      pz      :     0.064997  p :     0.147048
      px      :     0.040220
      py      :     0.041831
      dz2     :     0.008575  d :     0.027230
      dxz     :     0.005502
      dyz     :     0.006998
      dx2y2   :     0.003048
      dxy     :     0.003105
  8 H s       :     0.719038  s :     0.719038
      pz      :     0.111704  p :     0.363851
      px      :     0.170700
      py      :     0.081446
      dz2     :     0.008016  d :     0.100862
      dxz     :     0.038480
      dyz     :     0.000066
      dx2y2   :     0.024629
      dxy     :     0.029670
  9 H s       :     0.858528  s :     0.858528
      pz      :     0.040865  p :     0.143893
      px      :     0.027506
      py      :     0.075522
      dz2     :     0.002516  d :     0.027124
      dxz     :     0.000469
      dyz     :     0.009501
      dx2y2   :     0.007554
      dxy     :     0.007084
 10 H s       :     0.859981  s :     0.859981
      pz      :     0.065792  p :     0.144672
      px      :     0.029771
      py      :     0.049109
      dz2     :     0.008894  d :     0.026894
      dxz     :     0.005511
      dyz     :     0.006812
      dx2y2   :     0.003298
      dxy     :     0.002379
 11 H s       :     0.859980  s :     0.859980
      pz      :     0.065782  p :     0.144676
      px      :     0.029773
      py      :     0.049121
      dz2     :     0.008893  d :     0.026895
      dxz     :     0.005509
      dyz     :     0.006811
      dx2y2   :     0.003301
      dxy     :     0.002381


                      *****************************
                      * MAYER POPULATION ANALYSIS *
                      *****************************

  NA   - Mulliken gross atomic population
  ZA   - Total nuclear charge
  QA   - Mulliken gross atomic charge
  VA   - Mayer's total valence
  BVA  - Mayer's bonded valence
  FA   - Mayer's free valence

  ATOM       NA         ZA         QA         VA         BVA        FA
  0 C      6.0589     6.0000    -0.0589     3.8598     3.8598     0.0000
  1 O      8.2761     8.0000    -0.2761     2.1378     2.1378     0.0000
  2 C      5.6290     6.0000     0.3710     4.1793     4.1793     0.0000
  3 O      8.4307     8.0000    -0.4307     2.0898     2.0898    -0.0000
  4 C      5.9108     6.0000     0.0892     3.9618     3.9618     0.0000
  5 O      8.3796     8.0000    -0.3796     2.0108     2.0108     0.0000
  6 H      0.9201     1.0000     0.0799     0.9849     0.9849     0.0000
  7 H      0.9201     1.0000     0.0799     0.9849     0.9849     0.0000
  8 H      0.7762     1.0000     0.2238     1.0166     1.0166     0.0000
  9 H      0.8866     1.0000     0.1134     0.9756     0.9756    -0.0000
 10 H      0.9059     1.0000     0.0941     0.9782     0.9782    -0.0000
 11 H      0.9059     1.0000     0.0941     0.9782     0.9782     0.0000

  Mayer bond orders larger than 0.1
B(  0-C ,  1-O ) :   0.9064 B(  0-C ,  9-H ) :   0.9791 B(  0-C , 10-H ) :   0.9741 
B(  0-C , 11-H ) :   0.9741 B(  1-O ,  2-C ) :   1.2207 B(  2-C ,  3-O ) :   2.0045 
B(  2-C ,  4-C ) :   0.9491 B(  4-C ,  5-O ) :   1.0312 B(  4-C ,  6-H ) :   0.9719 
B(  4-C ,  7-H ) :   0.9719 B(  5-O ,  8-H ) :   0.9893 

-------
TIMINGS
-------

Total SCF time: 0 days 0 hours 0 min 18 sec 

Total time                  ....      18.504 sec
Sum of individual times     ....      18.287 sec  ( 98.8%)

Fock matrix formation       ....      17.815 sec  ( 96.3%)
Diagonalization             ....       0.068 sec  (  0.4%)
Density matrix formation    ....       0.010 sec  (  0.1%)
Population analysis         ....       0.042 sec  (  0.2%)
Initial guess               ....       0.192 sec  (  1.0%)
Orbital Transformation      ....       0.000 sec  (  0.0%)
Orbital Orthonormalization  ....       0.000 sec  (  0.0%)
DIIS solution               ....       0.000 sec  (  0.0%)
SOSCF solution              ....       0.063 sec  (  0.3%)


           ************************************************************
           *        Program running with 8 parallel MPI-processes     *
           *              working on a common directory               *
           ************************************************************


------------------------------------------------------------------------------- 
                              ORCA-MATRIX DRIVEN CI                            
------------------------------------------------------------------------------- 


Wavefunction type
-----------------
Correlation treatment                      ...      CCSD     
Single excitations                         ... ON
Orbital optimization                       ... OFF
Calculation of Z vector                    ... OFF
Calculation of Brueckner orbitals          ... OFF
Perturbative triple excitations            ... ON
Calculation of F12 correction              ... OFF
Frozen core treatment                      ... chemical core (12 el)
Reference Wavefunction                     ... RHF
  Internal Orbitals:     6 ...   23 ( 18 MO's/ 36 electrons)
  Virtual  Orbitals:    24 ...  263 (240 MO's              )
Number of AO's                             ...    264
Number of electrons                        ...     48
Number of correlated electrons             ...     36

Algorithmic settings
--------------------
Integral transformation                    ... All integrals via the RI transformation
K(C) Formation                             ... RI-DLPNO
   PNO-Integral Storage                    ... ON DISK
   PNO occupation number cut-off           ... 1.000e-07
   Singles PNO occupation number cut-off   ... 3.000e-09
   PNO Mulliken prescreening cut-off       ... 1.000e-03
   Domain cut-off (Mulliken population)    ... 1.000e-03
   PNO Normalization                       ...    1
Maximum number of iterations               ...        50
Convergence tolerance (max. residuum)      ... 1.000e-05
Level shift for amplitude update           ... 2.000e-01
Maximum number of DIIS vectors             ...         7
DIIS turned on at iteration                ...         0
Damping before turning on DIIS             ...     0.500
Damping after turning on DIIS              ...     0.000
Pair specific amplitude update             ... OFF
Natural orbital iterations                 ... OFF
Perturbative natural orbital generation    ... OFF
Printlevel                                 ... 2

Singles Fock matrix elements calculated using PNOs.

Memory handling:
----------------
Maximum memory for working arrays          ...   8000 MB
Data storage in matrix containers          ... UNCOMPRESSED
Data type for integral storage             ... DOUBLE
In-Core Storage of quantities:
   Amplitudes+Sigma Vector      ... NO
   J+K operators                ... NO
   DIIS vectors                 ... NO
   3-external integrals         ... NO
   4-external integrals         ... NO

Localization treatment:
-----------------------
Localization option                        ...    6
Localization threshhold                    ... -1.0e+00
Using relative localization threshhold     ... 1.0e-08
Neglect threshold for strong pairs         ... 1.000e-05 Eh
Prescreening threshold for very weak pairs ... 1.000e-07 Eh

Initializing the integral package          ... done
Localizing the valence orbitals
------------------------------------------------------------------------------
                           ORCA ORBITAL LOCALIZATION
------------------------------------------------------------------------------

Input orbitals are from                  ... methyl_glycolate_sk.proc0.gbw
Output orbitals are to                   ... methyl_glycolate_sk.proc0.loc
Max. number of iterations                ... 128
Localizations seeded randomly            ... off
Convergence tolerance                    ... 1.000e-06
Using relative localization threshhold   ... 1.000e-08
Treshold for strong local MOs            ... 9.500e-01
Treshold for bond MOs                    ... 8.500e-01
Operator                                 ... 0
Orbital range for localization           ... 6 to 23
Localization criterion                   ... FOSTER-BOYS (AUGMENTED HESSIAN)
Doing the dipole integrals     ... o.k.
Initial value of the localization sum :   182.921824
ITERATION   0 : L=  215.0028563673 DL=  3.21e+01 (AVERGE_DL)=    0.4579082347 
ITERATION   1 : L=  216.8198224287 DL=  1.82e+00 (AVERGE_DL)=    0.1089752044 
ITERATION   2 : L=  217.0585439916 DL=  2.39e-01 (AVERGE_DL)=    0.0395002741 
ITERATION   3 : L=  217.1604028961 DL=  1.02e-01 (AVERGE_DL)=    0.0258020246 
ITERATION   4 : L=  217.2013493375 DL=  4.09e-02 (AVERGE_DL)=    0.0163592115 
ITERATION   5 : L=  217.2123576869 DL=  1.10e-02 (AVERGE_DL)=    0.0084823344 
ITERATION   6 : L=  217.2144162046 DL=  2.06e-03 (AVERGE_DL)=    0.0036680191 
ITERATION   7 : L=  217.2147401968 DL=  3.24e-04 (AVERGE_DL)=    0.0014551962 
ITERATION   8 : L=  217.2147961558 DL=  5.60e-05 (AVERGE_DL)=    0.0006047687 
ITERATION   9 : L=  217.2148141078 DL=  1.80e-05 (AVERGE_DL)=    0.0003425392 
ITERATION  10 : L=  217.2148248292 DL=  1.07e-05 (AVERGE_DL)=    0.0002647159 
ITERATION  11 : L=  217.2148324837 DL=  7.65e-06 (AVERGE_DL)=    0.0002236725 
ITERATION  12 : L=  217.2148380853 DL=  5.60e-06 (AVERGE_DL)=    0.0001913423 
ITERATION  13 : L=  217.2148421958 DL=  4.11e-06 (AVERGE_DL)=    0.0001639077 
ITERATION  14 : L=  217.2148452137 DL=  3.02e-06 (AVERGE_DL)=    0.0001404452 
ITERATION  15 : L=  217.2148474289 DL=  2.22e-06 (AVERGE_DL)=    0.0001203279 
ITERATION  16 : L=  217.2148490557 DL=  1.63e-06 (AVERGE_DL)=    0.0001031137 
ITERATION  17 : L=  217.2148502504 DL=  1.19e-06 (AVERGE_DL)=    0.0000883675 
ITERATION  18 : L=  217.2148511278 DL=  8.77e-07 (AVERGE_DL)=    0.0000757264 
LOCALIZATION SUM CONVERGED

------------------------------------------------------
AUGMENTED HESSIAN OPTIMIZATION OF FOSTER-BOYS ORBITALS
------------------------------------------------------

Spin operator:           0
Orbital window:          6 to 23
Number of iterations:    128
Gradient tolerance:      1.000e-06
Number of pairs:         153
Davidson threshold:      2000
Diagonalization method:  LAPACK
Iter:    0   L: 217.2148511278   Grad. norm: 1.513056e-03
   *** Likely close to a maximum now. ***
       Augmented Hessian eigenvalues:  4.86e-06 -1.51e-01 -1.35e+00 -1.38e+00 ... 
Iter:    1   L: 217.2148535610   Grad. norm: 2.510764e-05
Iter:    2   L: 217.2148535611   Grad. norm: 4.551920e-11
LOCALIZATION HAS CONVERGED.

Eigenvalues of the Hessian:
  0 -1.505e-01
  1 -1.346e+00
  2 -1.375e+00
  3 -1.800e+00
  4 -2.146e+00
  5 -2.817e+00
  6 -3.487e+00
  7 -4.607e+00
  8 -4.929e+00
  9 -5.055e+00
    ...


------------------------------------------------------------------------------- 
                    LOCALIZED MOLECULAR ORBITAL COMPOSITIONS                   
------------------------------------------------------------------------------- 

The Mulliken populations for each LMO on each atom are computed
The LMO`s will be ordered according to atom index and type
  (A) Strongly localized MO`s have populations of >=0.950 on one atom
  (B) Two center bond orbitals have populations of >=0.850 on two atoms
  (C) Other MO`s are considered to be `delocalized`

FOUND  -   4 strongly local MO`s
       -  14 two center bond MO`s
       -   0 significantly delocalized MO`s

Rather strongly localized orbitals:
MO   9:   5O  -   0.983689
MO   8:   5O  -   0.983692
MO   7:   3O  -   0.950903
MO   6:   3O  -   0.950686
Bond-like localized orbitals:
MO  23:  11H  -   0.471725  and   0C  -   0.558423
MO  22:  10H  -   0.471732  and   0C  -   0.558416
MO  21:   9H  -   0.460612  and   0C  -   0.564443
MO  20:   8H  -   0.388693  and   5O  -   0.611960
MO  19:   7H  -   0.478733  and   4C  -   0.555095
MO  18:   6H  -   0.478740  and   4C  -   0.555084
MO  17:   5O  -   0.646402  and   4C  -   0.350956
MO  16:   4C  -   0.460549  and   2C  -   0.575908
MO  15:   3O  -   0.666724  and   2C  -   0.348508
MO  14:   3O  -   0.666725  and   2C  -   0.348506
MO  13:   2C  -   0.378262  and   1O  -   0.638754
MO  12:   1O  -   0.677698  and   0C  -   0.328956
MO  11:   1O  -   0.942853  and   0C  -   0.008477
MO  10:   1O  -   0.942848  and   0C  -   0.008477
Localized MO's were stored in: methyl_glycolate_sk.proc0.loc

Localizing the core orbitals
------------------------------------------------------------------------------
                           ORCA ORBITAL LOCALIZATION
------------------------------------------------------------------------------

Input orbitals are from                  ... methyl_glycolate_sk.proc0.loc
Output orbitals are to                   ... methyl_glycolate_sk.proc0.loc
Max. number of iterations                ... 128
Localizations seeded randomly            ... off
Convergence tolerance                    ... 1.000e-06
Using relative localization threshhold   ... 1.000e-08
Treshold for strong local MOs            ... 9.500e-01
Treshold for bond MOs                    ... 8.500e-01
Operator                                 ... 0
Orbital range for localization           ... 0 to 5
Localization criterion                   ... FOSTER-BOYS (AUGMENTED HESSIAN)
Doing the dipole integrals     ... o.k.
Initial value of the localization sum :    56.351561
ITERATION   0 : L=   56.3515709471 DL=  9.70e-06 (AVERGE_DL)=    0.0008043630 
ITERATION   1 : L=   56.3515709471 DL=  0.00e+00 (AVERGE_DL)=    0.0000000000 
LOCALIZATION SUM CONVERGED

------------------------------------------------------
AUGMENTED HESSIAN OPTIMIZATION OF FOSTER-BOYS ORBITALS
------------------------------------------------------

Spin operator:           0
Orbital window:          0 to 5
Number of iterations:    128
Gradient tolerance:      1.000e-06
Number of pairs:         15
Davidson threshold:      2000
Diagonalization method:  LAPACK
Iter:    0   L: 56.3515709471   Grad. norm: 5.751529e-06
   *** Likely close to a maximum now. ***
       Augmented Hessian eigenvalues:  5.53e-13 -2.11e+01 -2.55e+01 -2.86e+01 ... 
Iter:    1   L: 56.3515709471   Grad. norm: 1.179416e-18
LOCALIZATION HAS CONVERGED.

Eigenvalues of the Hessian:
  0 -2.112e+01
  1 -2.552e+01
  2 -2.861e+01
  3 -2.971e+01
  4 -3.301e+01
  5 -7.300e+01
  6 -7.917e+01
  7 -8.162e+01
  8 -8.218e+01
  9 -8.498e+01
    ...


------------------------------------------------------------------------------- 
                    LOCALIZED MOLECULAR ORBITAL COMPOSITIONS                   
------------------------------------------------------------------------------- 

The Mulliken populations for each LMO on each atom are computed
The LMO`s will be ordered according to atom index and type
  (A) Strongly localized MO`s have populations of >=0.950 on one atom
  (B) Two center bond orbitals have populations of >=0.850 on two atoms
  (C) Other MO`s are considered to be `delocalized`

FOUND  -   6 strongly local MO`s
       -   0 two center bond MO`s
       -   0 significantly delocalized MO`s

Rather strongly localized orbitals:
MO   5:   5O  -   0.999763
MO   4:   4C  -   1.000984
MO   3:   3O  -   0.999632
MO   2:   2C  -   1.000247
MO   1:   1O  -   0.999607
MO   0:   0C  -   1.000710
Localized MO's were stored in: methyl_glycolate_sk.proc0.loc

Warning: internal orbitals are localized - no re-canonicalization of internal orbitals

--------------------------
CLOSED-SHELL FOCK OPERATOR
--------------------------

RI-JK section for the Fock operator:
  RHF full Fock operator         ... done
  RHF frozen core Fock operator  ... done
Time needed for Fock operator              ...            1.277 sec
Reference energy                           ...   -341.809201771

--------------
DLPNO SETTINGS (2015 fully linear scaling implementation)
--------------

TCutMKN:           1.000e-03
TCutPAO:           1.000e-03
TCutPNO:           1.000e-07
TCutPNOSingles:    3.000e-09
TCutEN:            9.700e-01
TCutPAOExt:        1.000e-01
TCutPairs:         1.000e-05
TCutPre:           1.000e-07
TCutOSV:           1.000e-06
TCutDOij:          1.000e-05
TCutDO:            5.000e-03
TCutC:             1.000e-04
TCutCPAO:          1.000e-03
TCutCMO:           1.000e-03
TScaleDOMP2PreScr: 2.000e+00
TScaleMKNMP2PreScr:1.000e+01
TScalePNOMP2PreScr:1.000e+00
PAO overlap thresh 1.000e-08
Using PNOs for Singles Fock computation
Use new domains
Use fully linear algorithm
TCutTNO:           1.000e-09
TCutMP2Pairs:      1.000e-06
TCutDOStrong:      2.000e-03
TCutMKNStrong:     1.000e-02
TCutMKNWeak:       1.000e-01
TCutDOWeak:        4.000e-03
NTCutTNO:          1

--------------------------
Calculating differential overlap integrals ... ok
--------------------------
ELECTRON PAIR PRESCREENING
--------------------------

Dipole-based pair screening          .... used

   TCutDOij = 1.000000e-05
   TCutPre  = 1.000000e-07
   .... Finished loop over pairs
Total time spent in the prescreening                  ...     0.000 sec
sum of pair energies estimated for screened out pairs ...       0.000000000000 Eh
Thresholds for map construction and integral transformation for crude MP2:
   TCutMKN                    ...     1.0e-02
   TCutDO                     ...     1.0e-02
   TCutPairs                  ...     1.0e-05
   TCutPNO_CrudeMP2           ...     1.0e-07
   TCutPNOSingles_CrudeMP2    ...     3.0e-09
--------------------------------
LOCAL RI TRANSFORMATION (IAVPAO)
--------------------------------

Orbital window:       6 to 23
Number of PAOs:     264
Basis functions:    264 (96 shells)
Aux. functions:     666 (198 shells)

Processing maps (0.0 sec)
Average map sizes:
   Aux shells -> MOs              18.0
   Aux shells -> PAOs            264.0
   MOs        -> AO shells        92.7
   PAOs       -> AO shells        96.0

Calculating integrals (0.5 sec, 24.153 MB)
Sorting integrals (0.0 sec, 24.146 MB)
Total time for the integral transformation: 0.5 sec
--------------------------------
INITIAL GUESS AND PNO GENERATION
--------------------------------

PNO truncation parameters                   .... 
    PAOOverlapThresh   =        1.000e-08

    TCutPairs          =        1.000e-05
    TCutPNO            =        1.000e-07
    TCutPNOSingles     =        3.000e-09
    TCutMP2Pairs       =        1.000e-06
    TCutMKN            =        1.000e-02
    TCutDO             =        1.000e-02

Pair selection                          .... not used
Type of local MP2 treatment                 .... semi-local MP2
Strategy for PNO selection                  .... occupation number selection
Pair density normalization                  .... MP2 norm
Spin component scaling                      .... not used

   .... Finished loop over pairs
Making pair pair interaction lists          ... done

                       ===========================
                        171 OF  171 PAIRS ARE KEPT CCSD PAIRS
                          0 OF  171 PAIRS ARE KEPT MP2 PAIRS FOR (T)
                          0 OF  171 PAIRS ARE SKIPPED
                       ===========================

Total time spent in the initial guess                 ...     0.995 sec
SL-MP2 correlation energy (all non-screened pairs)    ...      -1.159474916310 Eh

Initial PNO correlation energy                        ...      -1.158480502782 Eh
sum of pair energies prescreened and skipped MP2 pairs...       0.000000000000 Eh
sum of pair energies of crude MP2 skipped pairs only  ...       0.000000000000 Eh
sum of MP2 pair energies for pairs that were not kept ...       0.000000000000 Eh
sum of PNO error estimates for the kept pairs         ...      -0.000994413529 Eh
                                                          --------------------
sum of all corrections                                         -0.000994413529
Initial total correlation energy                               -1.159474916310
Thresholds for map construction and integral transformation for fine MP2 and CCSD(T) calculation:
   TCutMKN   ...     1.0e-03
   TCutDO    ...     5.0e-03
   TCutPairs ...     1.0e-05
   TCutCMO   ...     1.0e-03
   TCutCPAO  ...     1.0e-03

Thresholds for map construction and integral transformation for strong Triples:
   TCutMKN   ...     1.0e-02
   TCutDO    ...     1.0e-02
   TCutCMO   ...     1.0e-03
   TCutCPAO  ...     1.0e-03

Thresholds for map construction and integral transformation for weak Triples:
   TCutMKN   ...     1.0e-01
   TCutDO    ...     2.0e-02
   TCutCMO   ...     1.0e-03
   TCutCPAO  ...     1.0e-03

--------------------------------
LOCAL RI TRANSFORMATION (IAVPAO)
--------------------------------

Orbital window:       6 to 23
Number of PAOs:     264
Basis functions:    264 (96 shells)
Aux. functions:     666 (198 shells)

Processing maps (0.0 sec)
Average map sizes:
   Aux shells -> MOs              18.0
   Aux shells -> PAOs            264.0
   MOs        -> AO shells        92.7
   PAOs       -> AO shells        96.0

Calculating integrals (0.5 sec, 24.153 MB)
Sorting integrals (0.0 sec, 24.146 MB)
Total time for the integral transformation: 0.6 sec
--------------------------------
INITIAL GUESS AND PNO GENERATION
--------------------------------

PNO truncation parameters                   .... 
    ScaleTCutPNO       =        1.000e-02
    PAOOverlapThresh   =        1.000e-08

    TCutPairs          =        1.000e-05
    TCutPNO            =        1.000e-07
    TCutPNOSingles     =        3.000e-09
    TCutMP2Pairs       =        1.000e-06
    TCutMKN            =        1.000e-03
    TCutDO             =        5.000e-03

Pair selection                          .... not used
Type of local MP2 treatment                 .... full local PMP2
Strategy for PNO selection                  .... occupation number selection
Pair density normalization                  .... MP2 norm
Spin component scaling                      .... not used

PASS-1: Formation of initial guess LMP2 amplitudes
Initial amplitudes guess done. Entering LMP2 iteration loop:
   Max. no of iterations          ...  50
   Energy convergence tolerance   ...    1.0e-07
   Residual convergence tolerance ...    5.0e-07
   Fock matrix cutoff             ...    1.0e-05 Eh
   DIIS convergence acceleration parameters:
        Max # vectors in DIIS     ... 7
        Start iteration of DIIS   ... 0
        Levelshift                ... 2.000e-01
        Damping factor 1          ... 5.000e-01
        Damping factor 2          ... 1.000e+00
   L-MP2 PNO cut-off              ...   1.0e-09
   L-MP2 PNO cut-off (core)       ...   1.0e-11
                           *** Turning on DIIS ***
LMP2-Iter=   0:  ELMP2= -1.187697914045  DE=   2.8e-02 RMAX=   1.9e-02
LMP2-Iter=   1:  ELMP2= -1.201495029106  DE=   1.4e-02 RMAX=   8.2e-03
LMP2-Iter=   2:  ELMP2= -1.203943606474  DE=   2.4e-03 RMAX=   3.3e-03
LMP2-Iter=   3:  ELMP2= -1.204290501261  DE=   3.5e-04 RMAX=   1.1e-03
LMP2-Iter=   4:  ELMP2= -1.204299117607  DE=   8.6e-06 RMAX=   3.4e-04
LMP2-Iter=   5:  ELMP2= -1.204293076640  DE=   6.0e-06 RMAX=   8.8e-05
LMP2-Iter=   6:  ELMP2= -1.204291464177  DE=   1.6e-06 RMAX=   1.5e-05
LMP2-Iter=   7:  ELMP2= -1.204291366064  DE=   9.8e-08 RMAX=   2.4e-06
LMP2-Iter=   8:  ELMP2= -1.204291402144  DE=   3.6e-08 RMAX=   2.5e-07
LMP2-Iter=   9:  ELMP2= -1.204291403020  DE=   8.8e-10 RMAX=   5.4e-08 => CONVERGED
PASS-2: Formation of Pair natural orbitals
   .... Finished loop over pairs

 PNO Occupation Number Statistics: 
  | Av. % of trace(Dij) retained        ...  99.406650213476
  | sigma^2 in % of trace(Dij) retained ...   6.42e-01
  | Av. % of trace(Di) retained         ...  99.999741560546
  | sigma^2 in % of trace(Di) retained  ...   6.41e-09
 Distributions of % trace(Dij) recovered:
  |       >= 99.9  ...    56 ( 32.7 % of all pairs)
  |   [90.0, 99.0) ...    34 ( 19.9 % of all pairs)
  |   [99.0, 99.9) ...    81 ( 47.4 % of all pairs)
 Distributions of % trace(Di) recovered :
  |       >= 99.9  ...    18 (100.0 % of all I-pairs )

Making pair pair interaction lists          ... done

                       ===========================
                        171 OF  171 PAIRS ARE KEPT
                       ===========================

Total time spent in the initial guess                 ...     8.167 sec
L-MP2 correlation energy (all non-screened pairs)     ...      -1.204291403020 Eh
L-MP2 PNO error correction                            ...      -0.000018556918 Eh
                                                          --------------------
Initial total L-MP2 energy (non-screened pairs)       ...      -1.204309959938 Eh

Initial PNO correlation energy                        ...      -1.203358541860 Eh
sum of pair energies estimated for screened out pairs ...       0.000000000000 Eh
sum of MP2 pair energies for pairs that were not kept ...       0.000000000000 Eh
sum of PNO error estimates for the kept pairs         ...      -0.000951418078 Eh
                                                          --------------------
sum of all corrections                                         -0.000951418078
Initial total correlation energy                               -1.204309959938
Thresholds for map construction and integral transformation for fine MP2 and CCSD(T) calculation:
   TCutMKN   ...     1.0e-03
   TCutDO    ...     5.0e-03
   TCutPairs ...     1.0e-05
   TCutCMO   ...     1.0e-03
   TCutCPAO  ...     1.0e-03

Time for aux screen maps:            0.002
Time for maps after fine MP2:            0.009
-----------------------------
LOCAL RI TRANSFORMATION (IJV)
-----------------------------

Orbital window:       6 to 23
Basis functions:    264 (96 shells)
Aux. functions:     666 (198 shells)

Processing maps (0.0 sec)
Average map sizes:
   Aux shells -> MOs(i)           18.0
   Aux shells -> MOs(j)           18.0
   MOs        -> AO shells        92.7

Calculating integrals (0.5 sec, 1.654 MB)
Sorting integrals (0.0 sec, 1.647 MB)
Total time for the integral transformation: 0.5 sec
--------------------------------
LOCAL RI TRANSFORMATION (VABPAO)
--------------------------------

Number of PAOs:     264
Basis functions:    264 (96 shells)
Aux. functions:     666 (198 shells)

Processing maps (0.0 sec)
Average map sizes:
   Aux shells -> PAOs            264.0
   PAOs       -> AO shells        96.0

Calculating integrals (1.0 sec, 666.282 MB)
Finished


-------------------------------------
Pair Pair Term precalculation with     
RI-(ij|mn) and (im|jn) transformation  
ON THE FLY                             
-------------------------------------

   IBatch   1 (of   1)              ... done (   40.038 sec)
Total EXT                           ...          40.038 sec

---------------------
RI-PNO TRANSFORMATION
---------------------

Total Number of PNOs                   ...  6642
Average number of PNOs per pair        ...    38
Maximal number of PNOs per pair        ...    64
   #pairs with  1 -  5 PNOs   :    0
   #pairs with  6 - 10 PNOs   :   12
   #pairs with 11 - 15 PNOs   :    6
   #pairs with 16 - 20 PNOs   :   14
   #pairs with 21 - 25 PNOs   :   14
   #pairs with 26 - 30 PNOs   :    9
   #pairs with 31 - 35 PNOs   :   18
   #pairs with 36 - 40 PNOs   :    6
   #pairs with 41 - 45 PNOs   :   14
   #pairs with 46 - 50 PNOs   :   21
   #pairs with 51 - 55 PNOs   :   27
   #pairs with 56 - 60 PNOs   :   19
   #pairs with 61 - 65 PNOs   :   11

Generation of (ij|ab)[P] integrals            ... on
Generation of (ia|bc)[P],(ja|bc)[P] integrals ... on
Storage of 3 and 4 external integrals         ... on
Generation of ALL (ka|bc)[P] integrals        ... on
Keep RI integrals in memory                   ... off

Ibatch:  1 (of  1)
Starting 2-4 index PNO integral generation ... done

Timings:
Total PNO integral transformation time     ...         12.904 sec
Size of the 3-external file                ...       119 MB
Size of the 4-external file                ...       794 MB
Size of the IKJL file                      ...         0 MB
Size of the all 3-external file            ...      1071 MB
Size of the 1-external file                ...         2 MB

Making pair/pair overlap matrices          ... done (    1.245 sec)
Size of the pair overlap file              ... 244 MB
Redoing the guess amplitudes               ... done (    0.004 sec)

-------------------------
FINAL STARTUP INFORMATION
-------------------------

E(0)                                       ...   -341.809201771
E(L-MP2)                                   ...     -1.204309960
E(L-MP2) including corrections             ...     -1.204309960
Initial E(tot)                             ...   -343.013511731
<T|T>                                      ...      0.282603487
Number of pairs included                   ... 171
Total number of pairs                      ... 171

------------------------------------------------
                  RHF COUPLED CLUSTER ITERATIONS
------------------------------------------------

Number of PNO amplitudes to be optimized   ...       305714
Number of non-PNO amplitudes               ...      9849600
Untruncated number of regular amplitudes   ...      9849600

Iter       E(tot)           E(Corr)          Delta-E          Residual     Time
  0   -342.968600888     -1.158447699      0.045862261      0.019500669    7.54
                           *** Turning on DIIS ***
  1   -343.000530424     -1.190377235     -0.031929536      0.011148576    7.59
  2   -343.029514632     -1.219361443     -0.028984207      0.005824307    7.61
  3   -343.035769779     -1.225616590     -0.006255147      0.003272939    7.56
  4   -343.037702548     -1.227549359     -0.001932769      0.001644974    7.63
  5   -343.038263903     -1.228110714     -0.000561355      0.000733708    7.63
  6   -343.038403390     -1.228250201     -0.000139487      0.000319573    7.64
  7   -343.038432185     -1.228278996     -0.000028794      0.000133864    7.66
  8   -343.038432164     -1.228278975      0.000000020      0.000060053    7.61
  9   -343.038429519     -1.228276330      0.000002645      0.000028953    7.70
 10   -343.038429019     -1.228275830      0.000000500      0.000013974    7.66
 11   -343.038428513     -1.228275324      0.000000506      0.000007105    7.54
               --- The Coupled-Cluster iterations have converged ---

----------------------
COUPLED CLUSTER ENERGY
----------------------

E(0)                                       ...   -341.809201771
E(CORR)(strong-pairs)                      ...     -1.228275324
E(CORR)(weak-pairs)                        ...     -0.000951418
E(CORR)(corrected)                         ...     -1.229226742
E(TOT)                                     ...   -343.038428513
Singles Norm <S|S>**1/2                    ...      0.081398999  
T1 diagnostic                              ...      0.013566500  

------------------
LARGEST AMPLITUDES
------------------
  14-> 24  14-> 24       0.044842
  15-> 24  15-> 24       0.044842
  15-> 24  14-> 24       0.038175
  12-> 24  12-> 24       0.036212
  19-> 30  19-> 30       0.033196
  18-> 30  18-> 30       0.033194
  17-> 24  17-> 24       0.031594
  16-> 27  16-> 27       0.031077
  20-> 27  20-> 27       0.030896
  13-> 26  13-> 26       0.030376
  14-> 24  -1-> -1       0.028447
  15-> 24  -1-> -1       0.028447
  20-> 24  20-> 24       0.027353
  21-> 28  21-> 28       0.026866
  18-> 24  18-> 24       0.026703
  19-> 24  19-> 24       0.026702


-------------------------------------------
DLPNO BASED TRIPLES CORRECTION
-------------------------------------------

Singles multiplier          ...  1.000000
TCutTNO                     ... 1.000e-09
TCutMP2Pairs                ... 1.000e-06
TCutDOStrong                ... 1.000e-02
TCutMKNStrong               ... 1.000e-02
TCutDOWeak                  ... 2.000e-02
TCutMKNWeak                 ... 1.000e-01

Fragment selection                          .... not used
Number of Triples that are to be computed   ...      1122

 . . . . . . . . .
10% done  
20% done  
30% done  
40% done  
50% done  
60% done  
70% done  
80% done  
90% done               (     69.220 sec)
Triples timings:
Total time for T0               ...    73.789 sec
Total time for Iterative (T)    ...     0.000 sec
Total time of overall (T)       ...    75.063 sec

Triples List generation         ...     0.000 sec
TNO generation                  ...     4.560 sec
Pair density generation         ...     0.004 sec
Look up tables                  ...     0.000 sec
Generating 3-index integrals    ...    41.396 sec
  Make 4-ind.int. from 3-ind.int...     9.471 sec
  Projecting amplitudes (D + S) ...     5.639 sec
  Downprojecting integrals      ...     0.002 sec
  Energy contr. (sum over a,b,c)...     3.412 sec
Fitting ET(->0)                 ...     0.000 sec

Everything after 3-index        ...    27.824 sec

Timing details:
 TNO integrals                  ...    49.856 sec
   Reading 3-index integrals    ...     0.125 sec
   Sorting integrals            ...     7.006 sec
       Sorting integrals 1      ...     0.001 sec
       Sorting integrals 2      ...     3.087 sec
       Sorting integrals 3      ...     0.264 sec
       Sorting integrals 4      ...     0.016 sec
       Sorting integrals 5      ...     0.076 sec
       Sorting integrals 6      ...     3.562 sec
   Calculating local VM**-1/2   ...     0.286 sec
   Orthogonal. integrals        ...     0.479 sec
   Multipl. 3-index integrals   ...    41.960 sec
   All concerning IRIab (w/TNO) ...     4.875 sec

 Calculate W0/W1                ...     9.294 sec
 W 3-ext contribution           ...     4.925 sec
 W 3-int contribution           ...     1.410 sec
 Sorting W                      ...     2.823 sec

 V exchange contribution        ...     1.182 sec

 Timings for Triples without generation
     of 3-index integrals       ...    27.822 sec
       0 weak pairs             ...    27.822 sec
       1 weak pair              ...     0.000 sec
       2 weak pairs             ...     0.000 sec
       3 weak pairs             ...     0.000 sec
  Extra time for extrapolation  ...     0.000 sec

Number of Triples   (0, 1, 2, 3 weak pairs; overall):   1122       0       0       0  (  1122)
Number of Atoms     (0, 1, 2, 3 weak pairs; overall):   11.4     0.0     0.0     0.0  (    12)
Number of PAOs      (0, 1, 2, 3 weak pairs; overall):  254.9     0.0     0.0     0.0  (   264)
Number of AuxFcns   (0, 1, 2, 3 weak pairs; overall):  368.9     0.0     0.0     0.0  (   666)
Number of TNOs      (0, 1, 2, 3 weak pairs         ):   89.9     0.0     0.0     0.0
Aver. Number of NTNO, Atoms, PAOs, AuxFcns / Triples:   1122    89.9    11.4   254.9   368.9

Triples Correction (T)                     ...     -0.047929313
Final correlation energy                   ...     -1.277156055
E(CCSD)                                    ...   -343.038428513
E(CCSD(T))                                 ...   -343.086357826


Maximum memory used throughout the entire calculation: 5301.8 MB


------------------------------------------------------------------------------- 
                                     TIMINGS                                   
------------------------------------------------------------------------------- 


Total execution time                   ...      235.438 sec

Localization of occupied MO's          ...        0.505 sec (  0.2%)
Fock Matrix Formation                  ...        1.277 sec (  0.5%)
Global overlap, Fock, MKN matrices     ...        0.201 sec (  0.1%)
Differential overlap integrals         ...        0.071 sec (  0.0%)
Organizing maps                        ...        0.030 sec (  0.0%)
RI 3-index integral generations        ...        2.632 sec (  1.1%)
RI-PNO integral transformation         ...       54.458 sec ( 23.1%)
Initial Guess                          ...        9.216 sec (  3.9%)
DIIS Solver                            ...        1.313 sec (  0.6%)
State Vector Update                    ...        0.030 sec (  0.0%)
Sigma-vector construction              ...       91.079 sec ( 38.7%)
  <D|H|D>(0-ext)                       ...        2.151 sec (  2.4% of sigma)
  <D|H|D>(2-ext Fock)                  ...        0.012 sec (  0.0% of sigma)
  <D|H|D>(2-ext)                       ...        8.055 sec (  8.8% of sigma)
  <D|H|D>(4-ext)                       ...       10.924 sec ( 12.0% of sigma)
  <D|H|D>(4-ext-corr)                  ...       48.070 sec ( 52.8% of sigma)
  CCSD doubles correction              ...        0.169 sec (  0.2% of sigma)
  <S|H|S>                              ...        0.336 sec (  0.4% of sigma)
  <S|H|D>(1-ext)                       ...        0.279 sec (  0.3% of sigma)
  <D|H|S>(1-ext)                       ...        0.009 sec (  0.0% of sigma)
  <S|H|D>(3-ext)                       ...        0.376 sec (  0.4% of sigma)
  Fock-dressing                        ...       10.887 sec ( 12.0% of sigma)
  Singles amplitudes                   ...        0.379 sec (  0.4% of sigma)
  (ik|jl)-dressing                     ...        1.684 sec (  1.8% of sigma)
  (ij|ab),(ia|jb)-dressing             ...        2.150 sec (  2.4% of sigma)
  Pair energies                        ...        0.007 sec (  0.0% of sigma)
Total Time for computing (T)           ...       75.131 sec ( 31.9% of ALL)


-------------------------   --------------------
FINAL SINGLE POINT ENERGY      -343.086357825515
-------------------------   --------------------


                            ***************************************
                            *     ORCA property calculations      *
                            ***************************************

                                    ---------------------
                                    Active property flags
                                    ---------------------
   (+) Dipole Moment


------------------------------------------------------------------------------
                       ORCA ELECTRIC PROPERTIES CALCULATION
------------------------------------------------------------------------------

Dipole Moment Calculation                       ... on
Quadrupole Moment Calculation                   ... off
Polarizability Calculation                      ... off
GBWName                                         ... methyl_glycolate_sk.gbw
Electron density file                           ... methyl_glycolate_sk.scfp.tmp
The origin for moment calculation is the CENTER OF MASS  = (-0.017719,  0.020670 -0.000003)

-------------
DIPOLE MOMENT
-------------
                                X             Y             Z
Electronic contribution:     -1.39772       0.66268      -0.00004
Nuclear contribution   :      0.85057      -0.99212      -0.00003
                        -----------------------------------------
Total Dipole Moment    :     -0.54715      -0.32944      -0.00007
                        -----------------------------------------
Magnitude (a.u.)       :      0.63867
Magnitude (Debye)      :      1.62337



--------------------
Rotational spectrum 
--------------------
 
Rotational constants in cm-1:     0.212916     0.089229     0.064407 
Rotational constants in MHz :  6383.050416  2675.010557  1930.885917 

 Dipole components along the rotational axes: 
x,y,z [a.u.] :    -0.564405    -0.298910    -0.000072 
x,y,z [Debye]:    -1.434603    -0.759768    -0.000182 

 

Timings for individual modules:

Sum of individual times         ...      256.908 sec (=   4.282 min)
GTO integral calculation        ...        2.581 sec (=   0.043 min)   1.0 %
SCF iterations                  ...       18.628 sec (=   0.310 min)   7.3 %
MDCI module                     ...      235.699 sec (=   3.928 min)  91.7 %
                             ****ORCA TERMINATED NORMALLY****
TOTAL RUN TIME: 0 days 0 hours 4 minutes 17 seconds 190 msec
methyl_glycolate_sk.gbw -> /home1/pantazis/klk/xyz_1/Oxygen_compounds/methyl_glycolate_sk.gbw
methyl_glycolate_sk.job -> /home1/pantazis/klk/xyz_1/Oxygen_compounds/methyl_glycolate_sk.job
methyl_glycolate_sk.loc -> /home1/pantazis/klk/xyz_1/Oxygen_compounds/methyl_glycolate_sk.loc
methyl_glycolate_sk.nodes -> /home1/pantazis/klk/xyz_1/Oxygen_compounds/methyl_glycolate_sk.nodes
methyl_glycolate_sk.prop -> /home1/pantazis/klk/xyz_1/Oxygen_compounds/methyl_glycolate_sk.prop
methyl_glycolate_sk_property.txt -> /home1/pantazis/klk/xyz_1/Oxygen_compounds/methyl_glycolate_sk_property.txt
methyl_glycolate_sk.xyz -> /home1/pantazis/klk/xyz_1/Oxygen_compounds/methyl_glycolate_sk.xyz
cp: cannot stat methyl_glycolate_sk.asa.inp: No such file or directory
