! Job execution by suborca V 6.07 on ZEUS !
Job started from zeus1, running /scratch/pantazis/methanol_anti__ldox1g/orca/orca copied from /opt/orca on zeussn124 in /scratch/pantazis/methanol_anti__ldox1g
Job execution start: Fri Jun 28 02:01:43 CEST 2019
Shared library path: /scratch/pantazis/methanol_anti__ldox1g/orca:/opt/openmpi_1.10.2/lib:/opt/intel/mkl/lib/intel64:/opt/intel/lib/intel64:
PBS Job ID is: 158321.icqc
izeussn124
izeussn124
izeussn124
izeussn124
izeussn124
izeussn124
izeussn124
izeussn124

                                 *****************
                                 * O   R   C   A *
                                 *****************

           --- An Ab Initio, DFT and Semiempirical electronic structure package ---

                  #######################################################
                  #                        -***-                        #
                  #          Department of theory and spectroscopy      #
                  #               Directorship: Frank Neese             #
                  #        Max Planck Institute fuer Kohlenforschung    #
                  #                Kaiser Wilhelm Platz 1               #
                  #                 D-45470 Muelheim/Ruhr               #
                  #                      Germany                        #
                  #                                                     #
                  #                  All rights reserved                #
                  #                        -***-                        #
                  #######################################################


                         Program Version 4.1.x  -  STABLE  -
                                (SVN: $Rev: 14094$)
                ($Date: 2019-06-14 15:01:15 +0200 (Fri, 14 Jun 2019) $)

                         (BUILD: $Sun Jun 23 06:18:31 CEST 2019$)


 With contributions from (in alphabetic order):
   Daniel Aravena         : Magnetic Properties
   Michael Atanasov       : Ab Initio Ligand Field Theory
   Alexander A. Auer      : GIAO ZORA
   Ute Becker             : Parallelization
   Giovanni Bistoni       : ED, Open-shell LED
   Martin Brehm           : Molecular dynamics
   Dmytro Bykov           : SCF Hessian
   Vijay G. Chilkuri      : MRCI spin determinant printing
   Dipayan Datta          : RHF DLPNO-CCSD density
   Achintya Kumar Dutta   : EOM-CC, STEOM-CC
   Dmitry Ganyushin       : Spin-Orbit,Spin-Spin,Magnetic field MRCI
   Miquel Garcia          : C-PCM Hessian
   Yang Guo               : DLPNO-NEVPT2, CIM, IAO-localization
   Andreas Hansen         : Spin unrestricted coupled pair/coupled cluster methods
   Benjamin Helmich-Paris : CASSCF linear response (MC-RPA)
   Lee Huntington         : MR-EOM, pCC
   Robert Izsak           : Overlap fitted RIJCOSX, COSX-SCS-MP3, EOM
   Christian Kollmar      : KDIIS, OOCD, Brueckner-CCSD(T), CCSD density
   Simone Kossmann        : Meta GGA functionals, TD-DFT gradient, OOMP2, MP2 Hessian
   Martin Krupicka        : AUTO-CI
   Lucas Lang             : DCDCAS
   Dagmar Lenk            : GEPOL surface, SMD
   Dimitrios Liakos       : Extrapolation schemes; parallel MDCI
   Dimitrios Manganas     : ROCIS; embedding schemes
   Dimitrios Pantazis     : SARC Basis sets
   Taras Petrenko         : DFT Hessian,TD-DFT gradient, ASA, ECA, R-Raman, ABS, FL, XAS/XES, NRVS
   Peter Pinski           : DLPNO-MP2, DLPNO-MP2 Gradient
   Christoph Reimann      : Effective Core Potentials
   Marius Retegan         : Local ZFS, SOC
   Christoph Riplinger    : Optimizer, TS searches, QM/MM, DLPNO-CCSD(T), (RO)-DLPNO pert. Triples
   Tobias Risthaus        : Range-separated hybrids, TD-DFT gradient, RPA, STAB
   Michael Roemelt        : Restricted open shell CIS
   Masaaki Saitow         : Open-shell DLPNO
   Barbara Sandhoefer     : DKH picture change effects
   Avijit Sen             : IP-ROCIS
   Kantharuban Sivalingam : CASSCF convergence, NEVPT2, FIC-MRCI
   Bernardo de Souza      : ESD, SOC TD-DFT
   Georgi Stoychev        : AutoAux, RI-MP2 NMR
   Willem Van den Heuvel  : Paramagnetic NMR
   Boris Wezisla          : Elementary symmetry handling
   Frank Wennmohs         : Technical directorship


 We gratefully acknowledge several colleagues who have allowed us to
 interface, adapt or use parts of their codes:
   Stefan Grimme, W. Hujo, H. Kruse,             : VdW corrections, initial TS optimization,
                  C. Bannwarth                     DFT functionals, gCP, sTDA/sTD-DF
   Ed Valeev                                     : LibInt (2-el integral package), F12 methods
   Garnet Chan, S. Sharma, J. Yang, R. Olivares  : DMRG
   Ulf Ekstrom                                   : XCFun DFT Library
   Mihaly Kallay                                 : mrcc  (arbitrary order and MRCC methods)
   Andreas Klamt, Michael Diedenhofen            : otool_cosmo (COSMO solvation model)
   Jiri Pittner, Ondrej Demel                    : Mk-CCSD
   Frank Weinhold                                : gennbo (NPA and NBO analysis)
   Christopher J. Cramer and Donald G. Truhlar   : smd solvation model
   Lars Goerigk                                  : TD-DFT with DH, B97 family of functionals
   V. Asgeirsson, H. Jonsson                     : NEB implementation
   FAccTs GmbH                                   : IRC, NEB, NEB-TS, Multilevel


 Your calculation uses the libint2 library for the computation of 2-el integrals
 For citations please refer to: http://libint.valeyev.net

 This ORCA versions uses:
   CBLAS   interface :  Fast vector & matrix operations
   LAPACKE interface :  Fast linear algebra routines
   SCALAPACK package :  Parallel linear algebra routines




***************************************
The coordinates will be read from file: methanol_anti.xyz
***************************************


----- Orbital basis set information -----
Your calculation utilizes the basis: cc-pVTZ 
       H, B-Ne : Obtained from the ccRepo (grant-hill.group.shef.ac.uk/ccrepo) Feb. 2017
                 T. H. Dunning, Jr., J. Chem. Phys. 90, 1007 (1989)
            He : Obtained from the ccRepo (grant-hill.group.shef.ac.uk/ccrepo) Feb. 2017
                 D. E. Woon, T. H. Dunning, Jr., J. Chem. Phys. 100, 2975 (1994)
  Li-Be, Na-Mg : Obtained from the ccRepo (grant-hill.group.shef.ac.uk/ccrepo) Feb. 2017
                 B. P. Prascher, D. E. Woon, K. A. Peterson, T. H. Dunning, Jr., A. K. Wilson, Theor. Chem. Acc. 128, 69 (2011)
         Al-Ar : Obtained from the ccRepo (grant-hill.group.shef.ac.uk/ccrepo) Feb. 2017
                 D. E. Woon, T. H. Dunning, Jr., J. Chem. Phys. 98, 1358 (1993)
            Ca : Obtained from the Peterson Research Group Website (tyr0.chem.wsu.edu/~kipeters) Feb. 2017
                 J. Koput, K. A. Peterson, J. Phys. Chem. 106, 9595 (2002)
         Sc-Zn : Obtained from the ccRepo (grant-hill.group.shef.ac.uk/ccrepo) Feb. 2017
                 N. B. Balabanov, K. A. Peterson, J. Chem. Phys. 123, 064107 (2005)
                 N. B. Balabanov, K. A. Peterson, J. Chem. Phys. 125, 074110 (2006)
         Ga-Kr : Obtained from the ccRepo (grant-hill.group.shef.ac.uk/ccrepo) Feb. 2017
                 A. K. Wilson, D. E. Woon, K. A. Peterson, T. H. Dunning, Jr., J. Chem. Phys. 110, 7667 (1999)
             Y : Obtained from the ccRepo (grant-hill.group.shef.ac.uk/ccrepo) Feb. 2017
                 K. A. Peterson, D. Figgen, M. Dolg, H. Stoll, J. Chem. Phys. 126, 124101 (2007)
        Ag, Au : Obtained from the Peterson Research Group Website (tyr0.chem.wsu.edu/~kipeters) Feb. 2017
                 K. A. Peterson, C. Puzzarini, Theor. Chem. Acc. 114, 283 (2005)

----- AuxC basis set information -----
Your calculation utilizes the auxiliary basis: cc-pVTZ/C 
  Obtained from the EMSL Basis Set Exchange (bse.pnl.gov) Feb. 2017
  H-He, B-F, Al-Ar, Ga-Kr : F. Weigend, A. Kohn, C. Hattig, J. Chem. Phys. 116, 3175 (2002)
             Li-Be, Na-Mg : C. Haettig, Phys. Chem. Chem. Phys. 7, 59 (2005)
                       Ne : C. Haettig, Phys. Chem. Chem. Phys. 7, 59 (2005)
                            F. Weigend, A. Kohn, C. Hattig, J. Chem. Phys. 116, 3175 (2002)
                    Sc-Zn : J. G. Hill, J. A. Platts, J. Chem. Phys. 128, 044104 (2008)

----- AuxJK basis set information -----
Your calculation utilizes the auxiliary basis: cc-pVTZ/JK 
  H, B-F, Al-Cl, Ga-Br : Obtained from the TURBOMOLE 7.0 basis set library

================================================================================
                                        WARNINGS
                       Please study these warnings very carefully!
================================================================================


WARNING: MDCI localization with Augmented Hessian Foster-Boys
  ===> : Switching off randomization!

WARNING: Post HF methods need fully converged wavefunctions
  ===> : Setting SCFConvForced true
         You can overwrite this default with %scf ConvForced false 


INFO   : the flag for use of LIBINT has been found!

================================================================================
                                       INPUT FILE
================================================================================
NAME = methanol_anti.inp
|  1> ! RHF DLPNO-CCSD(T) cc-pVTZ RIJK cc-pVTZ/JK cc-pVTZ/C
|  2> ! KDIIS SOSCF TightSCF TightPNO
|  3> 
|  4> %pal nprocs 8 end
|  5> 
|  6> %maxcore 8000
|  7> 
|  8> %scf maxiter 300
|  9>      shift shift 0.2 erroff 0.1 end
| 10> end
| 11> 
| 12> * xyzfile 0 1 methanol_anti.xyz 
| 13> 
| 14> 
| 15>                          ****END OF INPUT****
================================================================================

                       ****************************
                       * Single Point Calculation *
                       ****************************

---------------------------------
CARTESIAN COORDINATES (ANGSTROEM)
---------------------------------
  C     -0.661930   -0.017790    0.000000
  O      0.739040    0.126810   -0.000000
  H      1.110210   -0.739120    0.000010
  H     -0.962740   -0.582400    0.913090
  H     -1.125450    0.996240    0.000000
  H     -0.962740   -0.582410   -0.913090

----------------------------
CARTESIAN COORDINATES (A.U.)
----------------------------
  NO LB      ZA    FRAG     MASS         X           Y           Z
   0 C     6.0000    0    12.011   -1.250866   -0.033618    0.000000
   1 O     8.0000    0    15.999    1.396583    0.239636   -0.000000
   2 H     1.0000    0     1.008    2.097993   -1.396734    0.000019
   3 H     1.0000    0     1.008   -1.819315   -1.100577    1.725490
   4 H     1.0000    0     1.008   -2.126792    1.882621    0.000000
   5 H     1.0000    0     1.008   -1.819315   -1.100595   -1.725490

--------------------------------
INTERNAL COORDINATES (ANGSTROEM)
--------------------------------
 C      0   0   0     0.000000000000     0.00000000     0.00000000
 O      1   0   0     1.408412617417     0.00000000     0.00000000
 H      2   1   0     0.942126283414   107.30891336     0.00000000
 H      1   2   3     1.114901097093   108.68570127    59.83164446
 H      1   2   3     1.114947367054   108.67259076   179.99936300
 H      1   2   3     1.114906161343   108.68566895   300.16754808

---------------------------
INTERNAL COORDINATES (A.U.)
---------------------------
 C      0   0   0     0.000000000000     0.00000000     0.00000000
 O      1   0   0     2.661514130478     0.00000000     0.00000000
 H      2   1   0     1.780360659222   107.30891336     0.00000000
 H      1   2   3     2.106857739915   108.68570127    59.83164446
 H      1   2   3     2.106945177468   108.67259076   179.99936300
 H      1   2   3     2.106867309959   108.68566895   300.16754808

---------------------
BASIS SET INFORMATION
---------------------
There are 3 groups of distinct atoms

 Group   1 Type C   : 18s5p2d1f contracted to 4s3p2d1f pattern {8811/311/11/1}
 Group   2 Type O   : 18s5p2d1f contracted to 4s3p2d1f pattern {8811/311/11/1}
 Group   3 Type H   : 5s2p1d contracted to 3s2p1d pattern {311/11/1}

Atom   0C    basis set group =>   1
Atom   1O    basis set group =>   2
Atom   2H    basis set group =>   3
Atom   3H    basis set group =>   3
Atom   4H    basis set group =>   3
Atom   5H    basis set group =>   3
-------------------------------
AUXILIARY BASIS SET INFORMATION
-------------------------------
There are 3 groups of distinct atoms

 Group   1 Type C   : 8s6p5d3f1g contracted to 8s6p5d3f1g pattern {11111111/111111/11111/111/1}
 Group   2 Type O   : 8s6p5d3f1g contracted to 8s6p5d3f1g pattern {11111111/111111/11111/111/1}
 Group   3 Type H   : 4s3p2d1f contracted to 4s3p2d1f pattern {1111/111/11/1}

Atom   0C    basis set group =>   1
Atom   1O    basis set group =>   2
Atom   2H    basis set group =>   3
Atom   3H    basis set group =>   3
Atom   4H    basis set group =>   3
Atom   5H    basis set group =>   3
-------------------------------
AUXILIARY BASIS SET INFORMATION
-------------------------------
There are 3 groups of distinct atoms

 Group   1 Type C   : 10s7p5d2f1g contracted to 10s7p5d2f1g pattern {1111111111/1111111/11111/11/1}
 Group   2 Type O   : 10s7p5d2f1g contracted to 10s7p5d2f1g pattern {1111111111/1111111/11111/11/1}
 Group   3 Type H   : 4s3p2d1f contracted to 4s3p2d1f pattern {1111/111/11/1}

Atom   0C    basis set group =>   1
Atom   1O    basis set group =>   2
Atom   2H    basis set group =>   3
Atom   3H    basis set group =>   3
Atom   4H    basis set group =>   3
Atom   5H    basis set group =>   3


           ************************************************************
           *        Program running with 8 parallel MPI-processes     *
           *              working on a common directory               *
           ************************************************************
------------------------------------------------------------------------------
                           ORCA GTO INTEGRAL CALCULATION
                           -- RI-GTO INTEGRALS CHOSEN --
------------------------------------------------------------------------------

                         BASIS SET STATISTICS AND STARTUP INFO

Gaussian basis set:
 # of primitive gaussian shells          ...   84
 # of primitive gaussian functions       ...  164
 # of contracted shells                  ...   44
 # of contracted basis functions         ...  116
 Highest angular momentum                ...    3
 Maximum contraction depth               ...    8
Auxiliary gaussian basis set:
 # of primitive gaussian shells          ...   90
 # of primitive gaussian functions       ...  278
 # of contracted shells                  ...   90
 # of contracted aux-basis functions     ...  278
 Highest angular momentum                ...    4
 Maximum contraction depth               ...    1
Ratio of auxiliary to basis functions    ...  2.40
Integral package used                  ... LIBINT
 One Electron integrals                  ... done
 Ordering auxiliary basis shells         ... done
 Integral threshhold             Thresh  ...  2.500e-11
 Primitive cut-off               TCut    ...  2.500e-12
 Pre-screening matrix                    ... done
 Shell pair data                         ... 
 Ordering of the shell pairs             ... done (   0.000 sec) 990 of 990 pairs
 Determination of significant pairs      ... done (   0.000 sec)
 Creation of shell pair data             ... done (   0.000 sec)
 Storage of shell pair data              ... done (   0.002 sec)
 Shell pair data done in (   0.002 sec)
 Computing two index integrals           ... done
 Cholesky decomposition of the V-matrix  ... done


Timings:
 Total evaluation time                   ...   0.216 sec (  0.004 min)
 One electron matrix time                ...   0.012 sec (  0.000 min) =  5.6%
 Schwartz matrix evaluation time         ...   0.143 sec (  0.002 min) = 66.2%
 Two index repulsion integral time       ...   0.004 sec (  0.000 min) =  1.7%
 Cholesky decomposition of V             ...   0.029 sec (  0.000 min) = 13.3%
 Three index repulsion integral time     ...   0.000 sec (  0.000 min) =  0.0%



           ************************************************************
           *        Program running with 8 parallel MPI-processes     *
           *              working on a common directory               *
           ************************************************************
-------------------------------------------------------------------------------
                                 ORCA SCF
-------------------------------------------------------------------------------

------------
SCF SETTINGS
------------
Hamiltonian:
 Ab initio Hamiltonian  Method          .... Hartree-Fock(GTOs)
 RI-approximation to the Coulomb term is turned on
   Number of auxiliary basis functions  .... 278
   RI-JK (J+K treated both via RI)      .... on


General Settings:
 Integral files         IntName         .... methanol_anti
 Hartree-Fock type      HFTyp           .... RHF
 Total Charge           Charge          ....    0
 Multiplicity           Mult            ....    1
 Number of Electrons    NEL             ....   18
 Basis Dimension        Dim             ....  116
 Nuclear Repulsion      ENuc            ....     40.4252640452 Eh

Convergence Acceleration:
 DIIS                   CNVDIIS         .... off
 Newton-Raphson         CNVNR           .... off
 SOSCF                  CNVSOSCF        .... on
   Start iteration      SOSCFMaxIt      ....   150
   Startup grad/error   SOSCFStart      ....  0.003300
 Level Shifting         CNVShift        .... on
   Level shift para.    LevelShift      ....    0.2000
   Turn off err/grad.   ShiftErr        ....    0.1000
 Zerner damping         CNVZerner       .... off
 Static damping         CNVDamp         .... off
 Fernandez-Rico         CNVRico         .... off

SCF Procedure:
 Maximum # iterations   MaxIter         ....   300
 SCF integral mode      SCFMode         .... Direct
   Integral package                     .... LIBINT
 Reset frequency        DirectResetFreq ....    20
 Integral Threshold     Thresh          ....  2.500e-11 Eh
 Primitive CutOff       TCut            ....  2.500e-12 Eh

Convergence Tolerance:
 Convergence Check Mode ConvCheckMode   .... Total+1el-Energy
 Convergence forced     ConvForced      .... 1
 Energy Change          TolE            ....  1.000e-08 Eh
 1-El. energy change                    ....  1.000e-05 Eh
 Orbital Gradient       TolG            ....  1.000e-05
 Orbital Rotation angle TolX            ....  1.000e-05


Diagonalization of the overlap matrix:
Smallest eigenvalue                        ... 1.956e-03
Time for diagonalization                   ...    0.005 sec
Threshold for overlap eigenvalues          ... 1.000e-08
Number of eigenvalues below threshold      ... 0
Time for construction of square roots      ...    0.005 sec
Total time needed                          ...    0.010 sec

-------------------
DFT GRID GENERATION
-------------------

General Integration Accuracy     IntAcc      ...  4.340
Radial Grid Type                 RadialGrid  ... Gauss-Chebyshev
Angular Grid (max. acc.)         AngularGrid ... Lebedev-110
Angular grid pruning method      GridPruning ... 3 (G Style)
Weight generation scheme         WeightScheme... Becke
Basis function cutoff            BFCut       ...    1.0000e-11
Integration weight cutoff        WCut        ...    1.0000e-14
Grids for H and He will be reduced by one unit

# of grid points (after initial pruning)     ...   6548 (   0.0 sec)
# of grid points (after weights+screening)   ...   6395 (   0.0 sec)
nearest neighbour list constructed           ...    0.0 sec
Grid point re-assignment to atoms done       ...    0.0 sec
Grid point division into batches done        ...    0.0 sec
Reduced shell lists constructed in    0.0 sec

Total number of grid points                  ...     6395
Total number of batches                      ...      103
Average number of points per batch           ...       62
Average number of grid points per atom       ...     1066
Average number of shells per batch           ...    38.00 (86.36%)
Average number of basis functions per batch  ...    99.57 (85.84%)
Average number of large shells per batch     ...    36.14 (95.11%)
Average number of large basis fcns per batch ...    94.29 (94.69%)
Average number of aux-shells per batch       ...    38.00 (42.22%)
Average number of aux functions per batch    ...    99.57 (35.82%)
Maximum spatial batch extension              ...  10.68, 12.63, 25.60 au
Average spatial batch extension              ...   0.34,  0.32,  0.56 au

Time for grid setup =    0.024 sec

------------------------------
INITIAL GUESS: MODEL POTENTIAL
------------------------------
Loading Hartree-Fock densities                     ... done
Calculating cut-offs                               ... done
Setting up the integral package                    ... done
Initializing the effective Hamiltonian             ... done
Starting the Coulomb interaction                   ... done (   0.0 sec)
Reading the grid                                   ... done
Mapping shells                                     ... done
Starting the XC term evaluation                    ... done (   0.0 sec)
Transforming the Hamiltonian                       ... done (   0.0 sec)
Diagonalizing the Hamiltonian                      ... done (   0.0 sec)
Back transforming the eigenvectors                 ... done (   0.0 sec)
Now organizing SCF variables                       ... done
                      ------------------
                      INITIAL GUESS DONE (   0.2 sec)
                      ------------------
--------------
SCF ITERATIONS
--------------
ITER       Energy         Delta-E        Max-DP      RMS-DP      [F,P]   Gradient Norm
                             ****Turning on KDIIS(Cayley)****
  0   -114.9640118497   0.000000000000 0.01257854  0.00043037  0.1414244   0.165213624
  1   -115.0005287580  -0.036516908277 0.01777706  0.00043894  0.1307270   0.141606874
  2   -115.0293054565  -0.028776698494 0.02909567  0.00073534  0.1048783   0.115016408
  3   -115.0643684918  -0.035063035247 0.04403395  0.00117373  0.0634056   0.070589930
  4   -115.0869077783  -0.022539286518 0.00356449  0.00013399  0.0034896   0.003877629
                      *** Initiating the SOSCF procedure ***
                           *** Shutting down KDIIS ***
                      *** Re-Reading the Fockian *** 
                      *** Removing any level shift *** 
ITER      Energy       Delta-E        Grad      Rot      Max-DP    RMS-DP
  5   -115.08705517  -0.0001473870  0.000786  0.000786  0.001998  0.000070
  6   -115.08706046  -0.0000052917  0.000286  0.000303  0.000366  0.000014
  7   -115.08706137  -0.0000009152  0.000184  0.000090  0.000186  0.000005
  8   -115.08706182  -0.0000004488  0.000018  0.000019  0.000043  0.000001
  9   -115.08706183  -0.0000000043  0.000014  0.000010  0.000010  0.000000
                 **** Energy Check signals convergence ****
              ***Rediagonalizing the Fockian in SOSCF/NRSCF***

               *****************************************************
               *                     SUCCESS                       *
               *           SCF CONVERGED AFTER  10 CYCLES          *
               *****************************************************


----------------
TOTAL SCF ENERGY
----------------

Total Energy       :         -115.08706183 Eh           -3131.67816 eV

Components:
Nuclear Repulsion  :           40.42526405 Eh            1100.02736 eV
Electronic Energy  :         -155.51232587 Eh           -4231.70552 eV
One Electron Energy:         -237.12799736 Eh           -6452.58085 eV
Two Electron Energy:           81.61567149 Eh            2220.87533 eV

Virial components:
Potential Energy   :         -230.00583389 Eh           -6258.77693 eV
Kinetic Energy     :          114.91877207 Eh            3127.09877 eV
Virial Ratio       :            2.00146442


---------------
SCF CONVERGENCE
---------------

  Last Energy change         ...   -2.6386e-09  Tolerance :   1.0000e-08
  Last MAX-Density change    ...    2.6512e-06  Tolerance :   1.0000e-07
  Last RMS-Density change    ...    1.0307e-07  Tolerance :   5.0000e-09
  Last Orbital Gradient      ...    9.9287e-07  Tolerance :   1.0000e-05
  Last Orbital Rotation      ...    1.2018e-06  Tolerance :   1.0000e-05

             **** THE GBW FILE WAS UPDATED (methanol_anti.gbw) ****
             **** DENSITY FILE WAS UPDATED (methanol_anti.scfp.tmp) ****
             **** ENERGY FILE WAS UPDATED (methanol_anti.en.tmp) ****
----------------
ORBITAL ENERGIES
----------------

  NO   OCC          E(Eh)            E(eV) 
   0   2.0000     -20.548426      -559.1511 
   1   2.0000     -11.277292      -306.8707 
   2   2.0000      -1.362420       -37.0733 
   3   2.0000      -0.915605       -24.9149 
   4   2.0000      -0.690010       -18.7761 
   5   2.0000      -0.619288       -16.8517 
   6   2.0000      -0.593066       -16.1382 
   7   2.0000      -0.498147       -13.5553 
   8   2.0000      -0.444075       -12.0839 
   9   0.0000       0.137603         3.7444 
  10   0.0000       0.180475         4.9110 
  11   0.0000       0.217258         5.9119 
  12   0.0000       0.222576         6.0566 
  13   0.0000       0.287655         7.8275 
  14   0.0000       0.392426        10.6784 
  15   0.0000       0.397144        10.8068 
  16   0.0000       0.552214        15.0265 
  17   0.0000       0.578753        15.7487 
  18   0.0000       0.617903        16.8140 
  19   0.0000       0.620287        16.8789 
  20   0.0000       0.633254        17.2317 
  21   0.0000       0.686711        18.6863 
  22   0.0000       0.707439        19.2504 
  23   0.0000       0.725224        19.7343 
  24   0.0000       0.833178        22.6719 
  25   0.0000       0.863347        23.4929 
  26   0.0000       0.877738        23.8845 
  27   0.0000       0.924845        25.1663 
  28   0.0000       1.050934        28.5974 
  29   0.0000       1.105025        30.0693 
  30   0.0000       1.164641        31.6915 
  31   0.0000       1.173514        31.9329 
  32   0.0000       1.263313        34.3765 
  33   0.0000       1.277732        34.7689 
  34   0.0000       1.284988        34.9663 
  35   0.0000       1.363352        37.0987 
  36   0.0000       1.450465        39.4692 
  37   0.0000       1.505513        40.9671 
  38   0.0000       1.515564        41.2406 
  39   0.0000       1.541384        41.9432 
  40   0.0000       1.553643        42.2768 
  41   0.0000       1.649817        44.8938 
  42   0.0000       1.737023        47.2668 
  43   0.0000       2.078741        56.5654 
  44   0.0000       2.164298        58.8935 
  45   0.0000       2.179319        59.3023 
  46   0.0000       2.306615        62.7662 
  47   0.0000       2.319145        63.1071 
  48   0.0000       2.521992        68.6269 
  49   0.0000       2.544319        69.2344 
  50   0.0000       2.602829        70.8266 
  51   0.0000       2.798953        76.1634 
  52   0.0000       2.945336        80.1467 
  53   0.0000       3.029786        82.4447 
  54   0.0000       3.094986        84.2189 
  55   0.0000       3.107993        84.5728 
  56   0.0000       3.175333        86.4052 
  57   0.0000       3.218886        87.5903 
  58   0.0000       3.244692        88.2926 
  59   0.0000       3.297250        89.7227 
  60   0.0000       3.303957        89.9052 
  61   0.0000       3.363930        91.5372 
  62   0.0000       3.391402        92.2847 
  63   0.0000       3.506669        95.4213 
  64   0.0000       3.576296        97.3160 
  65   0.0000       3.634060        98.8878 
  66   0.0000       3.678375       100.0937 
  67   0.0000       3.685507       100.2877 
  68   0.0000       3.724611       101.3518 
  69   0.0000       3.768182       102.5375 
  70   0.0000       3.786243       103.0289 
  71   0.0000       3.828606       104.1817 
  72   0.0000       3.904482       106.2463 
  73   0.0000       4.052454       110.2729 
  74   0.0000       4.060773       110.4992 
  75   0.0000       4.109187       111.8167 
  76   0.0000       4.133970       112.4910 
  77   0.0000       4.163803       113.3028 
  78   0.0000       4.238929       115.3471 
  79   0.0000       4.264191       116.0345 
  80   0.0000       4.270372       116.2027 
  81   0.0000       4.332956       117.9057 
  82   0.0000       4.426535       120.4521 
  83   0.0000       4.448710       121.0555 
  84   0.0000       4.504335       122.5692 
  85   0.0000       4.560866       124.1075 
  86   0.0000       4.713373       128.2574 
  87   0.0000       4.776469       129.9743 
  88   0.0000       4.949298       134.6772 
  89   0.0000       5.007287       136.2552 
  90   0.0000       5.045834       137.3041 
  91   0.0000       5.195460       141.3756 
  92   0.0000       5.240012       142.5880 
  93   0.0000       5.249205       142.8381 
  94   0.0000       5.284838       143.8078 
  95   0.0000       5.445730       148.1859 
  96   0.0000       5.464755       148.7035 
  97   0.0000       5.489605       149.3798 
  98   0.0000       5.533197       150.5660 
  99   0.0000       5.810232       158.1045 
 100   0.0000       5.981739       162.7714 
 101   0.0000       6.142585       167.1482 
 102   0.0000       6.202268       168.7723 
 103   0.0000       6.236177       169.6950 
 104   0.0000       6.392866       173.9587 
 105   0.0000       6.651730       181.0028 
 106   0.0000       7.039709       191.5602 
 107   0.0000       7.159901       194.8308 
 108   0.0000       7.230045       196.7395 
 109   0.0000       7.244895       197.1436 
 110   0.0000       7.362428       200.3418 
 111   0.0000       7.486931       203.7298 
 112   0.0000       7.605692       206.9614 
 113   0.0000       7.946958       216.2477 
 114   0.0000      12.234569       332.9195 
 115   0.0000      13.491884       367.1328 

                    ********************************
                    * MULLIKEN POPULATION ANALYSIS *
                    ********************************

-----------------------
MULLIKEN ATOMIC CHARGES
-----------------------
   0 C :   -0.006513
   1 O :   -0.398991
   2 H :    0.217472
   3 H :    0.050932
   4 H :    0.086170
   5 H :    0.050930
Sum of atomic charges:   -0.0000000

--------------------------------
MULLIKEN REDUCED ORBITAL CHARGES
--------------------------------
  0 C s       :     3.211703  s :     3.211703
      pz      :     0.973844  p :     2.679127
      px      :     0.687835
      py      :     1.017448
      dz2     :     0.014463  d :     0.106039
      dxz     :     0.026174
      dyz     :     0.012592
      dx2y2   :     0.025817
      dxy     :     0.026994
      f0      :     0.001178  f :     0.009644
      f+1     :     0.001264
      f-1     :     0.001430
      f+2     :     0.001778
      f-2     :     0.000054
      f+3     :     0.001972
      f-3     :     0.001968
  1 O s       :     3.745067  s :     3.745067
      pz      :     1.897633  p :     4.625130
      px      :     1.295814
      py      :     1.431683
      dz2     :     0.004656  d :     0.027326
      dxz     :     0.002945
      dyz     :     0.001104
      dx2y2   :     0.012190
      dxy     :     0.006430
      f0      :     0.000164  f :     0.001468
      f+1     :     0.000405
      f-1     :     0.000244
      f+2     :     0.000084
      f-2     :     0.000034
      f+3     :     0.000401
      f-3     :     0.000136
  2 H s       :     0.693308  s :     0.693308
      pz      :     0.035452  p :     0.081578
      px      :     0.022026
      py      :     0.024099
      dz2     :     0.000506  d :     0.007643
      dxz     :     0.000493
      dyz     :     0.002921
      dx2y2   :     0.002090
      dxy     :     0.001633
  3 H s       :     0.922805  s :     0.922805
      pz      :     0.010761  p :     0.024209
      px      :     0.004068
      py      :     0.009380
      dz2     :     0.000605  d :     0.002054
      dxz     :     0.000431
      dyz     :     0.000643
      dx2y2   :     0.000202
      dxy     :     0.000173
  4 H s       :     0.886432  s :     0.886432
      pz      :     0.009347  p :     0.025398
      px      :     0.004292
      py      :     0.011758
      dz2     :     0.000222  d :     0.002001
      dxz     :     0.000063
      dyz     :     0.000553
      dx2y2   :     0.000485
      dxy     :     0.000678
  5 H s       :     0.922807  s :     0.922807
      pz      :     0.010761  p :     0.024209
      px      :     0.004068
      py      :     0.009380
      dz2     :     0.000605  d :     0.002054
      dxz     :     0.000431
      dyz     :     0.000643
      dx2y2   :     0.000202
      dxy     :     0.000173


                     *******************************
                     * LOEWDIN POPULATION ANALYSIS *
                     *******************************

----------------------
LOEWDIN ATOMIC CHARGES
----------------------
   0 C :    0.000186
   1 O :    0.333704
   2 H :   -0.223045
   3 H :   -0.042805
   4 H :   -0.025236
   5 H :   -0.042803

-------------------------------
LOEWDIN REDUCED ORBITAL CHARGES
-------------------------------
  0 C s       :     2.700481  s :     2.700481
      pz      :     1.004147  p :     2.767302
      px      :     0.752349
      py      :     1.010807
      dz2     :     0.066122  d :     0.465811
      dxz     :     0.121294
      dyz     :     0.061008
      dx2y2   :     0.098232
      dxy     :     0.119155
      f0      :     0.007534  f :     0.066220
      f+1     :     0.008807
      f-1     :     0.005087
      f+2     :     0.013585
      f-2     :     0.002817
      f+3     :     0.013137
      f-3     :     0.015253
  1 O s       :     3.195434  s :     3.195434
      pz      :     1.686326  p :     4.395111
      px      :     1.262498
      py      :     1.446287
      dz2     :     0.008286  d :     0.071016
      dxz     :     0.012284
      dyz     :     0.001106
      dx2y2   :     0.026469
      dxy     :     0.022871
      f0      :     0.000604  f :     0.004735
      f+1     :     0.000415
      f-1     :     0.000310
      f+2     :     0.000513
      f-2     :     0.000138
      f+3     :     0.001297
      f-3     :     0.001458
  2 H s       :     0.728534  s :     0.728534
      pz      :     0.120095  p :     0.385041
      px      :     0.087334
      py      :     0.177613
      dz2     :     0.008269  d :     0.109471
      dxz     :     0.006645
      dyz     :     0.036002
      dx2y2   :     0.033170
      dxy     :     0.025385
  3 H s       :     0.879515  s :     0.879515
      pz      :     0.063106  p :     0.138461
      px      :     0.029192
      py      :     0.046163
      dz2     :     0.007979  d :     0.024830
      dxz     :     0.004986
      dyz     :     0.006744
      dx2y2   :     0.002960
      dxy     :     0.002161
  4 H s       :     0.866636  s :     0.866636
      pz      :     0.035865  p :     0.134136
      px      :     0.029771
      py      :     0.068500
      dz2     :     0.002374  d :     0.024464
      dxz     :     0.001076
      dyz     :     0.007444
      dx2y2   :     0.006785
      dxy     :     0.006785
  5 H s       :     0.879515  s :     0.879515
      pz      :     0.063105  p :     0.138459
      px      :     0.029191
      py      :     0.046162
      dz2     :     0.007978  d :     0.024829
      dxz     :     0.004986
      dyz     :     0.006744
      dx2y2   :     0.002960
      dxy     :     0.002161


                      *****************************
                      * MAYER POPULATION ANALYSIS *
                      *****************************

  NA   - Mulliken gross atomic population
  ZA   - Total nuclear charge
  QA   - Mulliken gross atomic charge
  VA   - Mayer's total valence
  BVA  - Mayer's bonded valence
  FA   - Mayer's free valence

  ATOM       NA         ZA         QA         VA         BVA        FA
  0 C      6.0065     6.0000    -0.0065     3.9229     3.9229     0.0000
  1 O      8.3990     8.0000    -0.3990     1.9699     1.9699    -0.0000
  2 H      0.7825     1.0000     0.2175     1.0193     1.0193    -0.0000
  3 H      0.9491     1.0000     0.0509     0.9693     0.9693     0.0000
  4 H      0.9138     1.0000     0.0862     0.9762     0.9762     0.0000
  5 H      0.9491     1.0000     0.0509     0.9693     0.9693    -0.0000

  Mayer bond orders larger than 0.1
B(  0-C ,  1-O ) :   0.9759 B(  0-C ,  3-H ) :   0.9764 B(  0-C ,  4-H ) :   0.9776 
B(  0-C ,  5-H ) :   0.9764 B(  1-O ,  2-H ) :   1.0000 

-------
TIMINGS
-------

Total SCF time: 0 days 0 hours 0 min 2 sec 

Total time                  ....       2.116 sec
Sum of individual times     ....       1.965 sec  ( 92.9%)

Fock matrix formation       ....       1.785 sec  ( 84.3%)
Diagonalization             ....       0.010 sec  (  0.5%)
Density matrix formation    ....       0.002 sec  (  0.1%)
Population analysis         ....       0.006 sec  (  0.3%)
Initial guess               ....       0.133 sec  (  6.3%)
Orbital Transformation      ....       0.000 sec  (  0.0%)
Orbital Orthonormalization  ....       0.000 sec  (  0.0%)
DIIS solution               ....       0.000 sec  (  0.0%)
SOSCF solution              ....       0.006 sec  (  0.3%)


           ************************************************************
           *        Program running with 8 parallel MPI-processes     *
           *              working on a common directory               *
           ************************************************************


------------------------------------------------------------------------------- 
                              ORCA-MATRIX DRIVEN CI                            
------------------------------------------------------------------------------- 


Wavefunction type
-----------------
Correlation treatment                      ...      CCSD     
Single excitations                         ... ON
Orbital optimization                       ... OFF
Calculation of Z vector                    ... OFF
Calculation of Brueckner orbitals          ... OFF
Perturbative triple excitations            ... ON
Calculation of F12 correction              ... OFF
Frozen core treatment                      ... chemical core (4 el)
Reference Wavefunction                     ... RHF
  Internal Orbitals:     2 ...    8 (  7 MO's/ 14 electrons)
  Virtual  Orbitals:     9 ...  115 (107 MO's              )
Number of AO's                             ...    116
Number of electrons                        ...     18
Number of correlated electrons             ...     14

Algorithmic settings
--------------------
Integral transformation                    ... All integrals via the RI transformation
K(C) Formation                             ... RI-DLPNO
   PNO-Integral Storage                    ... ON DISK
   PNO occupation number cut-off           ... 1.000e-07
   Singles PNO occupation number cut-off   ... 3.000e-09
   PNO Mulliken prescreening cut-off       ... 1.000e-03
   Domain cut-off (Mulliken population)    ... 1.000e-03
   PNO Normalization                       ...    1
Maximum number of iterations               ...        50
Convergence tolerance (max. residuum)      ... 1.000e-05
Level shift for amplitude update           ... 2.000e-01
Maximum number of DIIS vectors             ...         7
DIIS turned on at iteration                ...         0
Damping before turning on DIIS             ...     0.500
Damping after turning on DIIS              ...     0.000
Pair specific amplitude update             ... OFF
Natural orbital iterations                 ... OFF
Perturbative natural orbital generation    ... OFF
Printlevel                                 ... 2

Singles Fock matrix elements calculated using PNOs.

Memory handling:
----------------
Maximum memory for working arrays          ...   8000 MB
Data storage in matrix containers          ... UNCOMPRESSED
Data type for integral storage             ... DOUBLE
In-Core Storage of quantities:
   Amplitudes+Sigma Vector      ... NO
   J+K operators                ... NO
   DIIS vectors                 ... NO
   3-external integrals         ... NO
   4-external integrals         ... NO

Localization treatment:
-----------------------
Localization option                        ...    6
Localization threshhold                    ... -1.0e+00
Using relative localization threshhold     ... 1.0e-08
Neglect threshold for strong pairs         ... 1.000e-05 Eh
Prescreening threshold for very weak pairs ... 1.000e-07 Eh

Initializing the integral package          ... done
Localizing the valence orbitals
------------------------------------------------------------------------------
                           ORCA ORBITAL LOCALIZATION
------------------------------------------------------------------------------

Input orbitals are from                  ... methanol_anti.proc0.gbw
Output orbitals are to                   ... methanol_anti.proc0.loc
Max. number of iterations                ... 128
Localizations seeded randomly            ... off
Convergence tolerance                    ... 1.000e-06
Using relative localization threshhold   ... 1.000e-08
Treshold for strong local MOs            ... 9.500e-01
Treshold for bond MOs                    ... 8.500e-01
Operator                                 ... 0
Orbital range for localization           ... 2 to 8
Localization criterion                   ... FOSTER-BOYS (AUGMENTED HESSIAN)
Doing the dipole integrals     ... o.k.
Initial value of the localization sum :    13.961499
ITERATION   0 : L=   23.3902964482 DL=  9.43e+00 (AVERGE_DL)=    0.6700674245 
ITERATION   1 : L=   23.7736402926 DL=  3.83e-01 (AVERGE_DL)=    0.1351090996 
ITERATION   2 : L=   23.7805775224 DL=  6.94e-03 (AVERGE_DL)=    0.0181753755 
ITERATION   3 : L=   23.7812493763 DL=  6.72e-04 (AVERGE_DL)=    0.0056562395 
ITERATION   4 : L=   23.7813247476 DL=  7.54e-05 (AVERGE_DL)=    0.0018944941 
ITERATION   5 : L=   23.7813323556 DL=  7.61e-06 (AVERGE_DL)=    0.0006019019 
ITERATION   6 : L=   23.7813330867 DL=  7.31e-07 (AVERGE_DL)=    0.0001865860 
LOCALIZATION SUM CONVERGED

------------------------------------------------------
AUGMENTED HESSIAN OPTIMIZATION OF FOSTER-BOYS ORBITALS
------------------------------------------------------

Spin operator:           0
Orbital window:          2 to 8
Number of iterations:    128
Gradient tolerance:      1.000e-06
Number of pairs:         21
Davidson threshold:      2000
Diagonalization method:  LAPACK
Iter:    0   L: 23.7813330867   Grad. norm: 5.153944e-04
   *** Likely close to a maximum now. ***
       Augmented Hessian eigenvalues:  1.47e-07 -1.33e+00 -3.43e+00 -5.00e+00 ... 
Iter:    1   L: 23.7813331604   Grad. norm: 7.304691e-08
LOCALIZATION HAS CONVERGED.

Eigenvalues of the Hessian:
  0 -1.330e+00
  1 -3.430e+00
  2 -4.997e+00
  3 -5.461e+00
  4 -7.410e+00
  5 -1.012e+01
  6 -1.851e+01
  7 -2.185e+01
  8 -2.204e+01
  9 -2.471e+01
    ...


------------------------------------------------------------------------------- 
                    LOCALIZED MOLECULAR ORBITAL COMPOSITIONS                   
------------------------------------------------------------------------------- 

The Mulliken populations for each LMO on each atom are computed
The LMO`s will be ordered according to atom index and type
  (A) Strongly localized MO`s have populations of >=0.950 on one atom
  (B) Two center bond orbitals have populations of >=0.850 on two atoms
  (C) Other MO`s are considered to be `delocalized`

FOUND  -   2 strongly local MO`s
       -   5 two center bond MO`s
       -   0 significantly delocalized MO`s

Rather strongly localized orbitals:
MO   3:   1O  -   0.985421
MO   2:   1O  -   0.985421
Bond-like localized orbitals:
MO   8:   5H  -   0.501150  and   0C  -   0.535631
MO   7:   4H  -   0.476638  and   0C  -   0.546496
MO   6:   3H  -   0.501150  and   0C  -   0.535631
MO   5:   2H  -   0.393525  and   1O  -   0.613517
MO   4:   1O  -   0.657715  and   0C  -   0.355214
Localized MO's were stored in: methanol_anti.proc0.loc

Localizing the core orbitals
------------------------------------------------------------------------------
                           ORCA ORBITAL LOCALIZATION
------------------------------------------------------------------------------

Input orbitals are from                  ... methanol_anti.proc0.loc
Output orbitals are to                   ... methanol_anti.proc0.loc
Max. number of iterations                ... 128
Localizations seeded randomly            ... off
Convergence tolerance                    ... 1.000e-06
Using relative localization threshhold   ... 1.000e-08
Treshold for strong local MOs            ... 9.500e-01
Treshold for bond MOs                    ... 8.500e-01
Operator                                 ... 0
Orbital range for localization           ... 0 to 1
Localization criterion                   ... FOSTER-BOYS (AUGMENTED HESSIAN)
Doing the dipole integrals     ... o.k.
Initial value of the localization sum :     3.572591
ITERATION   0 : L=    3.5725916698 DL=  9.58e-07 (AVERGE_DL)=    0.0009787713 
LOCALIZATION SUM CONVERGED

------------------------------------------------------
AUGMENTED HESSIAN OPTIMIZATION OF FOSTER-BOYS ORBITALS
------------------------------------------------------

Spin operator:           0
Orbital window:          0 to 1
Number of iterations:    128
Gradient tolerance:      1.000e-06
Number of pairs:         1
Davidson threshold:      2000
Diagonalization method:  LAPACK
Iter:    0   L: 3.5725916698   Grad. norm: 4.615079e-18
   *** Likely close to a maximum now. ***
       Augmented Hessian eigenvalues:  7.52e-37 -2.83e+01
Iter:    1   L: 3.5725916698   Grad. norm: 1.109405e-23
LOCALIZATION HAS CONVERGED.

Eigenvalues of the Hessian:
  0 -2.833e+01


------------------------------------------------------------------------------- 
                    LOCALIZED MOLECULAR ORBITAL COMPOSITIONS                   
------------------------------------------------------------------------------- 

The Mulliken populations for each LMO on each atom are computed
The LMO`s will be ordered according to atom index and type
  (A) Strongly localized MO`s have populations of >=0.950 on one atom
  (B) Two center bond orbitals have populations of >=0.850 on two atoms
  (C) Other MO`s are considered to be `delocalized`

FOUND  -   2 strongly local MO`s
       -   0 two center bond MO`s
       -   0 significantly delocalized MO`s

Rather strongly localized orbitals:
MO   1:   1O  -   0.999766
MO   0:   0C  -   1.000641
Localized MO's were stored in: methanol_anti.proc0.loc

Warning: internal orbitals are localized - no re-canonicalization of internal orbitals

--------------------------
CLOSED-SHELL FOCK OPERATOR
--------------------------

RI-JK section for the Fock operator:
  RHF full Fock operator         ... done
  RHF frozen core Fock operator  ... done
Time needed for Fock operator              ...            0.418 sec
Reference energy                           ...   -115.087061828

--------------
DLPNO SETTINGS (2015 fully linear scaling implementation)
--------------

TCutMKN:           1.000e-03
TCutPAO:           1.000e-03
TCutPNO:           1.000e-07
TCutPNOSingles:    3.000e-09
TCutEN:            9.700e-01
TCutPAOExt:        1.000e-01
TCutPairs:         1.000e-05
TCutPre:           1.000e-07
TCutOSV:           1.000e-06
TCutDOij:          1.000e-05
TCutDO:            5.000e-03
TCutC:             1.000e-04
TCutCPAO:          1.000e-03
TCutCMO:           1.000e-03
TScaleDOMP2PreScr: 2.000e+00
TScaleMKNMP2PreScr:1.000e+01
TScalePNOMP2PreScr:1.000e+00
PAO overlap thresh 1.000e-08
Using PNOs for Singles Fock computation
Use new domains
Use fully linear algorithm
TCutTNO:           1.000e-09
TCutMP2Pairs:      1.000e-06
TCutDOStrong:      2.000e-03
TCutMKNStrong:     1.000e-02
TCutMKNWeak:       1.000e-01
TCutDOWeak:        4.000e-03
NTCutTNO:          1

--------------------------
Calculating differential overlap integrals ... ok
--------------------------
ELECTRON PAIR PRESCREENING
--------------------------

Dipole-based pair screening          .... used

   TCutDOij = 1.000000e-05
   TCutPre  = 1.000000e-07
   .... Finished loop over pairs
Total time spent in the prescreening                  ...     0.000 sec
sum of pair energies estimated for screened out pairs ...       0.000000000000 Eh
Thresholds for map construction and integral transformation for crude MP2:
   TCutMKN                    ...     1.0e-02
   TCutDO                     ...     1.0e-02
   TCutPairs                  ...     1.0e-05
   TCutPNO_CrudeMP2           ...     1.0e-07
   TCutPNOSingles_CrudeMP2    ...     3.0e-09
--------------------------------
LOCAL RI TRANSFORMATION (IAVPAO)
--------------------------------

Orbital window:       2 to 8
Number of PAOs:     116
Basis functions:    116 (44 shells)
Aux. functions:     282 (86 shells)

Processing maps (0.0 sec)
Average map sizes:
   Aux shells -> MOs               7.0
   Aux shells -> PAOs            116.0
   MOs        -> AO shells        44.0
   PAOs       -> AO shells        44.0

Calculating integrals (0.2 sec, 1.750 MB)
Sorting integrals (0.0 sec, 1.747 MB)
Total time for the integral transformation: 0.3 sec
--------------------------------
INITIAL GUESS AND PNO GENERATION
--------------------------------

PNO truncation parameters                   .... 
    PAOOverlapThresh   =        1.000e-08

    TCutPairs          =        1.000e-05
    TCutPNO            =        1.000e-07
    TCutPNOSingles     =        3.000e-09
    TCutMP2Pairs       =        1.000e-06
    TCutMKN            =        1.000e-02
    TCutDO             =        1.000e-02

Pair selection                          .... not used
Type of local MP2 treatment                 .... semi-local MP2
Strategy for PNO selection                  .... occupation number selection
Pair density normalization                  .... MP2 norm
Spin component scaling                      .... not used

   .... Finished loop over pairs
Making pair pair interaction lists          ... done

                       ===========================
                         28 OF   28 PAIRS ARE KEPT CCSD PAIRS
                          0 OF   28 PAIRS ARE KEPT MP2 PAIRS FOR (T)
                          0 OF   28 PAIRS ARE SKIPPED
                       ===========================

Total time spent in the initial guess                 ...     0.043 sec
SL-MP2 correlation energy (all non-screened pairs)    ...      -0.415558079616 Eh

Initial PNO correlation energy                        ...      -0.415399222882 Eh
sum of pair energies prescreened and skipped MP2 pairs...       0.000000000000 Eh
sum of pair energies of crude MP2 skipped pairs only  ...       0.000000000000 Eh
sum of MP2 pair energies for pairs that were not kept ...       0.000000000000 Eh
sum of PNO error estimates for the kept pairs         ...      -0.000158856734 Eh
                                                          --------------------
sum of all corrections                                         -0.000158856734
Initial total correlation energy                               -0.415558079616
Thresholds for map construction and integral transformation for fine MP2 and CCSD(T) calculation:
   TCutMKN   ...     1.0e-03
   TCutDO    ...     5.0e-03
   TCutPairs ...     1.0e-05
   TCutCMO   ...     1.0e-03
   TCutCPAO  ...     1.0e-03

Thresholds for map construction and integral transformation for strong Triples:
   TCutMKN   ...     1.0e-02
   TCutDO    ...     1.0e-02
   TCutCMO   ...     1.0e-03
   TCutCPAO  ...     1.0e-03

Thresholds for map construction and integral transformation for weak Triples:
   TCutMKN   ...     1.0e-01
   TCutDO    ...     2.0e-02
   TCutCMO   ...     1.0e-03
   TCutCPAO  ...     1.0e-03

--------------------------------
LOCAL RI TRANSFORMATION (IAVPAO)
--------------------------------

Orbital window:       2 to 8
Number of PAOs:     116
Basis functions:    116 (44 shells)
Aux. functions:     282 (86 shells)

Processing maps (0.0 sec)
Average map sizes:
   Aux shells -> MOs               7.0
   Aux shells -> PAOs            116.0
   MOs        -> AO shells        44.0
   PAOs       -> AO shells        44.0

Calculating integrals (0.2 sec, 1.750 MB)
Sorting integrals (0.0 sec, 1.747 MB)
Total time for the integral transformation: 0.3 sec
--------------------------------
INITIAL GUESS AND PNO GENERATION
--------------------------------

PNO truncation parameters                   .... 
    ScaleTCutPNO       =        1.000e-02
    PAOOverlapThresh   =        1.000e-08

    TCutPairs          =        1.000e-05
    TCutPNO            =        1.000e-07
    TCutPNOSingles     =        3.000e-09
    TCutMP2Pairs       =        1.000e-06
    TCutMKN            =        1.000e-03
    TCutDO             =        5.000e-03

Pair selection                          .... not used
Type of local MP2 treatment                 .... full local PMP2
Strategy for PNO selection                  .... occupation number selection
Pair density normalization                  .... MP2 norm
Spin component scaling                      .... not used

PASS-1: Formation of initial guess LMP2 amplitudes
Initial amplitudes guess done. Entering LMP2 iteration loop:
   Max. no of iterations          ...  50
   Energy convergence tolerance   ...    1.0e-07
   Residual convergence tolerance ...    5.0e-07
   Fock matrix cutoff             ...    1.0e-05 Eh
   DIIS convergence acceleration parameters:
        Max # vectors in DIIS     ... 7
        Start iteration of DIIS   ... 0
        Levelshift                ... 2.000e-01
        Damping factor 1          ... 5.000e-01
        Damping factor 2          ... 1.000e+00
   L-MP2 PNO cut-off              ...   1.0e-09
   L-MP2 PNO cut-off (core)       ...   1.0e-11
                           *** Turning on DIIS ***
LMP2-Iter=   0:  ELMP2= -0.422863988923  DE=   7.3e-03 RMAX=   6.0e-03
LMP2-Iter=   1:  ELMP2= -0.426746081020  DE=   3.9e-03 RMAX=   3.1e-03
LMP2-Iter=   2:  ELMP2= -0.427306816218  DE=   5.6e-04 RMAX=   4.5e-04
LMP2-Iter=   3:  ELMP2= -0.427375928545  DE=   6.9e-05 RMAX=   1.6e-04
LMP2-Iter=   4:  ELMP2= -0.427380488072  DE=   4.6e-06 RMAX=   2.4e-05
LMP2-Iter=   5:  ELMP2= -0.427380262796  DE=   2.3e-07 RMAX=   8.2e-06
LMP2-Iter=   6:  ELMP2= -0.427380195179  DE=   6.8e-08 RMAX=   9.7e-07
LMP2-Iter=   7:  ELMP2= -0.427380185929  DE=   9.3e-09 RMAX=   2.9e-07
LMP2-Iter=   8:  ELMP2= -0.427380189926  DE=   4.0e-09 RMAX=   3.1e-08 => CONVERGED
PASS-2: Formation of Pair natural orbitals
   .... Finished loop over pairs

 PNO Occupation Number Statistics: 
  | Av. % of trace(Dij) retained        ...  99.955158951892
  | sigma^2 in % of trace(Dij) retained ...   2.91e-03
  | Av. % of trace(Di) retained         ...  99.999838156392
  | sigma^2 in % of trace(Di) retained  ...   4.92e-10
 Distributions of % trace(Dij) recovered:
  |       >= 99.9  ...    21 ( 75.0 % of all pairs)
  |   [99.0, 99.9) ...     7 ( 25.0 % of all pairs)
 Distributions of % trace(Di) recovered :
  |       >= 99.9  ...     7 (100.0 % of all I-pairs )

Making pair pair interaction lists          ... done

                       ===========================
                         28 OF   28 PAIRS ARE KEPT
                       ===========================

Total time spent in the initial guess                 ...     0.401 sec
L-MP2 correlation energy (all non-screened pairs)     ...      -0.427380189926 Eh
L-MP2 PNO error correction                            ...      -0.000001094689 Eh
                                                          --------------------
Initial total L-MP2 energy (non-screened pairs)       ...      -0.427381284615 Eh

Initial PNO correlation energy                        ...      -0.427223962677 Eh
sum of pair energies estimated for screened out pairs ...       0.000000000000 Eh
sum of MP2 pair energies for pairs that were not kept ...       0.000000000000 Eh
sum of PNO error estimates for the kept pairs         ...      -0.000157321938 Eh
                                                          --------------------
sum of all corrections                                         -0.000157321938
Initial total correlation energy                               -0.427381284615
Thresholds for map construction and integral transformation for fine MP2 and CCSD(T) calculation:
   TCutMKN   ...     1.0e-03
   TCutDO    ...     5.0e-03
   TCutPairs ...     1.0e-05
   TCutCMO   ...     1.0e-03
   TCutCPAO  ...     1.0e-03

Time for aux screen maps:            0.000
Time for maps after fine MP2:            0.001
-----------------------------
LOCAL RI TRANSFORMATION (IJV)
-----------------------------

Orbital window:       2 to 8
Basis functions:    116 (44 shells)
Aux. functions:     282 (86 shells)

Processing maps (0.0 sec)
Average map sizes:
   Aux shells -> MOs(i)            7.0
   Aux shells -> MOs(j)            7.0
   MOs        -> AO shells        44.0

Calculating integrals (0.3 sec, 0.109 MB)
Sorting integrals (0.0 sec, 0.106 MB)
Total time for the integral transformation: 0.3 sec
--------------------------------
LOCAL RI TRANSFORMATION (VABPAO)
--------------------------------

Number of PAOs:     116
Basis functions:    116 (44 shells)
Aux. functions:     282 (86 shells)

Processing maps (0.0 sec)
Average map sizes:
   Aux shells -> PAOs            116.0
   PAOs       -> AO shells        44.0

Calculating integrals (0.3 sec, 54.724 MB)
Finished


-------------------------------------
Pair Pair Term precalculation with     
RI-(ij|mn) and (im|jn) transformation  
ON THE FLY                             
-------------------------------------

   IBatch   1 (of   1)              ... done (    0.886 sec)
Total EXT                           ...           0.886 sec

---------------------
RI-PNO TRANSFORMATION
---------------------

Total Number of PNOs                   ...  1444
Average number of PNOs per pair        ...    51
Maximal number of PNOs per pair        ...    61
   #pairs with  1 -  5 PNOs   :    0
   #pairs with  6 - 10 PNOs   :    0
   #pairs with 11 - 15 PNOs   :    0
   #pairs with 16 - 20 PNOs   :    0
   #pairs with 21 - 25 PNOs   :    0
   #pairs with 26 - 30 PNOs   :    0
   #pairs with 31 - 35 PNOs   :    0
   #pairs with 36 - 40 PNOs   :    0
   #pairs with 41 - 45 PNOs   :    5
   #pairs with 46 - 50 PNOs   :   13
   #pairs with 56 - 60 PNOs   :    8
   #pairs with 61 - 65 PNOs   :    2

Generation of (ij|ab)[P] integrals            ... on
Generation of (ia|bc)[P],(ja|bc)[P] integrals ... on
Storage of 3 and 4 external integrals         ... on
Generation of ALL (ka|bc)[P] integrals        ... on
Keep RI integrals in memory                   ... off

Ibatch:  1 (of  1)
Starting 2-4 index PNO integral generation ... done

Timings:
Total PNO integral transformation time     ...          1.155 sec
Size of the 3-external file                ...        31 MB
Size of the 4-external file                ...       211 MB
Size of the IKJL file                      ...         0 MB
Size of the all 3-external file            ...       108 MB
Size of the 1-external file                ...         0 MB

Making pair/pair overlap matrices          ... done (    0.030 sec)
Size of the pair overlap file              ... 14 MB
Redoing the guess amplitudes               ... done (    0.001 sec)

-------------------------
FINAL STARTUP INFORMATION
-------------------------

E(0)                                       ...   -115.087061828
E(L-MP2)                                   ...     -0.427381285
E(L-MP2) including corrections             ...     -0.427381285
Initial E(tot)                             ...   -115.514443113
<T|T>                                      ...      0.102507845
Number of pairs included                   ... 28
Total number of pairs                      ... 28

------------------------------------------------
                  RHF COUPLED CLUSTER ITERATIONS
------------------------------------------------

Number of PNO amplitudes to be optimized   ...        75434
Number of non-PNO amplitudes               ...       320572
Untruncated number of regular amplitudes   ...       320572

Iter       E(tot)           E(Corr)          Delta-E          Residual     Time
  0   -115.502586027     -0.415366877      0.012014408      0.017452238    1.64
                           *** Turning on DIIS ***
  1   -115.520089061     -0.432869911     -0.017503034      0.006756497    1.64
  2   -115.531007680     -0.443788530     -0.010918619      0.002211910    1.64
  3   -115.533090815     -0.445871666     -0.002083136      0.000885305    1.64
  4   -115.533557027     -0.446337877     -0.000466211      0.000287545    1.65
  5   -115.533637173     -0.446418023     -0.000080146      0.000142282    1.64
  6   -115.533654347     -0.446435197     -0.000017174      0.000069834    1.64
  7   -115.533656610     -0.446437460     -0.000002263      0.000029308    1.65
  8   -115.533656973     -0.446437823     -0.000000363      0.000008828    1.69
               --- The Coupled-Cluster iterations have converged ---

----------------------
COUPLED CLUSTER ENERGY
----------------------

E(0)                                       ...   -115.087061828
E(CORR)(strong-pairs)                      ...     -0.446437823
E(CORR)(weak-pairs)                        ...     -0.000157322
E(CORR)(corrected)                         ...     -0.446595145
E(TOT)                                     ...   -115.533656973
Singles Norm <S|S>**1/2                    ...      0.030577211  
T1 diagnostic                              ...      0.008172103  

------------------
LARGEST AMPLITUDES
------------------
   8-> 15   8-> 15       0.039236
   6-> 15   6-> 15       0.039236
   8->  9   8->  9       0.029045
   6->  9   6->  9       0.029045
   8->  9   8-> 15       0.028167
   8-> 15   8->  9       0.028167
   6-> 15   6->  9       0.028167
   6->  9   6-> 15       0.028167
   7->  9   7->  9       0.028163
   5->  9   5->  9       0.026473
   4->  9   4->  9       0.024913
   5-> 11   5-> 11       0.023919
   7-> 13   7-> 13       0.023331
   5-> 13   5-> 13       0.023293
   5-> 13   5->  9       0.023076
   5->  9   5-> 13       0.023076


-------------------------------------------
DLPNO BASED TRIPLES CORRECTION
-------------------------------------------

Singles multiplier          ...  1.000000
TCutTNO                     ... 1.000e-09
TCutMP2Pairs                ... 1.000e-06
TCutDOStrong                ... 1.000e-02
TCutMKNStrong               ... 1.000e-02
TCutDOWeak                  ... 2.000e-02
TCutMKNWeak                 ... 1.000e-01

Fragment selection                          .... not used
Number of Triples that are to be computed   ...        77

 . . . . . . . . .
10% done  
20% done  
30% done  
40% done  
50% done  
60% done  
70% done  
80% done  
90% done               (      1.575 sec)
Triples timings:
Total time for T0               ...     1.648 sec
Total time for Iterative (T)    ...     0.000 sec
Total time of overall (T)       ...     1.902 sec

Triples List generation         ...     0.000 sec
TNO generation                  ...     0.071 sec
Pair density generation         ...     0.001 sec
Look up tables                  ...     0.000 sec
Generating 3-index integrals    ...     0.431 sec
  Make 4-ind.int. from 3-ind.int...     0.450 sec
  Projecting amplitudes (D + S) ...     0.047 sec
  Downprojecting integrals      ...     0.000 sec
  Energy contr. (sum over a,b,c)...     0.182 sec
Fitting ET(->0)                 ...     0.000 sec

Everything after 3-index        ...     1.144 sec

Timing details:
 TNO integrals                  ...     0.847 sec
   Reading 3-index integrals    ...     0.009 sec
   Sorting integrals            ...     0.293 sec
       Sorting integrals 1      ...     0.000 sec
       Sorting integrals 2      ...     0.025 sec
       Sorting integrals 3      ...     0.009 sec
       Sorting integrals 4      ...     0.000 sec
       Sorting integrals 5      ...     0.001 sec
       Sorting integrals 6      ...     0.258 sec
   Calculating local VM**-1/2   ...     0.004 sec
   Orthogonal. integrals        ...     0.012 sec
   Multipl. 3-index integrals   ...     0.529 sec
   All concerning IRIab (w/TNO) ...     0.161 sec

 Calculate W0/W1                ...     0.463 sec
 W 3-ext contribution           ...     0.244 sec
 W 3-int contribution           ...     0.059 sec
 Sorting W                      ...     0.152 sec

 V exchange contribution        ...     0.064 sec

 Timings for Triples without generation
     of 3-index integrals       ...     1.143 sec
       0 weak pairs             ...     1.143 sec
       1 weak pair              ...     0.000 sec
       2 weak pairs             ...     0.000 sec
       3 weak pairs             ...     0.000 sec
  Extra time for extrapolation  ...     0.000 sec

Number of Triples   (0, 1, 2, 3 weak pairs; overall):     77       0       0       0  (    77)
Number of Atoms     (0, 1, 2, 3 weak pairs; overall):    6.0     0.0     0.0     0.0  (     6)
Number of PAOs      (0, 1, 2, 3 weak pairs; overall):  116.0     0.0     0.0     0.0  (   116)
Number of AuxFcns   (0, 1, 2, 3 weak pairs; overall):  219.7     0.0     0.0     0.0  (   282)
Number of TNOs      (0, 1, 2, 3 weak pairs         ):   88.3     0.0     0.0     0.0
Aver. Number of NTNO, Atoms, PAOs, AuxFcns / Triples:     77    88.3     6.0   116.0   219.7

Triples Correction (T)                     ...     -0.014218244
Final correlation energy                   ...     -0.460813389
E(CCSD)                                    ...   -115.533656973
E(CCSD(T))                                 ...   -115.547875217


Maximum memory used throughout the entire calculation: 402.5 MB


------------------------------------------------------------------------------- 
                                     TIMINGS                                   
------------------------------------------------------------------------------- 


Total execution time                   ...       21.570 sec

Localization of occupied MO's          ...        0.385 sec (  1.8%)
Fock Matrix Formation                  ...        0.418 sec (  1.9%)
Global overlap, Fock, MKN matrices     ...        0.152 sec (  0.7%)
Differential overlap integrals         ...        0.020 sec (  0.1%)
Organizing maps                        ...        0.004 sec (  0.0%)
RI 3-index integral generations        ...        1.055 sec (  4.9%)
RI-PNO integral transformation         ...        2.167 sec ( 10.0%)
Initial Guess                          ...        0.452 sec (  2.1%)
DIIS Solver                            ...        0.167 sec (  0.8%)
State Vector Update                    ...        0.005 sec (  0.0%)
Sigma-vector construction              ...       14.773 sec ( 68.5%)
  <D|H|D>(0-ext)                       ...        0.086 sec (  0.6% of sigma)
  <D|H|D>(2-ext Fock)                  ...        0.002 sec (  0.0% of sigma)
  <D|H|D>(2-ext)                       ...        0.288 sec (  1.9% of sigma)
  <D|H|D>(4-ext)                       ...        2.783 sec ( 18.8% of sigma)
  <D|H|D>(4-ext-corr)                  ...        9.863 sec ( 66.8% of sigma)
  CCSD doubles correction              ...        0.013 sec (  0.1% of sigma)
  <S|H|S>                              ...        0.033 sec (  0.2% of sigma)
  <S|H|D>(1-ext)                       ...        0.017 sec (  0.1% of sigma)
  <S|H|D>(3-ext)                       ...        0.090 sec (  0.6% of sigma)
  Fock-dressing                        ...        0.799 sec (  5.4% of sigma)
  Singles amplitudes                   ...        0.023 sec (  0.2% of sigma)
  (ik|jl)-dressing                     ...        0.062 sec (  0.4% of sigma)
  (ij|ab),(ia|jb)-dressing             ...        0.190 sec (  1.3% of sigma)
  Pair energies                        ...        0.002 sec (  0.0% of sigma)
Total Time for computing (T)           ...        1.905 sec (  8.8% of ALL)


-------------------------   --------------------
FINAL SINGLE POINT ENERGY      -115.547875217054
-------------------------   --------------------


                            ***************************************
                            *     ORCA property calculations      *
                            ***************************************

                                    ---------------------
                                    Active property flags
                                    ---------------------
   (+) Dipole Moment


------------------------------------------------------------------------------
                       ORCA ELECTRIC PROPERTIES CALCULATION
------------------------------------------------------------------------------

Dipole Moment Calculation                       ... on
Quadrupole Moment Calculation                   ... off
Polarizability Calculation                      ... off
GBWName                                         ... methanol_anti.gbw
Electron density file                           ... methanol_anti.scfp.tmp
The origin for moment calculation is the CENTER OF MASS  = ( 0.113071,  0.053091  0.000001)

-------------
DIPOLE MOMENT
-------------
                                X             Y             Z
Electronic contribution:      1.69942       0.35954       0.00000
Nuclear contribution   :     -2.03523      -0.95554       0.00001
                        -----------------------------------------
Total Dipole Moment    :     -0.33581      -0.59601       0.00001
                        -----------------------------------------
Magnitude (a.u.)       :      0.68410
Magnitude (Debye)      :      1.73884



--------------------
Rotational spectrum 
--------------------
 
Rotational constants in cm-1:     4.096585     0.843249     0.812623 
Rotational constants in MHz : 122812.539316 25279.979722 24361.827307 

 Dipole components along the rotational axes: 
x,y,z [a.u.] :    -0.363987     0.579229     0.000010 
x,y,z [Debye]:    -0.925183     1.472282     0.000025 

 

Timings for individual modules:

Sum of individual times         ...       24.318 sec (=   0.405 min)
GTO integral calculation        ...        0.349 sec (=   0.006 min)   1.4 %
SCF iterations                  ...        2.231 sec (=   0.037 min)   9.2 %
MDCI module                     ...       21.738 sec (=   0.362 min)  89.4 %
                             ****ORCA TERMINATED NORMALLY****
TOTAL RUN TIME: 0 days 0 hours 0 minutes 24 seconds 558 msec
methanol_anti.gbw -> /home1/pantazis/klk/xyz/Energy_barrier/methanol_anti.gbw
methanol_anti.job -> /home1/pantazis/klk/xyz/Energy_barrier/methanol_anti.job
methanol_anti.loc -> /home1/pantazis/klk/xyz/Energy_barrier/methanol_anti.loc
methanol_anti.nodes -> /home1/pantazis/klk/xyz/Energy_barrier/methanol_anti.nodes
methanol_anti.prop -> /home1/pantazis/klk/xyz/Energy_barrier/methanol_anti.prop
methanol_anti_property.txt -> /home1/pantazis/klk/xyz/Energy_barrier/methanol_anti_property.txt
methanol_anti.xyz -> /home1/pantazis/klk/xyz/Energy_barrier/methanol_anti.xyz
cp: cannot stat methanol_anti.asa.inp: No such file or directory
