! Job execution by suborca V 6.07 on ZEUS !
Job started from zeus1, running /scratch/pantazis/methylcyclohexane_eq__9R8PII/orca/orca copied from /opt/orca on zeussn143 in /scratch/pantazis/methylcyclohexane_eq__9R8PII
Job execution start: Fri Jun 28 10:09:57 CEST 2019
Shared library path: /scratch/pantazis/methylcyclohexane_eq__9R8PII/orca:/opt/openmpi_1.10.2/lib:/opt/intel/mkl/lib/intel64:/opt/intel/lib/intel64:
PBS Job ID is: 158382.icqc
izeussn143
izeussn143
izeussn143
izeussn143
izeussn143
izeussn143
izeussn143
izeussn143

                                 *****************
                                 * O   R   C   A *
                                 *****************

           --- An Ab Initio, DFT and Semiempirical electronic structure package ---

                  #######################################################
                  #                        -***-                        #
                  #          Department of theory and spectroscopy      #
                  #               Directorship: Frank Neese             #
                  #        Max Planck Institute fuer Kohlenforschung    #
                  #                Kaiser Wilhelm Platz 1               #
                  #                 D-45470 Muelheim/Ruhr               #
                  #                      Germany                        #
                  #                                                     #
                  #                  All rights reserved                #
                  #                        -***-                        #
                  #######################################################


                         Program Version 4.1.x  -  STABLE  -
                                (SVN: $Rev: 14094$)
                ($Date: 2019-06-14 15:01:15 +0200 (Fri, 14 Jun 2019) $)

                         (BUILD: $Sun Jun 23 06:18:31 CEST 2019$)


 With contributions from (in alphabetic order):
   Daniel Aravena         : Magnetic Properties
   Michael Atanasov       : Ab Initio Ligand Field Theory
   Alexander A. Auer      : GIAO ZORA
   Ute Becker             : Parallelization
   Giovanni Bistoni       : ED, Open-shell LED
   Martin Brehm           : Molecular dynamics
   Dmytro Bykov           : SCF Hessian
   Vijay G. Chilkuri      : MRCI spin determinant printing
   Dipayan Datta          : RHF DLPNO-CCSD density
   Achintya Kumar Dutta   : EOM-CC, STEOM-CC
   Dmitry Ganyushin       : Spin-Orbit,Spin-Spin,Magnetic field MRCI
   Miquel Garcia          : C-PCM Hessian
   Yang Guo               : DLPNO-NEVPT2, CIM, IAO-localization
   Andreas Hansen         : Spin unrestricted coupled pair/coupled cluster methods
   Benjamin Helmich-Paris : CASSCF linear response (MC-RPA)
   Lee Huntington         : MR-EOM, pCC
   Robert Izsak           : Overlap fitted RIJCOSX, COSX-SCS-MP3, EOM
   Christian Kollmar      : KDIIS, OOCD, Brueckner-CCSD(T), CCSD density
   Simone Kossmann        : Meta GGA functionals, TD-DFT gradient, OOMP2, MP2 Hessian
   Martin Krupicka        : AUTO-CI
   Lucas Lang             : DCDCAS
   Dagmar Lenk            : GEPOL surface, SMD
   Dimitrios Liakos       : Extrapolation schemes; parallel MDCI
   Dimitrios Manganas     : ROCIS; embedding schemes
   Dimitrios Pantazis     : SARC Basis sets
   Taras Petrenko         : DFT Hessian,TD-DFT gradient, ASA, ECA, R-Raman, ABS, FL, XAS/XES, NRVS
   Peter Pinski           : DLPNO-MP2, DLPNO-MP2 Gradient
   Christoph Reimann      : Effective Core Potentials
   Marius Retegan         : Local ZFS, SOC
   Christoph Riplinger    : Optimizer, TS searches, QM/MM, DLPNO-CCSD(T), (RO)-DLPNO pert. Triples
   Tobias Risthaus        : Range-separated hybrids, TD-DFT gradient, RPA, STAB
   Michael Roemelt        : Restricted open shell CIS
   Masaaki Saitow         : Open-shell DLPNO
   Barbara Sandhoefer     : DKH picture change effects
   Avijit Sen             : IP-ROCIS
   Kantharuban Sivalingam : CASSCF convergence, NEVPT2, FIC-MRCI
   Bernardo de Souza      : ESD, SOC TD-DFT
   Georgi Stoychev        : AutoAux, RI-MP2 NMR
   Willem Van den Heuvel  : Paramagnetic NMR
   Boris Wezisla          : Elementary symmetry handling
   Frank Wennmohs         : Technical directorship


 We gratefully acknowledge several colleagues who have allowed us to
 interface, adapt or use parts of their codes:
   Stefan Grimme, W. Hujo, H. Kruse,             : VdW corrections, initial TS optimization,
                  C. Bannwarth                     DFT functionals, gCP, sTDA/sTD-DF
   Ed Valeev                                     : LibInt (2-el integral package), F12 methods
   Garnet Chan, S. Sharma, J. Yang, R. Olivares  : DMRG
   Ulf Ekstrom                                   : XCFun DFT Library
   Mihaly Kallay                                 : mrcc  (arbitrary order and MRCC methods)
   Andreas Klamt, Michael Diedenhofen            : otool_cosmo (COSMO solvation model)
   Jiri Pittner, Ondrej Demel                    : Mk-CCSD
   Frank Weinhold                                : gennbo (NPA and NBO analysis)
   Christopher J. Cramer and Donald G. Truhlar   : smd solvation model
   Lars Goerigk                                  : TD-DFT with DH, B97 family of functionals
   V. Asgeirsson, H. Jonsson                     : NEB implementation
   FAccTs GmbH                                   : IRC, NEB, NEB-TS, Multilevel


 Your calculation uses the libint2 library for the computation of 2-el integrals
 For citations please refer to: http://libint.valeyev.net

 This ORCA versions uses:
   CBLAS   interface :  Fast vector & matrix operations
   LAPACKE interface :  Fast linear algebra routines
   SCALAPACK package :  Parallel linear algebra routines




***************************************
The coordinates will be read from file: methylcyclohexane_eq.xyz
***************************************


----- Orbital basis set information -----
Your calculation utilizes the basis: cc-pVTZ 
       H, B-Ne : Obtained from the ccRepo (grant-hill.group.shef.ac.uk/ccrepo) Feb. 2017
                 T. H. Dunning, Jr., J. Chem. Phys. 90, 1007 (1989)
            He : Obtained from the ccRepo (grant-hill.group.shef.ac.uk/ccrepo) Feb. 2017
                 D. E. Woon, T. H. Dunning, Jr., J. Chem. Phys. 100, 2975 (1994)
  Li-Be, Na-Mg : Obtained from the ccRepo (grant-hill.group.shef.ac.uk/ccrepo) Feb. 2017
                 B. P. Prascher, D. E. Woon, K. A. Peterson, T. H. Dunning, Jr., A. K. Wilson, Theor. Chem. Acc. 128, 69 (2011)
         Al-Ar : Obtained from the ccRepo (grant-hill.group.shef.ac.uk/ccrepo) Feb. 2017
                 D. E. Woon, T. H. Dunning, Jr., J. Chem. Phys. 98, 1358 (1993)
            Ca : Obtained from the Peterson Research Group Website (tyr0.chem.wsu.edu/~kipeters) Feb. 2017
                 J. Koput, K. A. Peterson, J. Phys. Chem. 106, 9595 (2002)
         Sc-Zn : Obtained from the ccRepo (grant-hill.group.shef.ac.uk/ccrepo) Feb. 2017
                 N. B. Balabanov, K. A. Peterson, J. Chem. Phys. 123, 064107 (2005)
                 N. B. Balabanov, K. A. Peterson, J. Chem. Phys. 125, 074110 (2006)
         Ga-Kr : Obtained from the ccRepo (grant-hill.group.shef.ac.uk/ccrepo) Feb. 2017
                 A. K. Wilson, D. E. Woon, K. A. Peterson, T. H. Dunning, Jr., J. Chem. Phys. 110, 7667 (1999)
             Y : Obtained from the ccRepo (grant-hill.group.shef.ac.uk/ccrepo) Feb. 2017
                 K. A. Peterson, D. Figgen, M. Dolg, H. Stoll, J. Chem. Phys. 126, 124101 (2007)
        Ag, Au : Obtained from the Peterson Research Group Website (tyr0.chem.wsu.edu/~kipeters) Feb. 2017
                 K. A. Peterson, C. Puzzarini, Theor. Chem. Acc. 114, 283 (2005)

----- AuxC basis set information -----
Your calculation utilizes the auxiliary basis: cc-pVTZ/C 
  Obtained from the EMSL Basis Set Exchange (bse.pnl.gov) Feb. 2017
  H-He, B-F, Al-Ar, Ga-Kr : F. Weigend, A. Kohn, C. Hattig, J. Chem. Phys. 116, 3175 (2002)
             Li-Be, Na-Mg : C. Haettig, Phys. Chem. Chem. Phys. 7, 59 (2005)
                       Ne : C. Haettig, Phys. Chem. Chem. Phys. 7, 59 (2005)
                            F. Weigend, A. Kohn, C. Hattig, J. Chem. Phys. 116, 3175 (2002)
                    Sc-Zn : J. G. Hill, J. A. Platts, J. Chem. Phys. 128, 044104 (2008)

----- AuxJK basis set information -----
Your calculation utilizes the auxiliary basis: cc-pVTZ/JK 
  H, B-F, Al-Cl, Ga-Br : Obtained from the TURBOMOLE 7.0 basis set library

================================================================================
                                        WARNINGS
                       Please study these warnings very carefully!
================================================================================


WARNING: MDCI localization with Augmented Hessian Foster-Boys
  ===> : Switching off randomization!

WARNING: Post HF methods need fully converged wavefunctions
  ===> : Setting SCFConvForced true
         You can overwrite this default with %scf ConvForced false 


INFO   : the flag for use of LIBINT has been found!

================================================================================
                                       INPUT FILE
================================================================================
NAME = methylcyclohexane_eq.inp
|  1> ! RHF DLPNO-CCSD(T) cc-pVTZ RIJK cc-pVTZ/JK cc-pVTZ/C
|  2> ! KDIIS SOSCF TightSCF TightPNO
|  3> 
|  4> %pal nprocs 8 end
|  5> 
|  6> %maxcore 8000
|  7> 
|  8> %scf maxiter 300
|  9>      shift shift 0.2 erroff 0.1 end
| 10> end
| 11> 
| 12> * xyzfile 0 1 methylcyclohexane_eq.xyz 
| 13> 
| 14> 
| 15>                          ****END OF INPUT****
================================================================================

                       ****************************
                       * Single Point Calculation *
                       ****************************

---------------------------------
CARTESIAN COORDINATES (ANGSTROEM)
---------------------------------
  C     -1.020960   -0.000010   -0.328440
  C     -0.294150   -1.263880    0.168960
  C      1.196070   -1.268800   -0.209510
  C      1.908670   -0.000010    0.284320
  C      1.196060    1.268800   -0.209490
  C     -0.294150    1.263900    0.168960
  C     -2.500940   -0.000010    0.073760
  H      1.685270   -2.162890    0.196890
  H      1.290260   -1.332510   -1.303620
  H      2.955980    0.000020   -0.042860
  H      1.925210   -0.000010    1.384280
  H      1.290270    1.332520   -1.303600
  H      1.685300    2.162870    0.196920
  H     -0.390000   -1.318350    1.264560
  H     -0.788830   -2.159150   -0.230280
  H     -0.788850    2.159140   -0.230330
  H     -0.390040    1.318360    1.264550
  H     -0.969420    0.000030   -1.429480
  H     -2.610410   -0.000020    1.165750
  H     -3.019180    0.885740   -0.312090
  H     -3.019180   -0.885750   -0.312080

----------------------------
CARTESIAN COORDINATES (A.U.)
----------------------------
  NO LB      ZA    FRAG     MASS         X           Y           Z
   0 C     6.0000    0    12.011   -1.929335   -0.000019   -0.620662
   1 C     6.0000    0    12.011   -0.555863   -2.388387    0.319288
   2 C     6.0000    0    12.011    2.260245   -2.397685   -0.395917
   3 C     6.0000    0    12.011    3.606864   -0.000019    0.537287
   4 C     6.0000    0    12.011    2.260226    2.397685   -0.395879
   5 C     6.0000    0    12.011   -0.555863    2.388425    0.319288
   6 C     6.0000    0    12.011   -4.726092   -0.000019    0.139386
   7 H     1.0000    0     1.008    3.184699   -4.087270    0.372068
   8 H     1.0000    0     1.008    2.438238   -2.518079   -2.463485
   9 H     1.0000    0     1.008    5.585993    0.000038   -0.080994
  10 H     1.0000    0     1.008    3.638120   -0.000019    2.615910
  11 H     1.0000    0     1.008    2.438257    2.518098   -2.463447
  12 H     1.0000    0     1.008    3.184755    4.087232    0.372125
  13 H     1.0000    0     1.008   -0.736993   -2.491320    2.389672
  14 H     1.0000    0     1.008   -1.490673   -4.080202   -0.435166
  15 H     1.0000    0     1.008   -1.490710    4.080183   -0.435261
  16 H     1.0000    0     1.008   -0.737069    2.491339    2.389653
  17 H     1.0000    0     1.008   -1.831938    0.000057   -2.701326
  18 H     1.0000    0     1.008   -4.932960   -0.000038    2.202948
  19 H     1.0000    0     1.008   -5.705423    1.673806   -0.589765
  20 H     1.0000    0     1.008   -5.705423   -1.673825   -0.589746

--------------------------------
INTERNAL COORDINATES (ANGSTROEM)
--------------------------------
 C      0   0   0     0.000000000000     0.00000000     0.00000000
 C      1   0   0     1.540463213777     0.00000000     0.00000000
 C      2   1   0     1.537536794909   112.36080236     0.00000000
 C      3   2   1     1.536715618779   111.57391328    54.88155314
 C      4   3   2     1.536730342090   111.30951097   305.78608818
 C      5   4   3     1.537522115808   111.57522936    54.21388162
 C      1   2   3     1.533657602074   111.75397042   180.81778901
 H      3   2   1     1.097212161845   110.09454034   177.70191430
 H      3   2   1     1.100003369222   109.14814974   294.19311177
 H      4   3   2     1.097226042983   110.29287002   183.02754558
 H      4   3   2     1.100084348221   109.16501435    66.35745238
 H      5   4   3     1.100005661167   109.13095645   293.51543086
 H      5   4   3     1.097217403526   110.30364681   176.91548373
 H      2   1   3     1.101132854564   108.71028555   121.00193559
 H      2   1   3     1.098002392028   109.81556434   237.02710873
 H      6   5   4     1.098005123713   110.15567099   182.34057312
 H      6   5   4     1.101125892802   109.21728838    65.82998422
 H      1   2   3     1.102245641770   107.48793463    62.62905644
 H      7   1   2     1.097463366632   110.92821626    62.04948549
 H      7   1   2     1.096360334288   111.33695585   181.89772852
 H      7   1   2     1.096348735941   111.33733977   302.20255073

---------------------------
INTERNAL COORDINATES (A.U.)
---------------------------
 C      0   0   0     0.000000000000     0.00000000     0.00000000
 C      1   0   0     2.911053593419     0.00000000     0.00000000
 C      2   1   0     2.905523463206   112.36080236     0.00000000
 C      3   2   1     2.903971665212   111.57391328    54.88155314
 C      4   3   2     2.903999488237   111.30951097   305.78608818
 C      5   4   3     2.905495723725   111.57522936    54.21388162
 C      1   2   3     2.898192851127   111.75397042   180.81778901
 H      3   2   1     2.073430496694   110.09454034   177.70191430
 H      3   2   1     2.078705114220   109.14814974   294.19311177
 H      4   3   2     2.073456728244   110.29287002   183.02754558
 H      4   3   2     2.078858142350   109.16501435    66.35745238
 H      5   4   3     2.078709445369   109.13095645   293.51543086
 H      5   4   3     2.073440402036   110.30364681   176.91548373
 H      2   1   3     2.080839532189   108.71028555   121.00193559
 H      2   1   3     2.074923815324   109.81556434   237.02710873
 H      6   5   4     2.074928977460   110.15567099   182.34057312
 H      6   5   4     2.080826376366   109.21728838    65.82998422
 H      1   2   3     2.082942395253   107.48793463    62.62905644
 H      7   1   2     2.073905204946   110.92821626    62.04948549
 H      7   1   2     2.071820775899   111.33695585   181.89772852
 H      7   1   2     2.071798858200   111.33733977   302.20255073

---------------------
BASIS SET INFORMATION
---------------------
There are 2 groups of distinct atoms

 Group   1 Type C   : 18s5p2d1f contracted to 4s3p2d1f pattern {8811/311/11/1}
 Group   2 Type H   : 5s2p1d contracted to 3s2p1d pattern {311/11/1}

Atom   0C    basis set group =>   1
Atom   1C    basis set group =>   1
Atom   2C    basis set group =>   1
Atom   3C    basis set group =>   1
Atom   4C    basis set group =>   1
Atom   5C    basis set group =>   1
Atom   6C    basis set group =>   1
Atom   7H    basis set group =>   2
Atom   8H    basis set group =>   2
Atom   9H    basis set group =>   2
Atom  10H    basis set group =>   2
Atom  11H    basis set group =>   2
Atom  12H    basis set group =>   2
Atom  13H    basis set group =>   2
Atom  14H    basis set group =>   2
Atom  15H    basis set group =>   2
Atom  16H    basis set group =>   2
Atom  17H    basis set group =>   2
Atom  18H    basis set group =>   2
Atom  19H    basis set group =>   2
Atom  20H    basis set group =>   2
-------------------------------
AUXILIARY BASIS SET INFORMATION
-------------------------------
There are 2 groups of distinct atoms

 Group   1 Type C   : 8s6p5d3f1g contracted to 8s6p5d3f1g pattern {11111111/111111/11111/111/1}
 Group   2 Type H   : 4s3p2d1f contracted to 4s3p2d1f pattern {1111/111/11/1}

Atom   0C    basis set group =>   1
Atom   1C    basis set group =>   1
Atom   2C    basis set group =>   1
Atom   3C    basis set group =>   1
Atom   4C    basis set group =>   1
Atom   5C    basis set group =>   1
Atom   6C    basis set group =>   1
Atom   7H    basis set group =>   2
Atom   8H    basis set group =>   2
Atom   9H    basis set group =>   2
Atom  10H    basis set group =>   2
Atom  11H    basis set group =>   2
Atom  12H    basis set group =>   2
Atom  13H    basis set group =>   2
Atom  14H    basis set group =>   2
Atom  15H    basis set group =>   2
Atom  16H    basis set group =>   2
Atom  17H    basis set group =>   2
Atom  18H    basis set group =>   2
Atom  19H    basis set group =>   2
Atom  20H    basis set group =>   2
-------------------------------
AUXILIARY BASIS SET INFORMATION
-------------------------------
There are 2 groups of distinct atoms

 Group   1 Type C   : 10s7p5d2f1g contracted to 10s7p5d2f1g pattern {1111111111/1111111/11111/11/1}
 Group   2 Type H   : 4s3p2d1f contracted to 4s3p2d1f pattern {1111/111/11/1}

Atom   0C    basis set group =>   1
Atom   1C    basis set group =>   1
Atom   2C    basis set group =>   1
Atom   3C    basis set group =>   1
Atom   4C    basis set group =>   1
Atom   5C    basis set group =>   1
Atom   6C    basis set group =>   1
Atom   7H    basis set group =>   2
Atom   8H    basis set group =>   2
Atom   9H    basis set group =>   2
Atom  10H    basis set group =>   2
Atom  11H    basis set group =>   2
Atom  12H    basis set group =>   2
Atom  13H    basis set group =>   2
Atom  14H    basis set group =>   2
Atom  15H    basis set group =>   2
Atom  16H    basis set group =>   2
Atom  17H    basis set group =>   2
Atom  18H    basis set group =>   2
Atom  19H    basis set group =>   2
Atom  20H    basis set group =>   2


           ************************************************************
           *        Program running with 8 parallel MPI-processes     *
           *              working on a common directory               *
           ************************************************************
------------------------------------------------------------------------------
                           ORCA GTO INTEGRAL CALCULATION
                           -- RI-GTO INTEGRALS CHOSEN --
------------------------------------------------------------------------------

                         BASIS SET STATISTICS AND STARTUP INFO

Gaussian basis set:
 # of primitive gaussian shells          ...  294
 # of primitive gaussian functions       ...  574
 # of contracted shells                  ...  154
 # of contracted basis functions         ...  406
 Highest angular momentum                ...    3
 Maximum contraction depth               ...    8
Auxiliary gaussian basis set:
 # of primitive gaussian shells          ...  315
 # of primitive gaussian functions       ...  973
 # of contracted shells                  ...  315
 # of contracted aux-basis functions     ...  973
 Highest angular momentum                ...    4
 Maximum contraction depth               ...    1
Ratio of auxiliary to basis functions    ...  2.40
Integral package used                  ... LIBINT
 One Electron integrals                  ... done
 Ordering auxiliary basis shells         ... done
 Integral threshhold             Thresh  ...  2.500e-11
 Primitive cut-off               TCut    ...  2.500e-12
 Pre-screening matrix                    ... done
 Shell pair data                         ... 
 Ordering of the shell pairs             ... done (   0.002 sec) 11342 of 11935 pairs
 Determination of significant pairs      ... done (   0.000 sec)
 Creation of shell pair data             ... done (   0.002 sec)
 Storage of shell pair data              ... done (   0.145 sec)
 Shell pair data done in (   0.150 sec)
 Computing two index integrals           ... done
 Cholesky decomposition of the V-matrix  ... done


Timings:
 Total evaluation time                   ...   0.764 sec (  0.013 min)
 One electron matrix time                ...   0.142 sec (  0.002 min) = 18.5%
 Schwartz matrix evaluation time         ...   0.245 sec (  0.004 min) = 32.0%
 Two index repulsion integral time       ...   0.098 sec (  0.002 min) = 12.9%
 Cholesky decomposition of V             ...   0.101 sec (  0.002 min) = 13.2%
 Three index repulsion integral time     ...   0.000 sec (  0.000 min) =  0.0%



           ************************************************************
           *        Program running with 8 parallel MPI-processes     *
           *              working on a common directory               *
           ************************************************************
-------------------------------------------------------------------------------
                                 ORCA SCF
-------------------------------------------------------------------------------

------------
SCF SETTINGS
------------
Hamiltonian:
 Ab initio Hamiltonian  Method          .... Hartree-Fock(GTOs)
 RI-approximation to the Coulomb term is turned on
   Number of auxiliary basis functions  .... 973
   RI-JK (J+K treated both via RI)      .... on


General Settings:
 Integral files         IntName         .... methylcyclohexane_eq
 Hartree-Fock type      HFTyp           .... RHF
 Total Charge           Charge          ....    0
 Multiplicity           Mult            ....    1
 Number of Electrons    NEL             ....   56
 Basis Dimension        Dim             ....  406
 Nuclear Repulsion      ENuc            ....    327.2513429109 Eh

Convergence Acceleration:
 DIIS                   CNVDIIS         .... off
 Newton-Raphson         CNVNR           .... off
 SOSCF                  CNVSOSCF        .... on
   Start iteration      SOSCFMaxIt      ....   150
   Startup grad/error   SOSCFStart      ....  0.003300
 Level Shifting         CNVShift        .... on
   Level shift para.    LevelShift      ....    0.2000
   Turn off err/grad.   ShiftErr        ....    0.1000
 Zerner damping         CNVZerner       .... off
 Static damping         CNVDamp         .... off
 Fernandez-Rico         CNVRico         .... off

SCF Procedure:
 Maximum # iterations   MaxIter         ....   300
 SCF integral mode      SCFMode         .... Direct
   Integral package                     .... LIBINT
 Reset frequency        DirectResetFreq ....    20
 Integral Threshold     Thresh          ....  2.500e-11 Eh
 Primitive CutOff       TCut            ....  2.500e-12 Eh

Convergence Tolerance:
 Convergence Check Mode ConvCheckMode   .... Total+1el-Energy
 Convergence forced     ConvForced      .... 1
 Energy Change          TolE            ....  1.000e-08 Eh
 1-El. energy change                    ....  1.000e-05 Eh
 Orbital Gradient       TolG            ....  1.000e-05
 Orbital Rotation angle TolX            ....  1.000e-05


Diagonalization of the overlap matrix:
Smallest eigenvalue                        ... 3.071e-04
Time for diagonalization                   ...    0.035 sec
Threshold for overlap eigenvalues          ... 1.000e-08
Number of eigenvalues below threshold      ... 0
Time for construction of square roots      ...    0.130 sec
Total time needed                          ...    0.166 sec

-------------------
DFT GRID GENERATION
-------------------

General Integration Accuracy     IntAcc      ...  4.340
Radial Grid Type                 RadialGrid  ... Gauss-Chebyshev
Angular Grid (max. acc.)         AngularGrid ... Lebedev-110
Angular grid pruning method      GridPruning ... 3 (G Style)
Weight generation scheme         WeightScheme... Becke
Basis function cutoff            BFCut       ...    1.0000e-11
Integration weight cutoff        WCut        ...    1.0000e-14
Grids for H and He will be reduced by one unit

# of grid points (after initial pruning)     ...  22708 (   0.0 sec)
# of grid points (after weights+screening)   ...  20554 (   0.0 sec)
nearest neighbour list constructed           ...    0.0 sec
Grid point re-assignment to atoms done       ...    0.0 sec
Grid point division into batches done        ...    0.0 sec
Reduced shell lists constructed in    0.1 sec

Total number of grid points                  ...    20554
Total number of batches                      ...      330
Average number of points per batch           ...       62
Average number of grid points per atom       ...      979
Average number of shells per batch           ...   133.42 (86.64%)
Average number of basis functions per batch  ...   348.07 (85.73%)
Average number of large shells per batch     ...   108.44 (81.28%)
Average number of large basis fcns per batch ...   278.72 (80.08%)
Average number of aux-shells per batch       ...   133.42 (42.36%)
Average number of aux functions per batch    ...   348.07 (35.77%)
Maximum spatial batch extension              ...   2.68,  2.52,  2.49 au
Average spatial batch extension              ...   0.20,  0.20,  0.19 au

Time for grid setup =    0.158 sec

------------------------------
INITIAL GUESS: MODEL POTENTIAL
------------------------------
Loading Hartree-Fock densities                     ... done
Calculating cut-offs                               ... done
Setting up the integral package                    ... done
Initializing the effective Hamiltonian             ... done
Starting the Coulomb interaction                   ... done (   0.1 sec)
Reading the grid                                   ... done
Mapping shells                                     ... done
Starting the XC term evaluation                    ... done (   0.1 sec)
Transforming the Hamiltonian                       ... done (   0.0 sec)
Diagonalizing the Hamiltonian                      ... done (   0.0 sec)
Back transforming the eigenvectors                 ... done (   0.0 sec)
Now organizing SCF variables                       ... done
                      ------------------
                      INITIAL GUESS DONE (   0.5 sec)
                      ------------------
--------------
SCF ITERATIONS
--------------
ITER       Energy         Delta-E        Max-DP      RMS-DP      [F,P]   Gradient Norm
                             ****Turning on KDIIS(Cayley)****
  0   -272.9080936242   0.000000000000 0.01148909  0.00023955  0.0962750   0.149119762
  1   -273.0306338674  -0.122540243219 0.01805860  0.00026972  0.0880409   0.128803007
  2   -273.1296422677  -0.099008400360 0.02966494  0.00046525  0.0707878   0.104742998
  3   -273.2523123826  -0.122670114881 0.04524983  0.00075292  0.0424463   0.064869869
  4   -273.3331013586  -0.080788975965 0.00316302  0.00007076  0.0033279   0.003756215
                      *** Initiating the SOSCF procedure ***
                           *** Shutting down KDIIS ***
                      *** Re-Reading the Fockian *** 
                      *** Removing any level shift *** 
ITER      Energy       Delta-E        Grad      Rot      Max-DP    RMS-DP
  5   -273.33354680  -0.0004454437  0.001183  0.001183  0.003746  0.000074
  6   -273.33360825  -0.0000614517  0.000394  0.000473  0.000763  0.000013
  7   -273.33361609  -0.0000078350  0.000253  0.000170  0.000341  0.000004
  8   -273.33362043  -0.0000043379  0.000017  0.000020  0.000048  0.000001
  9   -273.33362045  -0.0000000275  0.000008  0.000009  0.000016  0.000000
                  ***Gradient check signals convergence***
              ***Rediagonalizing the Fockian in SOSCF/NRSCF***

               *****************************************************
               *                     SUCCESS                       *
               *           SCF CONVERGED AFTER  10 CYCLES          *
               *****************************************************


----------------
TOTAL SCF ENERGY
----------------

Total Energy       :         -273.33362046 Eh           -7437.78594 eV

Components:
Nuclear Repulsion  :          327.25134291 Eh            8904.96176 eV
Electronic Energy  :         -600.58496337 Eh          -16342.74770 eV
One Electron Energy:        -1016.80693820 Eh          -27668.72344 eV
Two Electron Energy:          416.22197483 Eh           11325.97574 eV

Virial components:
Potential Energy   :         -546.18161287 Eh          -14862.35727 eV
Kinetic Energy     :          272.84799241 Eh            7424.57133 eV
Virial Ratio       :            2.00177985


---------------
SCF CONVERGENCE
---------------

  Last Energy change         ...   -5.5089e-09  Tolerance :   1.0000e-08
  Last MAX-Density change    ...    8.1470e-06  Tolerance :   1.0000e-07
  Last RMS-Density change    ...    1.0019e-07  Tolerance :   5.0000e-09
  Last Orbital Gradient      ...    2.0202e-06  Tolerance :   1.0000e-05
  Last Orbital Rotation      ...    1.0551e-06  Tolerance :   1.0000e-05

             **** THE GBW FILE WAS UPDATED (methylcyclohexane_eq.gbw) ****
             **** DENSITY FILE WAS UPDATED (methylcyclohexane_eq.scfp.tmp) ****
             **** ENERGY FILE WAS UPDATED (methylcyclohexane_eq.en.tmp) ****
----------------
ORBITAL ENERGIES
----------------

  NO   OCC          E(Eh)            E(eV) 
   0   2.0000     -11.220701      -305.3308 
   1   2.0000     -11.214580      -305.1642 
   2   2.0000     -11.214287      -305.1563 
   3   2.0000     -11.213728      -305.1410 
   4   2.0000     -11.212825      -305.1165 
   5   2.0000     -11.212788      -305.1155 
   6   2.0000     -11.208803      -305.0070 
   7   2.0000      -1.113320       -30.2950 
   8   2.0000      -1.025597       -27.9079 
   9   2.0000      -0.995906       -27.1000 
  10   2.0000      -0.913062       -24.8457 
  11   2.0000      -0.826845       -22.4996 
  12   2.0000      -0.796112       -21.6633 
  13   2.0000      -0.745483       -20.2856 
  14   2.0000      -0.636395       -17.3172 
  15   2.0000      -0.605015       -16.4633 
  16   2.0000      -0.596447       -16.2301 
  17   2.0000      -0.595780       -16.2120 
  18   2.0000      -0.561969       -15.2920 
  19   2.0000      -0.529809       -14.4168 
  20   2.0000      -0.519741       -14.1429 
  21   2.0000      -0.507123       -13.7995 
  22   2.0000      -0.485592       -13.2136 
  23   2.0000      -0.476387       -12.9631 
  24   2.0000      -0.465461       -12.6658 
  25   2.0000      -0.445406       -12.1201 
  26   2.0000      -0.422890       -11.5074 
  27   2.0000      -0.419518       -11.4157 
  28   0.0000       0.141673         3.8551 
  29   0.0000       0.155183         4.2227 
  30   0.0000       0.157875         4.2960 
  31   0.0000       0.166142         4.5210 
  32   0.0000       0.196898         5.3579 
  33   0.0000       0.205785         5.5997 
  34   0.0000       0.208994         5.6870 
  35   0.0000       0.215050         5.8518 
  36   0.0000       0.226512         6.1637 
  37   0.0000       0.236111         6.4249 
  38   0.0000       0.241845         6.5809 
  39   0.0000       0.242240         6.5917 
  40   0.0000       0.261725         7.1219 
  41   0.0000       0.275071         7.4851 
  42   0.0000       0.297928         8.1070 
  43   0.0000       0.320439         8.7196 
  44   0.0000       0.337957         9.1963 
  45   0.0000       0.352177         9.5832 
  46   0.0000       0.367759        10.0072 
  47   0.0000       0.373357        10.1596 
  48   0.0000       0.392832        10.6895 
  49   0.0000       0.421619        11.4728 
  50   0.0000       0.428122        11.6498 
  51   0.0000       0.431142        11.7320 
  52   0.0000       0.442696        12.0464 
  53   0.0000       0.461951        12.5703 
  54   0.0000       0.476557        12.9678 
  55   0.0000       0.484386        13.1808 
  56   0.0000       0.502714        13.6796 
  57   0.0000       0.515864        14.0374 
  58   0.0000       0.548089        14.9143 
  59   0.0000       0.557863        15.1802 
  60   0.0000       0.580609        15.7992 
  61   0.0000       0.593386        16.1469 
  62   0.0000       0.597066        16.2470 
  63   0.0000       0.598262        16.2795 
  64   0.0000       0.604615        16.4524 
  65   0.0000       0.612979        16.6800 
  66   0.0000       0.626147        17.0383 
  67   0.0000       0.635786        17.3006 
  68   0.0000       0.640935        17.4407 
  69   0.0000       0.642429        17.4814 
  70   0.0000       0.646575        17.5942 
  71   0.0000       0.657819        17.9002 
  72   0.0000       0.665560        18.1108 
  73   0.0000       0.667014        18.1504 
  74   0.0000       0.682811        18.5802 
  75   0.0000       0.689221        18.7546 
  76   0.0000       0.693897        18.8819 
  77   0.0000       0.705340        19.1933 
  78   0.0000       0.706616        19.2280 
  79   0.0000       0.718888        19.5619 
  80   0.0000       0.729345        19.8465 
  81   0.0000       0.737860        20.0782 
  82   0.0000       0.803142        21.8546 
  83   0.0000       0.819665        22.3042 
  84   0.0000       0.821834        22.3632 
  85   0.0000       0.866596        23.5813 
  86   0.0000       0.871115        23.7042 
  87   0.0000       0.902832        24.5673 
  88   0.0000       0.931633        25.3510 
  89   0.0000       0.942389        25.6437 
  90   0.0000       0.964833        26.2544 
  91   0.0000       0.982783        26.7429 
  92   0.0000       0.988619        26.9017 
  93   0.0000       0.992129        26.9972 
  94   0.0000       1.001412        27.2498 
  95   0.0000       1.040440        28.3118 
  96   0.0000       1.070925        29.1414 
  97   0.0000       1.072798        29.1923 
  98   0.0000       1.099281        29.9129 
  99   0.0000       1.109533        30.1919 
 100   0.0000       1.114177        30.3183 
 101   0.0000       1.118553        30.4374 
 102   0.0000       1.153061        31.3764 
 103   0.0000       1.154871        31.4256 
 104   0.0000       1.199187        32.6315 
 105   0.0000       1.210693        32.9446 
 106   0.0000       1.227956        33.4144 
 107   0.0000       1.237908        33.6852 
 108   0.0000       1.238194        33.6930 
 109   0.0000       1.244625        33.8680 
 110   0.0000       1.267084        34.4791 
 111   0.0000       1.272843        34.6358 
 112   0.0000       1.295349        35.2482 
 113   0.0000       1.301228        35.4082 
 114   0.0000       1.318966        35.8909 
 115   0.0000       1.320550        35.9340 
 116   0.0000       1.324902        36.0524 
 117   0.0000       1.336170        36.3590 
 118   0.0000       1.352462        36.8024 
 119   0.0000       1.360456        37.0199 
 120   0.0000       1.376866        37.4664 
 121   0.0000       1.382426        37.6177 
 122   0.0000       1.392050        37.8796 
 123   0.0000       1.401925        38.1483 
 124   0.0000       1.409430        38.3526 
 125   0.0000       1.414792        38.4985 
 126   0.0000       1.435388        39.0589 
 127   0.0000       1.470272        40.0081 
 128   0.0000       1.470880        40.0247 
 129   0.0000       1.484329        40.3906 
 130   0.0000       1.492208        40.6050 
 131   0.0000       1.501282        40.8520 
 132   0.0000       1.505331        40.9621 
 133   0.0000       1.523861        41.4664 
 134   0.0000       1.542461        41.9725 
 135   0.0000       1.557892        42.3924 
 136   0.0000       1.561823        42.4994 
 137   0.0000       1.567669        42.6584 
 138   0.0000       1.582174        43.0531 
 139   0.0000       1.599831        43.5336 
 140   0.0000       1.601102        43.5682 
 141   0.0000       1.616417        43.9849 
 142   0.0000       1.629339        44.3366 
 143   0.0000       1.638692        44.5911 
 144   0.0000       1.653607        44.9969 
 145   0.0000       1.663020        45.2531 
 146   0.0000       1.668437        45.4005 
 147   0.0000       1.692486        46.0549 
 148   0.0000       1.694605        46.1126 
 149   0.0000       1.718687        46.7678 
 150   0.0000       1.724477        46.9254 
 151   0.0000       1.733852        47.1805 
 152   0.0000       1.773142        48.2496 
 153   0.0000       1.793912        48.8148 
 154   0.0000       1.805301        49.1247 
 155   0.0000       1.813564        49.3496 
 156   0.0000       1.856805        50.5262 
 157   0.0000       1.865733        50.7692 
 158   0.0000       1.885596        51.3097 
 159   0.0000       1.889347        51.4117 
 160   0.0000       1.911053        52.0024 
 161   0.0000       1.912655        52.0460 
 162   0.0000       1.941847        52.8403 
 163   0.0000       1.994679        54.2780 
 164   0.0000       2.042491        55.5790 
 165   0.0000       2.083688        56.7000 
 166   0.0000       2.109719        57.4084 
 167   0.0000       2.130789        57.9817 
 168   0.0000       2.565973        69.8237 
 169   0.0000       2.586298        70.3767 
 170   0.0000       2.619531        71.2811 
 171   0.0000       2.624691        71.4215 
 172   0.0000       2.645034        71.9750 
 173   0.0000       2.664465        72.5038 
 174   0.0000       2.682610        72.9975 
 175   0.0000       2.697454        73.4014 
 176   0.0000       2.741781        74.6076 
 177   0.0000       2.795588        76.0718 
 178   0.0000       2.804450        76.3130 
 179   0.0000       2.806964        76.3814 
 180   0.0000       2.827357        76.9363 
 181   0.0000       2.835265        77.1515 
 182   0.0000       2.846625        77.4606 
 183   0.0000       2.854817        77.6835 
 184   0.0000       2.863607        77.9227 
 185   0.0000       2.886725        78.5518 
 186   0.0000       2.889806        78.6356 
 187   0.0000       2.913852        79.2899 
 188   0.0000       2.921387        79.4950 
 189   0.0000       2.936273        79.9001 
 190   0.0000       2.947062        80.1936 
 191   0.0000       2.956700        80.4559 
 192   0.0000       2.967432        80.7479 
 193   0.0000       2.984534        81.2133 
 194   0.0000       3.001935        81.6868 
 195   0.0000       3.012818        81.9829 
 196   0.0000       3.016655        82.0874 
 197   0.0000       3.022891        82.2571 
 198   0.0000       3.033932        82.5575 
 199   0.0000       3.046048        82.8872 
 200   0.0000       3.057935        83.2106 
 201   0.0000       3.075801        83.6968 
 202   0.0000       3.087061        84.0032 
 203   0.0000       3.127836        85.1128 
 204   0.0000       3.143074        85.5274 
 205   0.0000       3.169532        86.2473 
 206   0.0000       3.170179        86.2650 
 207   0.0000       3.203311        87.1665 
 208   0.0000       3.219889        87.6176 
 209   0.0000       3.224375        87.7397 
 210   0.0000       3.233490        87.9877 
 211   0.0000       3.242405        88.2303 
 212   0.0000       3.272723        89.0553 
 213   0.0000       3.302097        89.8546 
 214   0.0000       3.303928        89.9045 
 215   0.0000       3.324915        90.4755 
 216   0.0000       3.330210        90.6196 
 217   0.0000       3.359189        91.4082 
 218   0.0000       3.359381        91.4134 
 219   0.0000       3.373560        91.7992 
 220   0.0000       3.382679        92.0474 
 221   0.0000       3.403423        92.6119 
 222   0.0000       3.412954        92.8712 
 223   0.0000       3.430614        93.3518 
 224   0.0000       3.434275        93.4514 
 225   0.0000       3.440199        93.6126 
 226   0.0000       3.451055        93.9080 
 227   0.0000       3.465129        94.2909 
 228   0.0000       3.466737        94.3347 
 229   0.0000       3.485392        94.8423 
 230   0.0000       3.489671        94.9588 
 231   0.0000       3.508896        95.4819 
 232   0.0000       3.510885        95.5360 
 233   0.0000       3.521153        95.8155 
 234   0.0000       3.521596        95.8275 
 235   0.0000       3.539714        96.3205 
 236   0.0000       3.547619        96.5356 
 237   0.0000       3.559405        96.8563 
 238   0.0000       3.563648        96.9718 
 239   0.0000       3.576086        97.3103 
 240   0.0000       3.589140        97.6655 
 241   0.0000       3.605688        98.1158 
 242   0.0000       3.622767        98.5805 
 243   0.0000       3.638291        99.0029 
 244   0.0000       3.655074        99.4596 
 245   0.0000       3.682257       100.1993 
 246   0.0000       3.689920       100.4078 
 247   0.0000       3.700704       100.7013 
 248   0.0000       3.717819       101.1670 
 249   0.0000       3.721285       101.2613 
 250   0.0000       3.733838       101.6029 
 251   0.0000       3.764586       102.4396 
 252   0.0000       3.769818       102.5820 
 253   0.0000       3.785742       103.0153 
 254   0.0000       3.794512       103.2539 
 255   0.0000       3.822189       104.0070 
 256   0.0000       3.824050       104.0577 
 257   0.0000       3.837994       104.4371 
 258   0.0000       3.859117       105.0119 
 259   0.0000       3.877770       105.5195 
 260   0.0000       3.886661       105.7614 
 261   0.0000       3.909800       106.3911 
 262   0.0000       3.916190       106.5649 
 263   0.0000       3.941957       107.2661 
 264   0.0000       3.946097       107.3788 
 265   0.0000       3.955171       107.6257 
 266   0.0000       3.967489       107.9609 
 267   0.0000       3.990720       108.5930 
 268   0.0000       3.994595       108.6984 
 269   0.0000       4.005572       108.9972 
 270   0.0000       4.020069       109.3916 
 271   0.0000       4.038412       109.8908 
 272   0.0000       4.041973       109.9877 
 273   0.0000       4.079933       111.0206 
 274   0.0000       4.080132       111.0260 
 275   0.0000       4.088886       111.2643 
 276   0.0000       4.090582       111.3104 
 277   0.0000       4.106075       111.7320 
 278   0.0000       4.108695       111.8033 
 279   0.0000       4.120252       112.1178 
 280   0.0000       4.154227       113.0423 
 281   0.0000       4.154335       113.0452 
 282   0.0000       4.211170       114.5918 
 283   0.0000       4.212675       114.6327 
 284   0.0000       4.227939       115.0481 
 285   0.0000       4.242406       115.4417 
 286   0.0000       4.249812       115.6433 
 287   0.0000       4.252252       115.7097 
 288   0.0000       4.279640       116.4549 
 289   0.0000       4.284916       116.5985 
 290   0.0000       4.299861       117.0052 
 291   0.0000       4.301374       117.0463 
 292   0.0000       4.321676       117.5988 
 293   0.0000       4.337852       118.0390 
 294   0.0000       4.339237       118.0766 
 295   0.0000       4.348884       118.3392 
 296   0.0000       4.368177       118.8641 
 297   0.0000       4.373226       119.0015 
 298   0.0000       4.388825       119.4260 
 299   0.0000       4.396696       119.6402 
 300   0.0000       4.405786       119.8875 
 301   0.0000       4.420895       120.2987 
 302   0.0000       4.437194       120.7422 
 303   0.0000       4.451254       121.1248 
 304   0.0000       4.454565       121.2149 
 305   0.0000       4.467036       121.5542 
 306   0.0000       4.475010       121.7712 
 307   0.0000       4.512069       122.7796 
 308   0.0000       4.518876       122.9649 
 309   0.0000       4.525012       123.1318 
 310   0.0000       4.541941       123.5925 
 311   0.0000       4.543846       123.6443 
 312   0.0000       4.553614       123.9101 
 313   0.0000       4.562611       124.1550 
 314   0.0000       4.565609       124.2365 
 315   0.0000       4.574697       124.4838 
 316   0.0000       4.602666       125.2449 
 317   0.0000       4.604959       125.3073 
 318   0.0000       4.623279       125.8058 
 319   0.0000       4.632596       126.0593 
 320   0.0000       4.662260       126.8665 
 321   0.0000       4.672427       127.1432 
 322   0.0000       4.680316       127.3579 
 323   0.0000       4.700952       127.9194 
 324   0.0000       4.703860       127.9985 
 325   0.0000       4.724683       128.5652 
 326   0.0000       4.752206       129.3141 
 327   0.0000       4.763895       129.6322 
 328   0.0000       4.800603       130.6310 
 329   0.0000       4.816983       131.0768 
 330   0.0000       4.848949       131.9466 
 331   0.0000       4.850319       131.9839 
 332   0.0000       4.881906       132.8434 
 333   0.0000       4.889995       133.0635 
 334   0.0000       4.964086       135.0796 
 335   0.0000       4.978023       135.4589 
 336   0.0000       4.984206       135.6271 
 337   0.0000       5.003025       136.1392 
 338   0.0000       5.029295       136.8541 
 339   0.0000       5.034798       137.0038 
 340   0.0000       5.064837       137.8212 
 341   0.0000       5.109166       139.0275 
 342   0.0000       5.115251       139.1931 
 343   0.0000       5.137128       139.7884 
 344   0.0000       5.162761       140.4859 
 345   0.0000       5.169660       140.6736 
 346   0.0000       5.186681       141.1368 
 347   0.0000       5.210657       141.7892 
 348   0.0000       5.223454       142.1374 
 349   0.0000       5.237991       142.5330 
 350   0.0000       5.246017       142.7514 
 351   0.0000       5.281668       143.7215 
 352   0.0000       5.316237       144.6622 
 353   0.0000       5.339599       145.2979 
 354   0.0000       5.344086       145.4200 
 355   0.0000       5.356609       145.7607 
 356   0.0000       5.363684       145.9533 
 357   0.0000       5.379666       146.3881 
 358   0.0000       5.382258       146.4587 
 359   0.0000       5.394571       146.7937 
 360   0.0000       5.434590       147.8827 
 361   0.0000       5.435779       147.9151 
 362   0.0000       5.451262       148.3364 
 363   0.0000       5.453989       148.4106 
 364   0.0000       5.502022       149.7176 
 365   0.0000       5.548547       150.9836 
 366   0.0000       5.567435       151.4976 
 367   0.0000       5.591246       152.1455 
 368   0.0000       5.591645       152.1564 
 369   0.0000       5.633059       153.2833 
 370   0.0000       5.642696       153.5456 
 371   0.0000       5.668521       154.2483 
 372   0.0000       5.737643       156.1292 
 373   0.0000       5.738960       156.1650 
 374   0.0000       5.745758       156.3500 
 375   0.0000       5.755376       156.6117 
 376   0.0000       5.779873       157.2783 
 377   0.0000       5.784785       157.4120 
 378   0.0000       5.819401       158.3540 
 379   0.0000       5.840568       158.9299 
 380   0.0000       5.845338       159.0597 
 381   0.0000       5.859780       159.4527 
 382   0.0000       5.881760       160.0508 
 383   0.0000       5.907179       160.7425 
 384   0.0000       5.908816       160.7871 
 385   0.0000       5.913973       160.9274 
 386   0.0000       5.983069       162.8076 
 387   0.0000       5.988877       162.9656 
 388   0.0000       6.050410       164.6400 
 389   0.0000       6.141323       167.1139 
 390   0.0000       6.142380       167.1427 
 391   0.0000       6.242538       169.8681 
 392   0.0000       6.320929       172.0012 
 393   0.0000       6.336519       172.4254 
 394   0.0000       6.383732       173.7102 
 395   0.0000       6.391244       173.9146 
 396   0.0000       6.449334       175.4953 
 397   0.0000       6.481976       176.3835 
 398   0.0000       6.501880       176.9252 
 399   0.0000      12.083079       328.7973 
 400   0.0000      12.832534       349.1910 
 401   0.0000      13.239147       360.2555 
 402   0.0000      13.552685       368.7873 
 403   0.0000      13.612221       370.4074 
 404   0.0000      13.617730       370.5573 
 405   0.0000      14.222328       387.0092 

                    ********************************
                    * MULLIKEN POPULATION ANALYSIS *
                    ********************************

-----------------------
MULLIKEN ATOMIC CHARGES
-----------------------
   0 C :   -0.068588
   1 C :   -0.188163
   2 C :   -0.198405
   3 C :   -0.187375
   4 C :   -0.198403
   5 C :   -0.188164
   6 C :   -0.305074
   7 H :    0.107060
   8 H :    0.085895
   9 H :    0.107051
  10 H :    0.085295
  11 H :    0.085893
  12 H :    0.107057
  13 H :    0.084496
  14 H :    0.104425
  15 H :    0.104423
  16 H :    0.084499
  17 H :    0.095737
  18 H :    0.087242
  19 H :    0.097546
  20 H :    0.097553
Sum of atomic charges:    0.0000000

--------------------------------
MULLIKEN REDUCED ORBITAL CHARGES
--------------------------------
  0 C s       :     3.174082  s :     3.174082
      pz      :     0.993168  p :     2.747242
      px      :     0.864903
      py      :     0.889170
      dz2     :     0.043635  d :     0.138787
      dxz     :     0.016529
      dyz     :     0.017458
      dx2y2   :     0.030450
      dxy     :     0.030715
      f0      :     0.001481  f :     0.008477
      f+1     :     0.000846
      f-1     :     0.000827
      f+2     :     0.000916
      f-2     :     0.000855
      f+3     :     0.001758
      f-3     :     0.001793
  1 C s       :     3.209999  s :     3.209999
      pz      :     0.992697  p :     2.854259
      px      :     0.903537
      py      :     0.958025
      dz2     :     0.034391  d :     0.117065
      dxz     :     0.015405
      dyz     :     0.013123
      dx2y2   :     0.025285
      dxy     :     0.028862
      f0      :     0.001424  f :     0.006840
      f+1     :     0.000720
      f-1     :     0.000483
      f+2     :     0.000748
      f-2     :     0.000545
      f+3     :     0.001563
      f-3     :     0.001358
  2 C s       :     3.218628  s :     3.218628
      pz      :     0.991536  p :     2.858965
      px      :     0.904898
      py      :     0.962530
      dz2     :     0.033569  d :     0.114145
      dxz     :     0.015532
      dyz     :     0.013341
      dx2y2   :     0.024429
      dxy     :     0.027274
      f0      :     0.001432  f :     0.006667
      f+1     :     0.000681
      f-1     :     0.000480
      f+2     :     0.000735
      f-2     :     0.000533
      f+3     :     0.001556
      f-3     :     0.001249
  3 C s       :     3.212566  s :     3.212566
      pz      :     0.984905  p :     2.854216
      px      :     0.985577
      py      :     0.883734
      dz2     :     0.035750  d :     0.113922
      dxz     :     0.009248
      dyz     :     0.016761
      dx2y2   :     0.031170
      dxy     :     0.020994
      f0      :     0.001448  f :     0.006671
      f+1     :     0.000341
      f-1     :     0.000805
      f+2     :     0.000508
      f-2     :     0.000815
      f+3     :     0.001541
      f-3     :     0.001212
  4 C s       :     3.218628  s :     3.218628
      pz      :     0.991536  p :     2.858963
      px      :     0.904897
      py      :     0.962529
      dz2     :     0.033568  d :     0.114145
      dxz     :     0.015533
      dyz     :     0.013341
      dx2y2   :     0.024427
      dxy     :     0.027276
      f0      :     0.001432  f :     0.006667
      f+1     :     0.000681
      f-1     :     0.000480
      f+2     :     0.000735
      f-2     :     0.000533
      f+3     :     0.001556
      f-3     :     0.001249
  5 C s       :     3.210001  s :     3.210001
      pz      :     0.992701  p :     2.854259
      px      :     0.903535
      py      :     0.958022
      dz2     :     0.034390  d :     0.117064
      dxz     :     0.015405
      dyz     :     0.013123
      dx2y2   :     0.025283
      dxy     :     0.028863
      f0      :     0.001424  f :     0.006840
      f+1     :     0.000720
      f-1     :     0.000483
      f+2     :     0.000748
      f-2     :     0.000545
      f+3     :     0.001563
      f-3     :     0.001358
  6 C s       :     3.270787  s :     3.270787
      pz      :     1.002120  p :     2.942778
      px      :     0.920176
      py      :     1.020483
      dz2     :     0.024351  d :     0.086538
      dxz     :     0.013271
      dyz     :     0.007511
      dx2y2   :     0.013675
      dxy     :     0.027730
      f0      :     0.001432  f :     0.004971
      f+1     :     0.000582
      f-1     :     0.000059
      f+2     :     0.000540
      f-2     :     0.000192
      f+3     :     0.001397
      f-3     :     0.000769
  7 H s       :     0.861984  s :     0.861984
      pz      :     0.006914  p :     0.028515
      px      :     0.009972
      py      :     0.011629
      dz2     :     0.000418  d :     0.002441
      dxz     :     0.000169
      dyz     :     0.000396
      dx2y2   :     0.000841
      dxy     :     0.000617
  8 H s       :     0.884110  s :     0.884110
      pz      :     0.010992  p :     0.027574
      px      :     0.008620
      py      :     0.007963
      dz2     :     0.000660  d :     0.002421
      dxz     :     0.000896
      dyz     :     0.000788
      dx2y2   :     0.000055
      dxy     :     0.000021
  9 H s       :     0.861889  s :     0.861889
      pz      :     0.007055  p :     0.028623
      px      :     0.012375
      py      :     0.009192
      dz2     :     0.000372  d :     0.002437
      dxz     :     0.000518
      dyz     :     0.000043
      dx2y2   :     0.000505
      dxy     :     0.000999
 10 H s       :     0.884560  s :     0.884560
      pz      :     0.011309  p :     0.027720
      px      :     0.007585
      py      :     0.008827
      dz2     :     0.000679  d :     0.002425
      dxz     :     0.000708
      dyz     :     0.000988
      dx2y2   :     0.000022
      dxy     :     0.000027
 11 H s       :     0.884112  s :     0.884112
      pz      :     0.010992  p :     0.027574
      px      :     0.008619
      py      :     0.007963
      dz2     :     0.000660  d :     0.002421
      dxz     :     0.000896
      dyz     :     0.000788
      dx2y2   :     0.000055
      dxy     :     0.000021
 12 H s       :     0.861987  s :     0.861987
      pz      :     0.006914  p :     0.028515
      px      :     0.009972
      py      :     0.011630
      dz2     :     0.000418  d :     0.002441
      dxz     :     0.000170
      dyz     :     0.000396
      dx2y2   :     0.000841
      dxy     :     0.000617
 13 H s       :     0.885437  s :     0.885437
      pz      :     0.010825  p :     0.027636
      px      :     0.008844
      py      :     0.007968
      dz2     :     0.000657  d :     0.002431
      dxz     :     0.000914
      dyz     :     0.000789
      dx2y2   :     0.000052
      dxy     :     0.000018
 14 H s       :     0.864546  s :     0.864546
      pz      :     0.006794  p :     0.028580
      px      :     0.009784
      py      :     0.012001
      dz2     :     0.000418  d :     0.002450
      dxz     :     0.000168
      dyz     :     0.000394
      dx2y2   :     0.000867
      dxy     :     0.000603
 15 H s       :     0.864547  s :     0.864547
      pz      :     0.006794  p :     0.028580
      px      :     0.009784
      py      :     0.012002
      dz2     :     0.000418  d :     0.002450
      dxz     :     0.000168
      dyz     :     0.000394
      dx2y2   :     0.000867
      dxy     :     0.000603
 16 H s       :     0.885433  s :     0.885433
      pz      :     0.010825  p :     0.027636
      px      :     0.008844
      py      :     0.007968
      dz2     :     0.000657  d :     0.002431
      dxz     :     0.000914
      dyz     :     0.000789
      dx2y2   :     0.000052
      dxy     :     0.000018
 17 H s       :     0.871511  s :     0.871511
      pz      :     0.011487  p :     0.029974
      px      :     0.009472
      py      :     0.009015
      dz2     :     0.000660  d :     0.002779
      dxz     :     0.001020
      dyz     :     0.001015
      dx2y2   :     0.000054
      dxy     :     0.000029
 18 H s       :     0.884633  s :     0.884633
      pz      :     0.010135  p :     0.025963
      px      :     0.008444
      py      :     0.007384
      dz2     :     0.000702  d :     0.002162
      dxz     :     0.000844
      dyz     :     0.000569
      dx2y2   :     0.000041
      dxy     :     0.000004
 19 H s       :     0.873675  s :     0.873675
      pz      :     0.007492  p :     0.026609
      px      :     0.010429
      py      :     0.008689
      dz2     :     0.000362  d :     0.002170
      dxz     :     0.000174
      dyz     :     0.000399
      dx2y2   :     0.000626
      dxy     :     0.000608
 20 H s       :     0.873669  s :     0.873669
      pz      :     0.007492  p :     0.026609
      px      :     0.010429
      py      :     0.008688
      dz2     :     0.000362  d :     0.002170
      dxz     :     0.000174
      dyz     :     0.000399
      dx2y2   :     0.000626
      dxy     :     0.000608


                     *******************************
                     * LOEWDIN POPULATION ANALYSIS *
                     *******************************

----------------------
LOEWDIN ATOMIC CHARGES
----------------------
   0 C :   -0.021260
   1 C :    0.060842
   2 C :    0.057846
   3 C :    0.056023
   4 C :    0.057842
   5 C :    0.060849
   6 C :    0.110561
   7 H :   -0.027710
   8 H :   -0.027502
   9 H :   -0.028008
  10 H :   -0.027625
  11 H :   -0.027501
  12 H :   -0.027708
  13 H :   -0.026130
  14 H :   -0.026577
  15 H :   -0.026576
  16 H :   -0.026136
  17 H :   -0.024461
  18 H :   -0.029119
  19 H :   -0.028823
  20 H :   -0.028829

-------------------------------
LOEWDIN REDUCED ORBITAL CHARGES
-------------------------------
  0 C s       :     2.659684  s :     2.659684
      pz      :     0.953860  p :     2.788442
      px      :     0.913301
      py      :     0.921282
      dz2     :     0.139594  d :     0.522280
      dxz     :     0.065428
      dyz     :     0.066614
      dx2y2   :     0.125555
      dxy     :     0.125089
      f0      :     0.006332  f :     0.050854
      f+1     :     0.005598
      f-1     :     0.005878
      f+2     :     0.006820
      f-2     :     0.006770
      f+3     :     0.007151
      f-3     :     0.012305
  1 C s       :     2.659326  s :     2.659326
      pz      :     0.961207  p :     2.815490
      px      :     0.918358
      py      :     0.935925
      dz2     :     0.115538  d :     0.424615
      dxz     :     0.057989
      dyz     :     0.047239
      dx2y2   :     0.095967
      dxy     :     0.107882
      f0      :     0.005913  f :     0.039727
      f+1     :     0.004814
      f-1     :     0.003250
      f+2     :     0.005889
      f-2     :     0.005371
      f+3     :     0.006523
      f-3     :     0.007967
  2 C s       :     2.659848  s :     2.659848
      pz      :     0.963377  p :     2.820038
      px      :     0.919150
      py      :     0.937512
      dz2     :     0.113897  d :     0.422572
      dxz     :     0.057993
      dyz     :     0.048654
      dx2y2   :     0.096302
      dxy     :     0.105725
      f0      :     0.005907  f :     0.039696
      f+1     :     0.004746
      f-1     :     0.003205
      f+2     :     0.006051
      f-2     :     0.005322
      f+3     :     0.006465
      f-3     :     0.007999
  3 C s       :     2.660249  s :     2.660249
      pz      :     0.960858  p :     2.820495
      px      :     0.946356
      py      :     0.913281
      dz2     :     0.121181  d :     0.423441
      dxz     :     0.033594
      dyz     :     0.065717
      dx2y2   :     0.119504
      dxy     :     0.083445
      f0      :     0.005782  f :     0.039792
      f+1     :     0.002501
      f-1     :     0.005848
      f+2     :     0.005160
      f-2     :     0.006303
      f+3     :     0.006500
      f-3     :     0.007699
  4 C s       :     2.659849  s :     2.659849
      pz      :     0.963377  p :     2.820040
      px      :     0.919156
      py      :     0.937506
      dz2     :     0.113895  d :     0.422573
      dxz     :     0.057995
      dyz     :     0.048653
      dx2y2   :     0.096299
      dxy     :     0.105730
      f0      :     0.005907  f :     0.039696
      f+1     :     0.004747
      f-1     :     0.003205
      f+2     :     0.006050
      f-2     :     0.005322
      f+3     :     0.006465
      f-3     :     0.007999
  5 C s       :     2.659329  s :     2.659329
      pz      :     0.961212  p :     2.815489
      px      :     0.918363
      py      :     0.935915
      dz2     :     0.115533  d :     0.424608
      dxz     :     0.057993
      dyz     :     0.047240
      dx2y2   :     0.095961
      dxy     :     0.107881
      f0      :     0.005913  f :     0.039726
      f+1     :     0.004814
      f-1     :     0.003250
      f+2     :     0.005889
      f-2     :     0.005371
      f+3     :     0.006523
      f-3     :     0.007967
  6 C s       :     2.662060  s :     2.662060
      pz      :     0.976011  p :     2.880771
      px      :     0.926855
      py      :     0.977905
      dz2     :     0.089558  d :     0.317453
      dxz     :     0.051664
      dyz     :     0.026125
      dx2y2   :     0.055366
      dxy     :     0.094740
      f0      :     0.005470  f :     0.029155
      f+1     :     0.004050
      f-1     :     0.000630
      f+2     :     0.004856
      f-2     :     0.004321
      f+3     :     0.005746
      f-3     :     0.004082
  7 H s       :     0.846827  s :     0.846827
      pz      :     0.043559  p :     0.152929
      px      :     0.046726
      py      :     0.062644
      dz2     :     0.004940  d :     0.027954
      dxz     :     0.002348
      dyz     :     0.006080
      dx2y2   :     0.007778
      dxy     :     0.006808
  8 H s       :     0.847629  s :     0.847629
      pz      :     0.074249  p :     0.151855
      px      :     0.039107
      py      :     0.038499
      dz2     :     0.009300  d :     0.028018
      dxz     :     0.009040
      dyz     :     0.009317
      dx2y2   :     0.000293
      dxy     :     0.000068
  9 H s       :     0.847197  s :     0.847197
      pz      :     0.041889  p :     0.152874
      px      :     0.071010
      py      :     0.039975
      dz2     :     0.004278  d :     0.027937
      dxz     :     0.007923
      dyz     :     0.000492
      dx2y2   :     0.006568
      dxy     :     0.008677
 10 H s       :     0.847877  s :     0.847877
      pz      :     0.074607  p :     0.151745
      px      :     0.037994
      py      :     0.039144
      dz2     :     0.009390  d :     0.028003
      dxz     :     0.009236
      dyz     :     0.009184
      dx2y2   :     0.000096
      dxy     :     0.000097
 11 H s       :     0.847629  s :     0.847629
      pz      :     0.074249  p :     0.151855
      px      :     0.039107
      py      :     0.038500
      dz2     :     0.009300  d :     0.028017
      dxz     :     0.009040
      dyz     :     0.009317
      dx2y2   :     0.000293
      dxy     :     0.000068
 12 H s       :     0.846827  s :     0.846827
      pz      :     0.043559  p :     0.152927
      px      :     0.046726
      py      :     0.062643
      dz2     :     0.004940  d :     0.027954
      dxz     :     0.002348
      dyz     :     0.006080
      dx2y2   :     0.007778
      dxy     :     0.006807
 13 H s       :     0.846929  s :     0.846929
      pz      :     0.074587  p :     0.151115
      px      :     0.038368
      py      :     0.038161
      dz2     :     0.009322  d :     0.028085
      dxz     :     0.009056
      dyz     :     0.009343
      dx2y2   :     0.000306
      dxy     :     0.000058
 14 H s       :     0.846275  s :     0.846275
      pz      :     0.043222  p :     0.152262
      px      :     0.046447
      py      :     0.062594
      dz2     :     0.004852  d :     0.028039
      dxz     :     0.002342
      dyz     :     0.006059
      dx2y2   :     0.007995
      dxy     :     0.006792
 15 H s       :     0.846276  s :     0.846276
      pz      :     0.043222  p :     0.152261
      px      :     0.046447
      py      :     0.062592
      dz2     :     0.004852  d :     0.028039
      dxz     :     0.002342
      dyz     :     0.006059
      dx2y2   :     0.007995
      dxy     :     0.006792
 16 H s       :     0.846932  s :     0.846932
      pz      :     0.074588  p :     0.151118
      px      :     0.038368
      py      :     0.038162
      dz2     :     0.009322  d :     0.028086
      dxz     :     0.009056
      dyz     :     0.009343
      dx2y2   :     0.000306
      dxy     :     0.000058
 17 H s       :     0.841510  s :     0.841510
      pz      :     0.076571  p :     0.154281
      px      :     0.038337
      py      :     0.039374
      dz2     :     0.009787  d :     0.028669
      dxz     :     0.009129
      dyz     :     0.009446
      dx2y2   :     0.000248
      dxy     :     0.000058
 18 H s       :     0.851211  s :     0.851211
      pz      :     0.072593  p :     0.150293
      px      :     0.038087
      py      :     0.039613
      dz2     :     0.008945  d :     0.027615
      dxz     :     0.009090
      dyz     :     0.009285
      dx2y2   :     0.000257
      dxy     :     0.000038
 19 H s       :     0.850511  s :     0.850511
      pz      :     0.043490  p :     0.150733
      px      :     0.046321
      py      :     0.060923
      dz2     :     0.004555  d :     0.027579
      dxz     :     0.002528
      dyz     :     0.005926
      dx2y2   :     0.007709
      dxy     :     0.006861
 20 H s       :     0.850510  s :     0.850510
      pz      :     0.043492  p :     0.150738
      px      :     0.046323
      py      :     0.060924
      dz2     :     0.004555  d :     0.027580
      dxz     :     0.002528
      dyz     :     0.005927
      dx2y2   :     0.007710
      dxy     :     0.006861


                      *****************************
                      * MAYER POPULATION ANALYSIS *
                      *****************************

  NA   - Mulliken gross atomic population
  ZA   - Total nuclear charge
  QA   - Mulliken gross atomic charge
  VA   - Mayer's total valence
  BVA  - Mayer's bonded valence
  FA   - Mayer's free valence

  ATOM       NA         ZA         QA         VA         BVA        FA
  0 C      6.0686     6.0000    -0.0686     3.8180     3.8180     0.0000
  1 C      6.1882     6.0000    -0.1882     3.8637     3.8637    -0.0000
  2 C      6.1984     6.0000    -0.1984     3.8752     3.8752     0.0000
  3 C      6.1874     6.0000    -0.1874     3.8584     3.8584     0.0000
  4 C      6.1984     6.0000    -0.1984     3.8752     3.8752     0.0000
  5 C      6.1882     6.0000    -0.1882     3.8637     3.8637     0.0000
  6 C      6.3051     6.0000    -0.3051     3.8923     3.8923     0.0000
  7 H      0.8929     1.0000     0.1071     0.9793     0.9793     0.0000
  8 H      0.9141     1.0000     0.0859     0.9843     0.9843     0.0000
  9 H      0.8929     1.0000     0.1071     0.9795     0.9795     0.0000
 10 H      0.9147     1.0000     0.0853     0.9846     0.9846     0.0000
 11 H      0.9141     1.0000     0.0859     0.9843     0.9843    -0.0000
 12 H      0.8929     1.0000     0.1071     0.9793     0.9793     0.0000
 13 H      0.9155     1.0000     0.0845     0.9871     0.9871    -0.0000
 14 H      0.8956     1.0000     0.1044     0.9823     0.9823    -0.0000
 15 H      0.8956     1.0000     0.1044     0.9823     0.9823     0.0000
 16 H      0.9155     1.0000     0.0845     0.9871     0.9871     0.0000
 17 H      0.9043     1.0000     0.0957     0.9851     0.9851     0.0000
 18 H      0.9128     1.0000     0.0872     0.9810     0.9810     0.0000
 19 H      0.9025     1.0000     0.0975     0.9814     0.9814     0.0000
 20 H      0.9024     1.0000     0.0976     0.9814     0.9814     0.0000

  Mayer bond orders larger than 0.1
B(  0-C ,  1-C ) :   0.9490 B(  0-C ,  5-C ) :   0.9490 B(  0-C ,  6-C ) :   0.9626 
B(  0-C , 17-H ) :   0.9779 B(  1-C ,  2-C ) :   0.9577 B(  1-C , 13-H ) :   0.9803 
B(  1-C , 14-H ) :   0.9943 B(  2-C ,  3-C ) :   0.9473 B(  2-C ,  7-H ) :   0.9952 
B(  2-C ,  8-H ) :   0.9848 B(  3-C ,  4-C ) :   0.9473 B(  3-C ,  9-H ) :   0.9958 
B(  3-C , 10-H ) :   0.9846 B(  4-C ,  5-C ) :   0.9577 B(  4-C , 11-H ) :   0.9848 
B(  4-C , 12-H ) :   0.9952 B(  5-C , 15-H ) :   0.9943 B(  5-C , 16-H ) :   0.9803 
B(  6-C , 18-H ) :   0.9804 B(  6-C , 19-H ) :   0.9870 B(  6-C , 20-H ) :   0.9870 


-------
TIMINGS
-------

Total SCF time: 0 days 0 hours 0 min 35 sec 

Total time                  ....      35.858 sec
Sum of individual times     ....      35.413 sec  ( 98.8%)

Fock matrix formation       ....      34.369 sec  ( 95.8%)
Diagonalization             ....       0.260 sec  (  0.7%)
Density matrix formation    ....       0.019 sec  (  0.1%)
Population analysis         ....       0.087 sec  (  0.2%)
Initial guess               ....       0.314 sec  (  0.9%)
Orbital Transformation      ....       0.000 sec  (  0.0%)
Orbital Orthonormalization  ....       0.000 sec  (  0.0%)
DIIS solution               ....       0.000 sec  (  0.0%)
SOSCF solution              ....       0.206 sec  (  0.6%)


           ************************************************************
           *        Program running with 8 parallel MPI-processes     *
           *              working on a common directory               *
           ************************************************************


------------------------------------------------------------------------------- 
                              ORCA-MATRIX DRIVEN CI                            
------------------------------------------------------------------------------- 


Wavefunction type
-----------------
Correlation treatment                      ...      CCSD     
Single excitations                         ... ON
Orbital optimization                       ... OFF
Calculation of Z vector                    ... OFF
Calculation of Brueckner orbitals          ... OFF
Perturbative triple excitations            ... ON
Calculation of F12 correction              ... OFF
Frozen core treatment                      ... chemical core (14 el)
Reference Wavefunction                     ... RHF
  Internal Orbitals:     7 ...   27 ( 21 MO's/ 42 electrons)
  Virtual  Orbitals:    28 ...  405 (378 MO's              )
Number of AO's                             ...    406
Number of electrons                        ...     56
Number of correlated electrons             ...     42

Algorithmic settings
--------------------
Integral transformation                    ... All integrals via the RI transformation
K(C) Formation                             ... RI-DLPNO
   PNO-Integral Storage                    ... ON DISK
   PNO occupation number cut-off           ... 1.000e-07
   Singles PNO occupation number cut-off   ... 3.000e-09
   PNO Mulliken prescreening cut-off       ... 1.000e-03
   Domain cut-off (Mulliken population)    ... 1.000e-03
   PNO Normalization                       ...    1
Maximum number of iterations               ...        50
Convergence tolerance (max. residuum)      ... 1.000e-05
Level shift for amplitude update           ... 2.000e-01
Maximum number of DIIS vectors             ...         7
DIIS turned on at iteration                ...         0
Damping before turning on DIIS             ...     0.500
Damping after turning on DIIS              ...     0.000
Pair specific amplitude update             ... OFF
Natural orbital iterations                 ... OFF
Perturbative natural orbital generation    ... OFF
Printlevel                                 ... 2

Singles Fock matrix elements calculated using PNOs.

Memory handling:
----------------
Maximum memory for working arrays          ...   8000 MB
Data storage in matrix containers          ... UNCOMPRESSED
Data type for integral storage             ... DOUBLE
In-Core Storage of quantities:
   Amplitudes+Sigma Vector      ... NO
   J+K operators                ... NO
   DIIS vectors                 ... NO
   3-external integrals         ... NO
   4-external integrals         ... NO

Localization treatment:
-----------------------
Localization option                        ...    6
Localization threshhold                    ... -1.0e+00
Using relative localization threshhold     ... 1.0e-08
Neglect threshold for strong pairs         ... 1.000e-05 Eh
Prescreening threshold for very weak pairs ... 1.000e-07 Eh

Initializing the integral package          ... done
Localizing the valence orbitals
------------------------------------------------------------------------------
                           ORCA ORBITAL LOCALIZATION
------------------------------------------------------------------------------

Input orbitals are from                  ... methylcyclohexane_eq.proc0.gbw
Output orbitals are to                   ... methylcyclohexane_eq.proc0.loc
Max. number of iterations                ... 128
Localizations seeded randomly            ... off
Convergence tolerance                    ... 1.000e-06
Using relative localization threshhold   ... 1.000e-08
Treshold for strong local MOs            ... 9.500e-01
Treshold for bond MOs                    ... 8.500e-01
Operator                                 ... 0
Orbital range for localization           ... 7 to 27
Localization criterion                   ... FOSTER-BOYS (AUGMENTED HESSIAN)
Doing the dipole integrals     ... o.k.
Initial value of the localization sum :   222.770949
ITERATION   0 : L=  296.8699032837 DL=  7.41e+01 (AVERGE_DL)=    0.5940136036 
ITERATION   1 : L=  305.4094010853 DL=  8.54e+00 (AVERGE_DL)=    0.2016538501 
ITERATION   2 : L=  305.5008414709 DL=  9.14e-02 (AVERGE_DL)=    0.0208669693 
ITERATION   3 : L=  305.5009122589 DL=  7.08e-05 (AVERGE_DL)=    0.0005805905 
ITERATION   4 : L=  305.5009123546 DL=  9.58e-08 (AVERGE_DL)=    0.0000213556 
LOCALIZATION SUM CONVERGED

------------------------------------------------------
AUGMENTED HESSIAN OPTIMIZATION OF FOSTER-BOYS ORBITALS
------------------------------------------------------

Spin operator:           0
Orbital window:          7 to 27
Number of iterations:    128
Gradient tolerance:      1.000e-06
Number of pairs:         210
Davidson threshold:      2000
Diagonalization method:  LAPACK
Iter:    0   L: 305.5009123546   Grad. norm: 1.118596e-03
   *** Likely close to a maximum now. ***
       Augmented Hessian eigenvalues:  7.34e-09 -1.73e+01 -1.80e+01 -1.80e+01 ... 
Iter:    1   L: 305.5009123583   Grad. norm: 1.642002e-10
LOCALIZATION HAS CONVERGED.

Eigenvalues of the Hessian:
  0 -1.728e+01
  1 -1.798e+01
  2 -1.798e+01
  3 -1.802e+01
  4 -1.803e+01
  5 -1.811e+01
  6 -1.816e+01
  7 -1.828e+01
  8 -1.832e+01
  9 -1.851e+01
    ...


------------------------------------------------------------------------------- 
                    LOCALIZED MOLECULAR ORBITAL COMPOSITIONS                   
------------------------------------------------------------------------------- 

The Mulliken populations for each LMO on each atom are computed
The LMO`s will be ordered according to atom index and type
  (A) Strongly localized MO`s have populations of >=0.950 on one atom
  (B) Two center bond orbitals have populations of >=0.850 on two atoms
  (C) Other MO`s are considered to be `delocalized`

FOUND  -   0 strongly local MO`s
       -  21 two center bond MO`s
       -   0 significantly delocalized MO`s

Bond-like localized orbitals:
MO  27:  20H  -   0.470166  and   6C  -   0.559348
MO  26:  19H  -   0.470169  and   6C  -   0.559345
MO  25:  18H  -   0.476753  and   6C  -   0.548897
MO  24:  17H  -   0.469858  and   0C  -   0.554085
MO  23:  16H  -   0.475747  and   5C  -   0.548525
MO  22:  15H  -   0.464790  and   5C  -   0.569084
MO  21:  14H  -   0.464790  and   1C  -   0.569085
MO  20:  13H  -   0.475750  and   1C  -   0.548523
MO  19:  12H  -   0.464279  and   4C  -   0.570124
MO  18:  11H  -   0.475844  and   4C  -   0.552003
MO  17:  10H  -   0.476033  and   3C  -   0.551723
MO  16:   9H  -   0.464091  and   3C  -   0.570874
MO  15:   8H  -   0.475842  and   2C  -   0.552004
MO  14:   7H  -   0.464278  and   2C  -   0.570126
MO  13:   6C  -   0.508351  and   0C  -   0.531585
MO  12:   5C  -   0.523269  and   4C  -   0.512105
MO  11:   5C  -   0.510833  and   0C  -   0.520447
MO  10:   4C  -   0.517912  and   3C  -   0.514737
MO   9:   3C  -   0.514739  and   2C  -   0.517910
MO   8:   2C  -   0.512104  and   1C  -   0.523271
MO   7:   1C  -   0.510832  and   0C  -   0.520446
Localized MO's were stored in: methylcyclohexane_eq.proc0.loc

Localizing the core orbitals
------------------------------------------------------------------------------
                           ORCA ORBITAL LOCALIZATION
------------------------------------------------------------------------------

Input orbitals are from                  ... methylcyclohexane_eq.proc0.loc
Output orbitals are to                   ... methylcyclohexane_eq.proc0.loc
Max. number of iterations                ... 128
Localizations seeded randomly            ... off
Convergence tolerance                    ... 1.000e-06
Using relative localization threshhold   ... 1.000e-08
Treshold for strong local MOs            ... 9.500e-01
Treshold for bond MOs                    ... 8.500e-01
Operator                                 ... 0
Orbital range for localization           ... 0 to 6
Localization criterion                   ... FOSTER-BOYS (AUGMENTED HESSIAN)
Doing the dipole integrals     ... o.k.
Initial value of the localization sum :    74.020885
ITERATION   0 : L=   74.0208862642 DL=  1.15e-06 (AVERGE_DL)=    0.0002339456 
ITERATION   1 : L=   74.0208862642 DL=  0.00e+00 (AVERGE_DL)=    0.0000000000 
LOCALIZATION SUM CONVERGED

------------------------------------------------------
AUGMENTED HESSIAN OPTIMIZATION OF FOSTER-BOYS ORBITALS
------------------------------------------------------

Spin operator:           0
Orbital window:          0 to 6
Number of iterations:    128
Gradient tolerance:      1.000e-06
Number of pairs:         21
Davidson threshold:      2000
Diagonalization method:  LAPACK
Iter:    0   L: 74.0208862642   Grad. norm: 4.662715e-07
   *** Likely close to a maximum now. ***
       Augmented Hessian eigenvalues:  1.76e-15 -3.36e+01 -3.37e+01 -3.37e+01 ... 
Iter:    1   L: 74.0208862642   Grad. norm: 7.915005e-21
LOCALIZATION HAS CONVERGED.

Eigenvalues of the Hessian:
  0 -3.360e+01
  1 -3.373e+01
  2 -3.373e+01
  3 -3.377e+01
  4 -3.377e+01
  5 -3.390e+01
  6 -3.390e+01
  7 -9.127e+01
  8 -9.198e+01
  9 -9.232e+01
    ...


------------------------------------------------------------------------------- 
                    LOCALIZED MOLECULAR ORBITAL COMPOSITIONS                   
------------------------------------------------------------------------------- 

The Mulliken populations for each LMO on each atom are computed
The LMO`s will be ordered according to atom index and type
  (A) Strongly localized MO`s have populations of >=0.950 on one atom
  (B) Two center bond orbitals have populations of >=0.850 on two atoms
  (C) Other MO`s are considered to be `delocalized`

FOUND  -   7 strongly local MO`s
       -   0 two center bond MO`s
       -   0 significantly delocalized MO`s

Rather strongly localized orbitals:
MO   6:   6C  -   1.001204
MO   5:   5C  -   1.001498
MO   4:   4C  -   1.001553
MO   3:   3C  -   1.001469
MO   2:   2C  -   1.001553
MO   1:   1C  -   1.001498
MO   0:   0C  -   1.001416
Localized MO's were stored in: methylcyclohexane_eq.proc0.loc

Warning: internal orbitals are localized - no re-canonicalization of internal orbitals

--------------------------
CLOSED-SHELL FOCK OPERATOR
--------------------------

RI-JK section for the Fock operator:
  RHF full Fock operator         ... done
[...]
   TCutCMO   ...     1.0e-03
   TCutCPAO  ...     1.0e-03

Thresholds for map construction and integral transformation for strong Triples:
   TCutMKN   ...     1.0e-02
   TCutDO    ...     1.0e-02
   TCutCMO   ...     1.0e-03
   TCutCPAO  ...     1.0e-03

Thresholds for map construction and integral transformation for weak Triples:
   TCutMKN   ...     1.0e-01
   TCutDO    ...     2.0e-02
   TCutCMO   ...     1.0e-03
   TCutCPAO  ...     1.0e-03

--------------------------------
LOCAL RI TRANSFORMATION (IAVPAO)
--------------------------------

Orbital window:       7 to 27
Number of PAOs:     406
Basis functions:    406 (154 shells)
Aux. functions:     987 (301 shells)

Processing maps (0.0 sec)
Average map sizes:
   Aux shells -> MOs              21.0
   Aux shells -> PAOs            406.0
   MOs        -> AO shells       148.3
   PAOs       -> AO shells       154.0

Calculating integrals (0.9 sec, 64.214 MB)
Sorting integrals (0.1 sec, 64.203 MB)
Total time for the integral transformation: 1.1 sec
--------------------------------
INITIAL GUESS AND PNO GENERATION
--------------------------------

PNO truncation parameters                   .... 
    ScaleTCutPNO       =        1.000e-02
    PAOOverlapThresh   =        1.000e-08

    TCutPairs          =        1.000e-05
    TCutPNO            =        1.000e-07
    TCutPNOSingles     =        3.000e-09
    TCutMP2Pairs       =        1.000e-06
    TCutMKN            =        1.000e-03
    TCutDO             =        5.000e-03

Pair selection                          .... not used
Type of local MP2 treatment                 .... full local PMP2
Strategy for PNO selection                  .... occupation number selection
Pair density normalization                  .... MP2 norm
Spin component scaling                      .... not used

PASS-1: Formation of initial guess LMP2 amplitudes
Initial amplitudes guess done. Entering LMP2 iteration loop:
   Max. no of iterations          ...  50
   Energy convergence tolerance   ...    1.0e-07
   Residual convergence tolerance ...    5.0e-07
   Fock matrix cutoff             ...    1.0e-05 Eh
   DIIS convergence acceleration parameters:
        Max # vectors in DIIS     ... 7
        Start iteration of DIIS   ... 0
        Levelshift                ... 2.000e-01
        Damping factor 1          ... 5.000e-01
        Damping factor 2          ... 1.000e+00
   L-MP2 PNO cut-off              ...   1.0e-09
   L-MP2 PNO cut-off (core)       ...   1.0e-11
                           *** Turning on DIIS ***
LMP2-Iter=   0:  ELMP2= -1.208103336155  DE=   2.0e-02 RMAX=   3.3e-03
LMP2-Iter=   1:  ELMP2= -1.218308476299  DE=   1.0e-02 RMAX=   1.4e-03
LMP2-Iter=   2:  ELMP2= -1.219786407811  DE=   1.5e-03 RMAX=   1.4e-04
LMP2-Iter=   3:  ELMP2= -1.219906755428  DE=   1.2e-04 RMAX=   5.1e-05
LMP2-Iter=   4:  ELMP2= -1.219908980543  DE=   2.2e-06 RMAX=   5.6e-06
LMP2-Iter=   5:  ELMP2= -1.219908090878  DE=   8.9e-07 RMAX=   1.5e-06
LMP2-Iter=   6:  ELMP2= -1.219908020054  DE=   7.1e-08 RMAX=   1.5e-07
LMP2-Iter=   7:  ELMP2= -1.219908017559  DE=   2.5e-09 RMAX=   4.1e-08 => CONVERGED
PASS-2: Formation of Pair natural orbitals
   .... Finished loop over pairs

 PNO Occupation Number Statistics: 
  | Av. % of trace(Dij) retained        ...  99.466169745354
  | sigma^2 in % of trace(Dij) retained ...   4.72e-01
  | Av. % of trace(Di) retained         ...  99.999715240779
  | sigma^2 in % of trace(Di) retained  ...   4.86e-09
 Distributions of % trace(Dij) recovered:
  |       >= 99.9  ...    63 ( 27.3 % of all pairs)
  |   [90.0, 99.0) ...    36 ( 15.6 % of all pairs)
  |   [99.0, 99.9) ...   132 ( 57.1 % of all pairs)
 Distributions of % trace(Di) recovered :
  |       >= 99.9  ...    21 (100.0 % of all I-pairs )

Making pair pair interaction lists          ... done

                       ===========================
                        231 OF  231 PAIRS ARE KEPT
                       ===========================

Total time spent in the initial guess                 ...    21.130 sec
L-MP2 correlation energy (all non-screened pairs)     ...      -1.219908017559 Eh
L-MP2 PNO error correction                            ...      -0.000032247106 Eh
                                                          --------------------
Initial total L-MP2 energy (non-screened pairs)       ...      -1.219940264664 Eh

Initial PNO correlation energy                        ...      -1.218612239597 Eh
sum of pair energies estimated for screened out pairs ...       0.000000000000 Eh
sum of MP2 pair energies for pairs that were not kept ...       0.000000000000 Eh
sum of PNO error estimates for the kept pairs         ...      -0.001328025067 Eh
                                                          --------------------
sum of all corrections                                         -0.001328025067
Initial total correlation energy                               -1.219940264664
Thresholds for map construction and integral transformation for fine MP2 and CCSD(T) calculation:
   TCutMKN   ...     1.0e-03
   TCutDO    ...     5.0e-03
   TCutPairs ...     1.0e-05
   TCutCMO   ...     1.0e-03
   TCutCPAO  ...     1.0e-03

Time for aux screen maps:            0.010
Time for maps after fine MP2:            0.029
-----------------------------
LOCAL RI TRANSFORMATION (IJV)
-----------------------------

Orbital window:       7 to 27
Basis functions:    406 (154 shells)
Aux. functions:     987 (301 shells)

Processing maps (0.0 sec)
Average map sizes:
   Aux shells -> MOs(i)           21.0
   Aux shells -> MOs(j)           21.0
   MOs        -> AO shells       148.3

Calculating integrals (0.9 sec, 3.332 MB)
Sorting integrals (0.0 sec, 3.321 MB)
Total time for the integral transformation: 0.9 sec
--------------------------------
LOCAL RI TRANSFORMATION (VABPAO)
--------------------------------

Number of PAOs:     406
Basis functions:    406 (154 shells)
Aux. functions:     987 (301 shells)

Processing maps (0.0 sec)
Average map sizes:
   Aux shells -> PAOs            406.0
   PAOs       -> AO shells       154.0

Calculating integrals (3.2 sec, 2314.003 MB)
Finished


-------------------------------------
Pair Pair Term precalculation with     
RI-(ij|mn) and (im|jn) transformation  
ON THE FLY                             
-------------------------------------

   IBatch   1 (of   2)              ... done (   56.163 sec)
   IBatch   2 (of   2)              ... done (   34.784 sec)
Total EXT                           ...          90.947 sec

---------------------
RI-PNO TRANSFORMATION
---------------------

Total Number of PNOs                   ...  9714
Average number of PNOs per pair        ...    42
Maximal number of PNOs per pair        ...    71
   #pairs with  1 -  5 PNOs   :    0
   #pairs with  6 - 10 PNOs   :   10
   #pairs with 11 - 15 PNOs   :   12
   #pairs with 16 - 20 PNOs   :   14
   #pairs with 21 - 25 PNOs   :    2
   #pairs with 26 - 30 PNOs   :   47
   #pairs with 31 - 35 PNOs   :   12
   #pairs with 36 - 40 PNOs   :    8
   #pairs with 41 - 45 PNOs   :    0
   #pairs with 46 - 50 PNOs   :   42
   #pairs with 51 - 55 PNOs   :   35
   #pairs with 61 - 65 PNOs   :    8
   #pairs with 66 - 70 PNOs   :   33
   #pairs with 71 - 75 PNOs   :    8

Generation of (ij|ab)[P] integrals            ... on
Generation of (ia|bc)[P],(ja|bc)[P] integrals ... on
Storage of 3 and 4 external integrals         ... on
Generation of ALL (ka|bc)[P] integrals        ... on
Keep RI integrals in memory                   ... off

Ibatch:  1 (of  1)
Starting 2-4 index PNO integral generation ... done

Timings:
Total PNO integral transformation time     ...         49.856 sec
Size of the 3-external file                ...       208 MB
Size of the 4-external file                ...      1550 MB
Size of the IKJL file                      ...         0 MB
Size of the all 3-external file            ...      2188 MB
Size of the 1-external file                ...         4 MB

Making pair/pair overlap matrices          ... done (    4.101 sec)
Size of the pair overlap file              ... 523 MB
Redoing the guess amplitudes               ... done (    0.004 sec)

-------------------------
FINAL STARTUP INFORMATION
-------------------------

E(0)                                       ...   -273.333620460
E(L-MP2)                                   ...     -1.219940265
E(L-MP2) including corrections             ...     -1.219940265
Initial E(tot)                             ...   -274.553560725
<T|T>                                      ...      0.354379443
Number of pairs included                   ... 231
Total number of pairs                      ... 231

------------------------------------------------
                  RHF COUPLED CLUSTER ITERATIONS
------------------------------------------------

Number of PNO amplitudes to be optimized   ...       486356
Number of non-PNO amplitudes               ...     33006204
Untruncated number of regular amplitudes   ...     33006204

Iter       E(tot)           E(Corr)          Delta-E          Residual     Time
  0   -274.521960083     -1.187011598      0.032928667      0.012543230   16.81
                           *** Turning on DIIS ***
  1   -274.584902127     -1.249953642     -0.062942044      0.006376688   34.69
  2   -274.617455273     -1.282506788     -0.032553146      0.001822645   14.63
  3   -274.623127800     -1.288179314     -0.005672527      0.000446420   15.65
  4   -274.624136123     -1.289187637     -0.001008323      0.000093148   15.19
  5   -274.624306131     -1.289357645     -0.000170008      0.000024384   14.76
  6   -274.624334455     -1.289385970     -0.000028324      0.000008186   14.82
               --- The Coupled-Cluster iterations have converged ---

----------------------
COUPLED CLUSTER ENERGY
----------------------

E(0)                                       ...   -273.333620460
E(CORR)(strong-pairs)                      ...     -1.289385970
E(CORR)(weak-pairs)                        ...     -0.001328025
E(CORR)(corrected)                         ...     -1.290713995
E(TOT)                                     ...   -274.624334455
Singles Norm <S|S>**1/2                    ...      0.053517559  
T1 diagnostic                              ...      0.008257939  

------------------
LARGEST AMPLITUDES
------------------
  24-> 33  24-> 33       0.037569
  10-> 38  10-> 38       0.031588
   9-> 38   9-> 38       0.031587
  13-> 38  13-> 38       0.030175
  20-> 28  20-> 28       0.028776
  23-> 28  23-> 28       0.028775
  24-> 28  24-> 28       0.028429
  18-> 28  18-> 28       0.028369
  15-> 28  15-> 28       0.028369
  17-> 28  17-> 28       0.028341
  25-> 34  25-> 34       0.027944
  24-> 28  24-> 33       0.027781
  24-> 33  24-> 28       0.027781
  22-> 28  22-> 28       0.027426
  21-> 28  21-> 28       0.027426
  25-> 28  25-> 28       0.027298


-------------------------------------------
DLPNO BASED TRIPLES CORRECTION
-------------------------------------------

Singles multiplier          ...  1.000000
TCutTNO                     ... 1.000e-09
TCutMP2Pairs                ... 1.000e-06
TCutDOStrong                ... 1.000e-02
TCutMKNStrong               ... 1.000e-02
TCutDOWeak                  ... 2.000e-02
TCutMKNWeak                 ... 1.000e-01

Fragment selection                          .... not used
Number of Triples that are to be computed   ...      1750

 . . . . . . . . .
10% done  
20% done  
30% done  
40% done  
50% done  
60% done  
70% done  
80% done  
90% done               (    423.200 sec)
Triples timings:
Total time for T0               ...   443.313 sec
Total time for Iterative (T)    ...     0.000 sec
Total time of overall (T)       ...   443.314 sec

Triples List generation         ...     0.000 sec
TNO generation                  ...    20.102 sec
Pair density generation         ...     0.005 sec
Look up tables                  ...     0.000 sec
Generating 3-index integrals    ...   353.708 sec
  Make 4-ind.int. from 3-ind.int...    21.140 sec
  Projecting amplitudes (D + S) ...    20.741 sec
  Downprojecting integrals      ...     0.004 sec
  Energy contr. (sum over a,b,c)...     6.649 sec
Fitting ET(->0)                 ...     0.000 sec

Everything after 3-index        ...    69.493 sec

Timing details:
 TNO integrals                  ...   371.767 sec
   Reading 3-index integrals    ...     0.872 sec
   Sorting integrals            ...    39.922 sec
       Sorting integrals 1      ...     0.002 sec
       Sorting integrals 2      ...    31.196 sec
       Sorting integrals 3      ...     0.889 sec
       Sorting integrals 4      ...     0.051 sec
       Sorting integrals 5      ...     0.218 sec
       Sorting integrals 6      ...     7.567 sec
   Calculating local VM**-1/2   ...     0.584 sec
   Orthogonal. integrals        ...     0.982 sec
   Multipl. 3-index integrals   ...   329.406 sec
   All concerning IRIab (w/TNO) ...    11.427 sec

 Calculate W0/W1                ...    20.949 sec
 W 3-ext contribution           ...    11.601 sec
 W 3-int contribution           ...     3.082 sec
 Sorting W                      ...     5.976 sec

 V exchange contribution        ...     2.422 sec

 Timings for Triples without generation
     of 3-index integrals       ...    69.489 sec
       0 weak pairs             ...    69.489 sec
       1 weak pair              ...     0.000 sec
       2 weak pairs             ...     0.000 sec
       3 weak pairs             ...     0.000 sec
  Extra time for extrapolation  ...     0.000 sec

Number of Triples   (0, 1, 2, 3 weak pairs; overall):   1750       0       0       0  (  1750)
Number of Atoms     (0, 1, 2, 3 weak pairs; overall):   20.1     0.0     0.0     0.0  (    21)
Number of PAOs      (0, 1, 2, 3 weak pairs; overall):  392.5     0.0     0.0     0.0  (   406)
Number of AuxFcns   (0, 1, 2, 3 weak pairs; overall):  425.1     0.0     0.0     0.0  (   987)
Number of TNOs      (0, 1, 2, 3 weak pairs         ):  103.6     0.0     0.0     0.0
Aver. Number of NTNO, Atoms, PAOs, AuxFcns / Triples:   1750   103.6    20.1   392.5   425.1

Triples Correction (T)                     ...     -0.051328912
Final correlation energy                   ...     -1.342042907
E(CCSD)                                    ...   -274.624334455
E(CCSD(T))                                 ...   -274.675663367


Maximum memory used throughout the entire calculation: 7810.0 MB


------------------------------------------------------------------------------- 
                                     TIMINGS                                   
------------------------------------------------------------------------------- 


Total execution time                   ...      751.277 sec

Localization of occupied MO's          ...        0.649 sec (  0.1%)
Fock Matrix Formation                  ...        3.212 sec (  0.4%)
Global overlap, Fock, MKN matrices     ...        0.312 sec (  0.0%)
Differential overlap integrals         ...        0.151 sec (  0.0%)
Organizing maps                        ...        0.065 sec (  0.0%)
RI 3-index integral generations        ...        6.206 sec (  0.8%)
RI-PNO integral transformation         ...      145.287 sec ( 19.3%)
Initial Guess                          ...       24.535 sec (  3.3%)
DIIS Solver                            ...        1.838 sec (  0.2%)
State Vector Update                    ...        0.028 sec (  0.0%)
Sigma-vector construction              ...      126.101 sec ( 16.8%)
  <D|H|D>(0-ext)                       ...        2.285 sec (  1.8% of sigma)
  <D|H|D>(2-ext Fock)                  ...        0.010 sec (  0.0% of sigma)
  <D|H|D>(2-ext)                       ...       15.327 sec ( 12.2% of sigma)
  <D|H|D>(4-ext)                       ...       10.945 sec (  8.7% of sigma)
  <D|H|D>(4-ext-corr)                  ...       54.967 sec ( 43.6% of sigma)
  CCSD doubles correction              ...        0.152 sec (  0.1% of sigma)
  <S|H|S>                              ...        0.716 sec (  0.6% of sigma)
  <S|H|D>(1-ext)                       ...        0.276 sec (  0.2% of sigma)
  <D|H|S>(1-ext)                       ...        0.009 sec (  0.0% of sigma)
  <S|H|D>(3-ext)                       ...        0.412 sec (  0.3% of sigma)
  Fock-dressing                        ...       33.440 sec ( 26.5% of sigma)
  Singles amplitudes                   ...        0.416 sec (  0.3% of sigma)
  (ik|jl)-dressing                     ...        1.749 sec (  1.4% of sigma)
  (ij|ab),(ia|jb)-dressing             ...        1.922 sec (  1.5% of sigma)
  Pair energies                        ...        0.006 sec (  0.0% of sigma)
Total Time for computing (T)           ...      443.388 sec ( 59.0% of ALL)


-------------------------   --------------------
FINAL SINGLE POINT ENERGY      -274.675663366918
-------------------------   --------------------


                            ***************************************
                            *     ORCA property calculations      *
                            ***************************************

                                    ---------------------
                                    Active property flags
                                    ---------------------
   (+) Dipole Moment


------------------------------------------------------------------------------
                       ORCA ELECTRIC PROPERTIES CALCULATION
------------------------------------------------------------------------------

Dipole Moment Calculation                       ... on
Quadrupole Moment Calculation                   ... off
Polarizability Calculation                      ... off
GBWName                                         ... methylcyclohexane_eq.gbw
Electron density file                           ... methylcyclohexane_eq.scfp.tmp
The origin for moment calculation is the CENTER OF MASS  = ( 0.021873, -0.000002 -0.005904)

-------------
DIPOLE MOMENT
-------------
                                X             Y             Z
Electronic contribution:      1.25596      -0.00003      -0.36004
Nuclear contribution   :     -1.22495       0.00002       0.33057
                        -----------------------------------------
Total Dipole Moment    :      0.03101      -0.00001      -0.02947
                        -----------------------------------------
Magnitude (a.u.)       :      0.04278
Magnitude (Debye)      :      0.10874



--------------------
Rotational spectrum 
--------------------
 
Rotational constants in cm-1:     0.139315     0.072141     0.052393 
Rotational constants in MHz :  4176.573434  2162.727271  1570.707536 

 Dipole components along the rotational axes: 
x,y,z [a.u.] :     0.030931     0.000011    -0.029556 
x,y,z [Debye]:     0.078621     0.000029    -0.075126 

 

Timings for individual modules:

Sum of individual times         ...      788.657 sec (=  13.144 min)
GTO integral calculation        ...        0.983 sec (=   0.016 min)   0.1 %
SCF iterations                  ...       35.987 sec (=   0.600 min)   4.6 %
MDCI module                     ...      751.687 sec (=  12.528 min)  95.3 %
                             ****ORCA TERMINATED NORMALLY****
TOTAL RUN TIME: 0 days 0 hours 13 minutes 9 seconds 242 msec
methylcyclohexane_eq.gbw -> /home1/pantazis/klk/xyz/Cyclohexanes/methylcyclohexane_eq.gbw
methylcyclohexane_eq.job -> /home1/pantazis/klk/xyz/Cyclohexanes/methylcyclohexane_eq.job
methylcyclohexane_eq.loc -> /home1/pantazis/klk/xyz/Cyclohexanes/methylcyclohexane_eq.loc
methylcyclohexane_eq.nodes -> /home1/pantazis/klk/xyz/Cyclohexanes/methylcyclohexane_eq.nodes
methylcyclohexane_eq.prop -> /home1/pantazis/klk/xyz/Cyclohexanes/methylcyclohexane_eq.prop
methylcyclohexane_eq_property.txt -> /home1/pantazis/klk/xyz/Cyclohexanes/methylcyclohexane_eq_property.txt
methylcyclohexane_eq.xyz -> /home1/pantazis/klk/xyz/Cyclohexanes/methylcyclohexane_eq.xyz
cp: cannot stat methylcyclohexane_eq.asa.inp: No such file or directory
