! Job execution by suborca V 6.07 on ZEUS !
Job started from zeus1, running /scratch/pantazis/methylformate_CO_Lp_ecl__X1j22I/orca/orca copied from /opt/orca on zeussn124 in /scratch/pantazis/methylformate_CO_Lp_ecl__X1j22I
Job execution start: Fri Jun 28 02:02:13 CEST 2019
Shared library path: /scratch/pantazis/methylformate_CO_Lp_ecl__X1j22I/orca:/opt/openmpi_1.10.2/lib:/opt/intel/mkl/lib/intel64:/opt/intel/lib/intel64:
PBS Job ID is: 158323.icqc
izeussn124
izeussn124
izeussn124
izeussn124
izeussn124
izeussn124
izeussn124
izeussn124

                                 *****************
                                 * O   R   C   A *
                                 *****************

           --- An Ab Initio, DFT and Semiempirical electronic structure package ---

                  #######################################################
                  #                        -***-                        #
                  #          Department of theory and spectroscopy      #
                  #               Directorship: Frank Neese             #
                  #        Max Planck Institute fuer Kohlenforschung    #
                  #                Kaiser Wilhelm Platz 1               #
                  #                 D-45470 Muelheim/Ruhr               #
                  #                      Germany                        #
                  #                                                     #
                  #                  All rights reserved                #
                  #                        -***-                        #
                  #######################################################


                         Program Version 4.1.x  -  STABLE  -
                                (SVN: $Rev: 14094$)
                ($Date: 2019-06-14 15:01:15 +0200 (Fri, 14 Jun 2019) $)

                         (BUILD: $Sun Jun 23 06:18:31 CEST 2019$)


 With contributions from (in alphabetic order):
   Daniel Aravena         : Magnetic Properties
   Michael Atanasov       : Ab Initio Ligand Field Theory
   Alexander A. Auer      : GIAO ZORA
   Ute Becker             : Parallelization
   Giovanni Bistoni       : ED, Open-shell LED
   Martin Brehm           : Molecular dynamics
   Dmytro Bykov           : SCF Hessian
   Vijay G. Chilkuri      : MRCI spin determinant printing
   Dipayan Datta          : RHF DLPNO-CCSD density
   Achintya Kumar Dutta   : EOM-CC, STEOM-CC
   Dmitry Ganyushin       : Spin-Orbit,Spin-Spin,Magnetic field MRCI
   Miquel Garcia          : C-PCM Hessian
   Yang Guo               : DLPNO-NEVPT2, CIM, IAO-localization
   Andreas Hansen         : Spin unrestricted coupled pair/coupled cluster methods
   Benjamin Helmich-Paris : CASSCF linear response (MC-RPA)
   Lee Huntington         : MR-EOM, pCC
   Robert Izsak           : Overlap fitted RIJCOSX, COSX-SCS-MP3, EOM
   Christian Kollmar      : KDIIS, OOCD, Brueckner-CCSD(T), CCSD density
   Simone Kossmann        : Meta GGA functionals, TD-DFT gradient, OOMP2, MP2 Hessian
   Martin Krupicka        : AUTO-CI
   Lucas Lang             : DCDCAS
   Dagmar Lenk            : GEPOL surface, SMD
   Dimitrios Liakos       : Extrapolation schemes; parallel MDCI
   Dimitrios Manganas     : ROCIS; embedding schemes
   Dimitrios Pantazis     : SARC Basis sets
   Taras Petrenko         : DFT Hessian,TD-DFT gradient, ASA, ECA, R-Raman, ABS, FL, XAS/XES, NRVS
   Peter Pinski           : DLPNO-MP2, DLPNO-MP2 Gradient
   Christoph Reimann      : Effective Core Potentials
   Marius Retegan         : Local ZFS, SOC
   Christoph Riplinger    : Optimizer, TS searches, QM/MM, DLPNO-CCSD(T), (RO)-DLPNO pert. Triples
   Tobias Risthaus        : Range-separated hybrids, TD-DFT gradient, RPA, STAB
   Michael Roemelt        : Restricted open shell CIS
   Masaaki Saitow         : Open-shell DLPNO
   Barbara Sandhoefer     : DKH picture change effects
   Avijit Sen             : IP-ROCIS
   Kantharuban Sivalingam : CASSCF convergence, NEVPT2, FIC-MRCI
   Bernardo de Souza      : ESD, SOC TD-DFT
   Georgi Stoychev        : AutoAux, RI-MP2 NMR
   Willem Van den Heuvel  : Paramagnetic NMR
   Boris Wezisla          : Elementary symmetry handling
   Frank Wennmohs         : Technical directorship


 We gratefully acknowledge several colleagues who have allowed us to
 interface, adapt or use parts of their codes:
   Stefan Grimme, W. Hujo, H. Kruse,             : VdW corrections, initial TS optimization,
                  C. Bannwarth                     DFT functionals, gCP, sTDA/sTD-DF
   Ed Valeev                                     : LibInt (2-el integral package), F12 methods
   Garnet Chan, S. Sharma, J. Yang, R. Olivares  : DMRG
   Ulf Ekstrom                                   : XCFun DFT Library
   Mihaly Kallay                                 : mrcc  (arbitrary order and MRCC methods)
   Andreas Klamt, Michael Diedenhofen            : otool_cosmo (COSMO solvation model)
   Jiri Pittner, Ondrej Demel                    : Mk-CCSD
   Frank Weinhold                                : gennbo (NPA and NBO analysis)
   Christopher J. Cramer and Donald G. Truhlar   : smd solvation model
   Lars Goerigk                                  : TD-DFT with DH, B97 family of functionals
   V. Asgeirsson, H. Jonsson                     : NEB implementation
   FAccTs GmbH                                   : IRC, NEB, NEB-TS, Multilevel


 Your calculation uses the libint2 library for the computation of 2-el integrals
 For citations please refer to: http://libint.valeyev.net

 This ORCA versions uses:
   CBLAS   interface :  Fast vector & matrix operations
   LAPACKE interface :  Fast linear algebra routines
   SCALAPACK package :  Parallel linear algebra routines




***************************************
The coordinates will be read from file: methylformate_CO_Lp_ecl.xyz
***************************************


----- Orbital basis set information -----
Your calculation utilizes the basis: cc-pVTZ 
       H, B-Ne : Obtained from the ccRepo (grant-hill.group.shef.ac.uk/ccrepo) Feb. 2017
                 T. H. Dunning, Jr., J. Chem. Phys. 90, 1007 (1989)
            He : Obtained from the ccRepo (grant-hill.group.shef.ac.uk/ccrepo) Feb. 2017
                 D. E. Woon, T. H. Dunning, Jr., J. Chem. Phys. 100, 2975 (1994)
  Li-Be, Na-Mg : Obtained from the ccRepo (grant-hill.group.shef.ac.uk/ccrepo) Feb. 2017
                 B. P. Prascher, D. E. Woon, K. A. Peterson, T. H. Dunning, Jr., A. K. Wilson, Theor. Chem. Acc. 128, 69 (2011)
         Al-Ar : Obtained from the ccRepo (grant-hill.group.shef.ac.uk/ccrepo) Feb. 2017
                 D. E. Woon, T. H. Dunning, Jr., J. Chem. Phys. 98, 1358 (1993)
            Ca : Obtained from the Peterson Research Group Website (tyr0.chem.wsu.edu/~kipeters) Feb. 2017
                 J. Koput, K. A. Peterson, J. Phys. Chem. 106, 9595 (2002)
         Sc-Zn : Obtained from the ccRepo (grant-hill.group.shef.ac.uk/ccrepo) Feb. 2017
                 N. B. Balabanov, K. A. Peterson, J. Chem. Phys. 123, 064107 (2005)
                 N. B. Balabanov, K. A. Peterson, J. Chem. Phys. 125, 074110 (2006)
         Ga-Kr : Obtained from the ccRepo (grant-hill.group.shef.ac.uk/ccrepo) Feb. 2017
                 A. K. Wilson, D. E. Woon, K. A. Peterson, T. H. Dunning, Jr., J. Chem. Phys. 110, 7667 (1999)
             Y : Obtained from the ccRepo (grant-hill.group.shef.ac.uk/ccrepo) Feb. 2017
                 K. A. Peterson, D. Figgen, M. Dolg, H. Stoll, J. Chem. Phys. 126, 124101 (2007)
        Ag, Au : Obtained from the Peterson Research Group Website (tyr0.chem.wsu.edu/~kipeters) Feb. 2017
                 K. A. Peterson, C. Puzzarini, Theor. Chem. Acc. 114, 283 (2005)

----- AuxC basis set information -----
Your calculation utilizes the auxiliary basis: cc-pVTZ/C 
  Obtained from the EMSL Basis Set Exchange (bse.pnl.gov) Feb. 2017
  H-He, B-F, Al-Ar, Ga-Kr : F. Weigend, A. Kohn, C. Hattig, J. Chem. Phys. 116, 3175 (2002)
             Li-Be, Na-Mg : C. Haettig, Phys. Chem. Chem. Phys. 7, 59 (2005)
                       Ne : C. Haettig, Phys. Chem. Chem. Phys. 7, 59 (2005)
                            F. Weigend, A. Kohn, C. Hattig, J. Chem. Phys. 116, 3175 (2002)
                    Sc-Zn : J. G. Hill, J. A. Platts, J. Chem. Phys. 128, 044104 (2008)

----- AuxJK basis set information -----
Your calculation utilizes the auxiliary basis: cc-pVTZ/JK 
  H, B-F, Al-Cl, Ga-Br : Obtained from the TURBOMOLE 7.0 basis set library

================================================================================
                                        WARNINGS
                       Please study these warnings very carefully!
================================================================================


WARNING: MDCI localization with Augmented Hessian Foster-Boys
  ===> : Switching off randomization!

WARNING: Post HF methods need fully converged wavefunctions
  ===> : Setting SCFConvForced true
         You can overwrite this default with %scf ConvForced false 


INFO   : the flag for use of LIBINT has been found!

================================================================================
                                       INPUT FILE
================================================================================
NAME = methylformate_CO_Lp_ecl.inp
|  1> ! RHF DLPNO-CCSD(T) cc-pVTZ RIJK cc-pVTZ/JK cc-pVTZ/C
|  2> ! KDIIS SOSCF TightSCF TightPNO
|  3> 
|  4> %pal nprocs 8 end
|  5> 
|  6> %maxcore 8000
|  7> 
|  8> %scf maxiter 300
|  9>      shift shift 0.2 erroff 0.1 end
| 10> end
| 11> 
| 12> * xyzfile 0 1 methylformate_CO_Lp_ecl.xyz 
| 13> 
| 14> 
| 15>                          ****END OF INPUT****
================================================================================

                       ****************************
                       * Single Point Calculation *
                       ****************************

---------------------------------
CARTESIAN COORDINATES (ANGSTROEM)
---------------------------------
  C      0.706340    0.281560   -0.217870
  O      1.741500   -0.104580    0.275510
  O     -0.432050   -0.451980   -0.344630
  C     -1.593820    0.116180    0.226740
  H      0.561730    1.310290   -0.628320
  H     -1.386570    0.418770    1.280570
  H     -1.929440    0.995110   -0.374400
  H     -2.396410   -0.658130    0.221870

----------------------------
CARTESIAN COORDINATES (A.U.)
----------------------------
  NO LB      ZA    FRAG     MASS         X           Y           Z
   0 C     6.0000    0    12.011    1.334789    0.532071   -0.411715
   1 O     8.0000    0    15.999    3.290958   -0.197628    0.520638
   2 O     8.0000    0    15.999   -0.816456   -0.854118   -0.651256
   3 C     6.0000    0    12.011   -3.011883    0.219548    0.428477
   4 H     1.0000    0     1.008    1.061516    2.476089   -1.187353
   5 H     1.0000    0     1.008   -2.620238    0.791361    2.419927
   6 H     1.0000    0     1.008   -3.646113    1.880485   -0.707513
   7 H     1.0000    0     1.008   -4.528559   -1.243685    0.419274

--------------------------------
INTERNAL COORDINATES (ANGSTROEM)
--------------------------------
 C      0   0   0     0.000000000000     0.00000000     0.00000000
 O      1   0   0     1.209993450230     0.00000000     0.00000000
 O      1   2   0     1.360176761050   125.58487163     0.00000000
 C      3   1   2     1.413852536653   115.67974081   124.41793222
 H      1   2   3     1.116990003312   123.67634965   179.53344443
 H      4   3   1     1.115827468518   109.75644037   309.21012838
 H      4   3   1     1.116480196376   110.22886633    71.19278338
 H      4   3   1     1.115226614236   108.09412879   190.40412244

---------------------------
INTERNAL COORDINATES (A.U.)
---------------------------
 C      0   0   0     0.000000000000     0.00000000     0.00000000
 O      1   0   0     2.286556244774     0.00000000     0.00000000
 O      1   2   0     2.570361572108   125.58487163     0.00000000
 C      3   1   2     2.671794088024   115.67974081   124.41793222
 H      1   2   3     2.110805200588   123.67634965   179.53344443
 H      4   3   1     2.108608328206   109.75644037   309.21012838
 H      4   3   1     2.109841805097   110.22886633    71.19278338
 H      4   3   1     2.107472878166   108.09412879   190.40412244

---------------------
BASIS SET INFORMATION
---------------------
There are 3 groups of distinct atoms

 Group   1 Type C   : 18s5p2d1f contracted to 4s3p2d1f pattern {8811/311/11/1}
 Group   2 Type O   : 18s5p2d1f contracted to 4s3p2d1f pattern {8811/311/11/1}
 Group   3 Type H   : 5s2p1d contracted to 3s2p1d pattern {311/11/1}

Atom   0C    basis set group =>   1
Atom   1O    basis set group =>   2
Atom   2O    basis set group =>   2
Atom   3C    basis set group =>   1
Atom   4H    basis set group =>   3
Atom   5H    basis set group =>   3
Atom   6H    basis set group =>   3
Atom   7H    basis set group =>   3
-------------------------------
AUXILIARY BASIS SET INFORMATION
-------------------------------
There are 3 groups of distinct atoms

 Group   1 Type C   : 8s6p5d3f1g contracted to 8s6p5d3f1g pattern {11111111/111111/11111/111/1}
 Group   2 Type O   : 8s6p5d3f1g contracted to 8s6p5d3f1g pattern {11111111/111111/11111/111/1}
 Group   3 Type H   : 4s3p2d1f contracted to 4s3p2d1f pattern {1111/111/11/1}

Atom   0C    basis set group =>   1
Atom   1O    basis set group =>   2
Atom   2O    basis set group =>   2
Atom   3C    basis set group =>   1
Atom   4H    basis set group =>   3
Atom   5H    basis set group =>   3
Atom   6H    basis set group =>   3
Atom   7H    basis set group =>   3
-------------------------------
AUXILIARY BASIS SET INFORMATION
-------------------------------
There are 3 groups of distinct atoms

 Group   1 Type C   : 10s7p5d2f1g contracted to 10s7p5d2f1g pattern {1111111111/1111111/11111/11/1}
 Group   2 Type O   : 10s7p5d2f1g contracted to 10s7p5d2f1g pattern {1111111111/1111111/11111/11/1}
 Group   3 Type H   : 4s3p2d1f contracted to 4s3p2d1f pattern {1111/111/11/1}

Atom   0C    basis set group =>   1
Atom   1O    basis set group =>   2
Atom   2O    basis set group =>   2
Atom   3C    basis set group =>   1
Atom   4H    basis set group =>   3
Atom   5H    basis set group =>   3
Atom   6H    basis set group =>   3
Atom   7H    basis set group =>   3


           ************************************************************
           *        Program running with 8 parallel MPI-processes     *
           *              working on a common directory               *
           ************************************************************
------------------------------------------------------------------------------
                           ORCA GTO INTEGRAL CALCULATION
                           -- RI-GTO INTEGRALS CHOSEN --
------------------------------------------------------------------------------

                         BASIS SET STATISTICS AND STARTUP INFO

Gaussian basis set:
 # of primitive gaussian shells          ...  136
 # of primitive gaussian functions       ...  264
 # of contracted shells                  ...   64
 # of contracted basis functions         ...  176
 Highest angular momentum                ...    3
 Maximum contraction depth               ...    8
Auxiliary gaussian basis set:
 # of primitive gaussian shells          ...  140
 # of primitive gaussian functions       ...  436
 # of contracted shells                  ...  140
 # of contracted aux-basis functions     ...  436
 Highest angular momentum                ...    4
 Maximum contraction depth               ...    1
Ratio of auxiliary to basis functions    ...  2.48
Integral package used                  ... LIBINT
 One Electron integrals                  ... done
 Ordering auxiliary basis shells         ... done
 Integral threshhold             Thresh  ...  2.500e-11
 Primitive cut-off               TCut    ...  2.500e-12
 Pre-screening matrix                    ... done
 Shell pair data                         ... 
 Ordering of the shell pairs             ... done (   0.000 sec) 2043 of 2080 pairs
 Determination of significant pairs      ... done (   0.000 sec)
 Creation of shell pair data             ... done (   0.001 sec)
 Storage of shell pair data              ... done (   0.001 sec)
 Shell pair data done in (   0.002 sec)
 Computing two index integrals           ... done
 Cholesky decomposition of the V-matrix  ... done


Timings:
 Total evaluation time                   ...   0.265 sec (  0.004 min)
 One electron matrix time                ...   0.021 sec (  0.000 min) =  7.8%
 Schwartz matrix evaluation time         ...   0.169 sec (  0.003 min) = 63.7%
 Two index repulsion integral time       ...   0.026 sec (  0.000 min) =  9.7%
 Cholesky decomposition of V             ...   0.022 sec (  0.000 min) =  8.3%
 Three index repulsion integral time     ...   0.000 sec (  0.000 min) =  0.0%



           ************************************************************
           *        Program running with 8 parallel MPI-processes     *
           *              working on a common directory               *
           ************************************************************
-------------------------------------------------------------------------------
                                 ORCA SCF
-------------------------------------------------------------------------------

------------
SCF SETTINGS
------------
Hamiltonian:
 Ab initio Hamiltonian  Method          .... Hartree-Fock(GTOs)
 RI-approximation to the Coulomb term is turned on
   Number of auxiliary basis functions  .... 436
   RI-JK (J+K treated both via RI)      .... on


General Settings:
 Integral files         IntName         .... methylformate_CO_Lp_ecl
 Hartree-Fock type      HFTyp           .... RHF
 Total Charge           Charge          ....    0
 Multiplicity           Mult            ....    1
 Number of Electrons    NEL             ....   32
 Basis Dimension        Dim             ....  176
 Nuclear Repulsion      ENuc            ....    119.1633390291 Eh

Convergence Acceleration:
 DIIS                   CNVDIIS         .... off
 Newton-Raphson         CNVNR           .... off
 SOSCF                  CNVSOSCF        .... on
   Start iteration      SOSCFMaxIt      ....   150
   Startup grad/error   SOSCFStart      ....  0.003300
 Level Shifting         CNVShift        .... on
   Level shift para.    LevelShift      ....    0.2000
   Turn off err/grad.   ShiftErr        ....    0.1000
 Zerner damping         CNVZerner       .... off
 Static damping         CNVDamp         .... off
 Fernandez-Rico         CNVRico         .... off

SCF Procedure:
 Maximum # iterations   MaxIter         ....   300
 SCF integral mode      SCFMode         .... Direct
   Integral package                     .... LIBINT
 Reset frequency        DirectResetFreq ....    20
 Integral Threshold     Thresh          ....  2.500e-11 Eh
 Primitive CutOff       TCut            ....  2.500e-12 Eh

Convergence Tolerance:
 Convergence Check Mode ConvCheckMode   .... Total+1el-Energy
 Convergence forced     ConvForced      .... 1
 Energy Change          TolE            ....  1.000e-08 Eh
 1-El. energy change                    ....  1.000e-05 Eh
 Orbital Gradient       TolG            ....  1.000e-05
 Orbital Rotation angle TolX            ....  1.000e-05


Diagonalization of the overlap matrix:
Smallest eigenvalue                        ... 1.704e-03
Time for diagonalization                   ...    0.008 sec
Threshold for overlap eigenvalues          ... 1.000e-08
Number of eigenvalues below threshold      ... 0
Time for construction of square roots      ...    0.006 sec
Total time needed                          ...    0.014 sec

-------------------
DFT GRID GENERATION
-------------------

General Integration Accuracy     IntAcc      ...  4.340
Radial Grid Type                 RadialGrid  ... Gauss-Chebyshev
Angular Grid (max. acc.)         AngularGrid ... Lebedev-110
Angular grid pruning method      GridPruning ... 3 (G Style)
Weight generation scheme         WeightScheme... Becke
Basis function cutoff            BFCut       ...    1.0000e-11
Integration weight cutoff        WCut        ...    1.0000e-14
Grids for H and He will be reduced by one unit

# of grid points (after initial pruning)     ...   9920 (   0.0 sec)
# of grid points (after weights+screening)   ...   9543 (   0.0 sec)
nearest neighbour list constructed           ...    0.0 sec
Grid point re-assignment to atoms done       ...    0.0 sec
Grid point division into batches done        ...    0.0 sec
Reduced shell lists constructed in    0.0 sec

Total number of grid points                  ...     9543
Total number of batches                      ...      152
Average number of points per batch           ...       62
Average number of grid points per atom       ...     1193
Average number of shells per batch           ...    48.40 (75.63%)
Average number of basis functions per batch  ...   131.70 (74.83%)
Average number of large shells per batch     ...    42.00 (86.78%)
Average number of large basis fcns per batch ...   113.20 (85.95%)
Average number of aux-shells per batch       ...    48.40 (34.57%)
Average number of aux functions per batch    ...   131.70 (30.21%)
Maximum spatial batch extension              ...  14.18, 25.60, 18.58 au
Average spatial batch extension              ...   0.54,  0.69,  0.70 au

Time for grid setup =    0.048 sec

------------------------------
INITIAL GUESS: MODEL POTENTIAL
------------------------------
Loading Hartree-Fock densities                     ... done
Calculating cut-offs                               ... done
Setting up the integral package                    ... done
Initializing the effective Hamiltonian             ... done
Starting the Coulomb interaction                   ... done (   0.0 sec)
Reading the grid                                   ... done
Mapping shells                                     ... done
Starting the XC term evaluation                    ... done (   0.0 sec)
Transforming the Hamiltonian                       ... done (   0.0 sec)
Diagonalizing the Hamiltonian                      ... done (   0.0 sec)
Back transforming the eigenvectors                 ... done (   0.0 sec)
Now organizing SCF variables                       ... done
                      ------------------
                      INITIAL GUESS DONE (   0.2 sec)
                      ------------------
--------------
SCF ITERATIONS
--------------
ITER       Energy         Delta-E        Max-DP      RMS-DP      [F,P]   Gradient Norm
                             ****Turning on KDIIS(Cayley)****
  0   -227.6852093940   0.000000000000 0.01246955  0.00032274  0.1385335   0.159602618
  1   -227.7334845029  -0.048275108885 0.01773352  0.00037658  0.1269945   0.138036438
  2   -227.7742371805  -0.040752677537 0.02919643  0.00061866  0.1026335   0.111866627
  3   -227.8232610934  -0.049023912880 0.04423142  0.00099554  0.0616545   0.068540301
  4   -227.8547754602  -0.031514366857 0.00250294  0.00008453  0.0043314   0.003125343
                      *** Initiating the SOSCF procedure ***
                           *** Shutting down KDIIS ***
                      *** Re-Reading the Fockian *** 
                      *** Removing any level shift *** 
ITER      Energy       Delta-E        Grad      Rot      Max-DP    RMS-DP
  5   -227.85494931  -0.0001738530  0.001714  0.001714  0.001582  0.000057
  6   -227.85497763  -0.0000283142  0.000298  0.000325  0.000487  0.000017
  7   -227.85498089  -0.0000032618  0.000415  0.000435  0.000225  0.000007
  8   -227.85498282  -0.0000019336  0.000118  0.000245  0.000116  0.000004
  9   -227.85498307  -0.0000002520  0.000054  0.000180  0.000078  0.000003
 10   -227.85498312  -0.0000000493  0.000020  0.000014  0.000022  0.000001
 11   -227.85498313  -0.0000000043  0.000006  0.000005  0.000006  0.000000
                  ***Gradient check signals convergence***
              ***Rediagonalizing the Fockian in SOSCF/NRSCF***

               *****************************************************
               *                     SUCCESS                       *
               *           SCF CONVERGED AFTER  12 CYCLES          *
               *****************************************************


----------------
TOTAL SCF ENERGY
----------------

Total Energy       :         -227.85498313 Eh           -6200.24931 eV

Components:
Nuclear Repulsion  :          119.16333903 Eh            3242.59931 eV
Electronic Energy  :         -347.01832216 Eh           -9442.84861 eV
One Electron Energy:         -547.56068861 Eh          -14899.88383 eV
Two Electron Energy:          200.54236645 Eh            5457.03522 eV

Virial components:
Potential Energy   :         -455.17173543 Eh          -12385.85261 eV
Kinetic Energy     :          227.31675230 Eh            6185.60330 eV
Virial Ratio       :            2.00236776


---------------
SCF CONVERGENCE
---------------

  Last Energy change         ...   -1.1504e-09  Tolerance :   1.0000e-08
  Last MAX-Density change    ...    2.2677e-06  Tolerance :   1.0000e-07
  Last RMS-Density change    ...    7.0281e-08  Tolerance :   5.0000e-09
  Last Orbital Gradient      ...    1.5303e-06  Tolerance :   1.0000e-05
  Last Orbital Rotation      ...    2.5994e-06  Tolerance :   1.0000e-05

             **** THE GBW FILE WAS UPDATED (methylformate_CO_Lp_ecl.gbw) ****
             **** DENSITY FILE WAS UPDATED (methylformate_CO_Lp_ecl.scfp.tmp) ****
             **** ENERGY FILE WAS UPDATED (methylformate_CO_Lp_ecl.en.tmp) ****
----------------
ORBITAL ENERGIES
----------------

  NO   OCC          E(Eh)            E(eV) 
   0   2.0000     -20.603629      -560.6532 
   1   2.0000     -20.567661      -559.6745 
   2   2.0000     -11.393413      -310.0305 
   3   2.0000     -11.314093      -307.8721 
   4   2.0000      -1.458622       -39.6911 
   5   2.0000      -1.375027       -37.4164 
   6   2.0000      -0.977117       -26.5887 
   7   2.0000      -0.840879       -22.8815 
   8   2.0000      -0.727151       -19.7868 
   9   2.0000      -0.684735       -18.6326 
  10   2.0000      -0.670215       -18.2375 
  11   2.0000      -0.615881       -16.7590 
  12   2.0000      -0.556594       -15.1457 
  13   2.0000      -0.519328       -14.1316 
  14   2.0000      -0.472218       -12.8497 
  15   2.0000      -0.461435       -12.5563 
  16   0.0000       0.124227         3.3804 
  17   0.0000       0.145975         3.9722 
  18   0.0000       0.183020         4.9802 
  19   0.0000       0.199026         5.4158 
  20   0.0000       0.208657         5.6779 
  21   0.0000       0.237188         6.4542 
  22   0.0000       0.320962         8.7338 
  23   0.0000       0.371182        10.1004 
  24   0.0000       0.373373        10.1600 
  25   0.0000       0.396124        10.7791 
  26   0.0000       0.472860        12.8672 
  27   0.0000       0.515177        14.0187 
  28   0.0000       0.543160        14.7801 
  29   0.0000       0.551354        15.0031 
  30   0.0000       0.590721        16.0743 
  31   0.0000       0.595455        16.2031 
  32   0.0000       0.603880        16.4324 
  33   0.0000       0.616478        16.7752 
  34   0.0000       0.660976        17.9861 
  35   0.0000       0.687543        18.7090 
  36   0.0000       0.731884        19.9156 
  37   0.0000       0.756769        20.5927 
  38   0.0000       0.793715        21.5981 
  39   0.0000       0.809263        22.0212 
  40   0.0000       0.864677        23.5291 
  41   0.0000       0.905998        24.6535 
  42   0.0000       0.931622        25.3507 
  43   0.0000       0.959272        26.1031 
  44   0.0000       1.012410        27.5491 
  45   0.0000       1.038634        28.2627 
  46   0.0000       1.073009        29.1981 
  47   0.0000       1.128804        30.7163 
  48   0.0000       1.143939        31.1282 
  49   0.0000       1.154065        31.4037 
  50   0.0000       1.192352        32.4456 
  51   0.0000       1.220922        33.2230 
  52   0.0000       1.252520        34.0828 
  53   0.0000       1.278948        34.8020 
  54   0.0000       1.345149        36.6034 
  55   0.0000       1.359195        36.9856 
  56   0.0000       1.385144        37.6917 
  57   0.0000       1.415306        38.5124 
  58   0.0000       1.474441        40.1216 
  59   0.0000       1.490830        40.5675 
  60   0.0000       1.496086        40.7106 
  61   0.0000       1.545104        42.0444 
  62   0.0000       1.567811        42.6623 
  63   0.0000       1.701808        46.3086 
  64   0.0000       1.761972        47.9457 
  65   0.0000       1.814941        49.3870 
  66   0.0000       1.909261        51.9536 
  67   0.0000       1.961112        53.3646 
  68   0.0000       2.103436        57.2374 
  69   0.0000       2.154946        58.6391 
  70   0.0000       2.219137        60.3858 
  71   0.0000       2.281331        62.0782 
  72   0.0000       2.292598        62.3848 
  73   0.0000       2.375015        64.6275 
  74   0.0000       2.405606        65.4599 
  75   0.0000       2.443887        66.5015 
  76   0.0000       2.472031        67.2674 
  77   0.0000       2.513800        68.4040 
  78   0.0000       2.560717        69.6806 
  79   0.0000       2.662569        72.4522 
  80   0.0000       2.739034        74.5329 
  81   0.0000       2.794240        76.0351 
  82   0.0000       2.879246        78.3483 
  83   0.0000       2.889375        78.6239 
  84   0.0000       3.008080        81.8540 
  85   0.0000       3.047365        82.9230 
  86   0.0000       3.054814        83.1257 
  87   0.0000       3.066957        83.4561 
  88   0.0000       3.112435        84.6937 
  89   0.0000       3.143432        85.5371 
  90   0.0000       3.184605        86.6575 
  91   0.0000       3.217257        87.5460 
  92   0.0000       3.254257        88.5528 
  93   0.0000       3.290355        89.5351 
  94   0.0000       3.296826        89.7112 
  95   0.0000       3.341838        90.9360 
  96   0.0000       3.396303        92.4181 
  97   0.0000       3.415939        92.9524 
  98   0.0000       3.446157        93.7747 
  99   0.0000       3.473304        94.5134 
 100   0.0000       3.518803        95.7515 
 101   0.0000       3.571908        97.1966 
 102   0.0000       3.600647        97.9786 
 103   0.0000       3.643536        99.1457 
 104   0.0000       3.649304        99.3026 
 105   0.0000       3.656647        99.5024 
 106   0.0000       3.694655       100.5367 
 107   0.0000       3.712616       101.0254 
 108   0.0000       3.756883       102.2300 
 109   0.0000       3.790203       103.1367 
 110   0.0000       3.809674       103.6665 
 111   0.0000       3.856149       104.9311 
 112   0.0000       3.929124       106.9169 
 113   0.0000       3.996110       108.7397 
 114   0.0000       4.048156       110.1559 
 115   0.0000       4.084514       111.1453 
 116   0.0000       4.107959       111.7832 
 117   0.0000       4.135898       112.5435 
 118   0.0000       4.150626       112.9443 
 119   0.0000       4.232697       115.1775 
 120   0.0000       4.279743       116.4577 
 121   0.0000       4.308155       117.2309 
 122   0.0000       4.324867       117.6856 
 123   0.0000       4.382301       119.2485 
 124   0.0000       4.402468       119.7973 
 125   0.0000       4.480592       121.9231 
 126   0.0000       4.588309       124.8542 
 127   0.0000       4.625607       125.8692 
 128   0.0000       4.650249       126.5397 
 129   0.0000       4.771680       129.8440 
 130   0.0000       4.800449       130.6269 
 131   0.0000       4.935979       134.3148 
 132   0.0000       4.944356       134.5428 
 133   0.0000       4.993890       135.8907 
 134   0.0000       5.056745       137.6010 
 135   0.0000       5.095310       138.6504 
 136   0.0000       5.135986       139.7573 
 137   0.0000       5.213276       141.8604 
 138   0.0000       5.245465       142.7364 
 139   0.0000       5.307351       144.4204 
 140   0.0000       5.396853       146.8558 
 141   0.0000       5.429110       147.7336 
 142   0.0000       5.466267       148.7447 
 143   0.0000       5.520366       150.2168 
 144   0.0000       5.610866       152.6794 
 145   0.0000       5.630195       153.2054 
 146   0.0000       5.642971       153.5530 
 147   0.0000       5.755340       156.6108 
 148   0.0000       5.854724       159.3151 
 149   0.0000       5.961817       162.2293 
 150   0.0000       6.064289       165.0177 
 151   0.0000       6.125790       166.6912 
 152   0.0000       6.157992       167.5675 
 153   0.0000       6.159908       167.6196 
 154   0.0000       6.289207       171.1380 
 155   0.0000       6.408300       174.3787 
 156   0.0000       6.575243       178.9215 
 157   0.0000       6.649696       180.9474 
 158   0.0000       6.681466       181.8119 
 159   0.0000       6.714688       182.7160 
 160   0.0000       6.827756       185.7927 
 161   0.0000       6.875647       187.0959 
 162   0.0000       6.904679       187.8859 
 163   0.0000       7.224421       196.5865 
 164   0.0000       7.242690       197.0836 
 165   0.0000       7.321054       199.2160 
 166   0.0000       7.332335       199.5230 
 167   0.0000       7.521244       204.6635 
 168   0.0000       7.544481       205.2958 
 169   0.0000       7.694192       209.3696 
 170   0.0000       7.765127       211.2999 
 171   0.0000       7.830266       213.0724 
 172   0.0000      10.296369       280.1784 
 173   0.0000      11.435019       311.1627 
 174   0.0000      13.445852       365.8802 
 175   0.0000      13.474512       366.6601 

                    ********************************
                    * MULLIKEN POPULATION ANALYSIS *
                    ********************************

-----------------------
MULLIKEN ATOMIC CHARGES
-----------------------
   0 C :    0.358515
   1 O :   -0.343452
   2 O :   -0.289026
   3 C :   -0.045578
   4 H :    0.056427
   5 H :    0.075660
   6 H :    0.074108
   7 H :    0.113347
Sum of atomic charges:    0.0000000

--------------------------------
MULLIKEN REDUCED ORBITAL CHARGES
--------------------------------
  0 C s       :     3.141434  s :     3.141434
      pz      :     0.681378  p :     2.240712
      px      :     0.721059
      py      :     0.838276
      dz2     :     0.026279  d :     0.234800
      dxz     :     0.061048
      dyz     :     0.018884
      dx2y2   :     0.064215
      dxy     :     0.064374
      f0      :     0.001718  f :     0.024538
      f+1     :     0.003777
      f-1     :     0.000949
      f+2     :     0.002743
      f-2     :     0.003958
      f+3     :     0.006881
      f-3     :     0.004512
  1 O s       :     3.756073  s :     3.756073
      pz      :     1.372610  p :     4.548339
      px      :     1.451881
      py      :     1.723849
      dz2     :     0.006257  d :     0.036588
      dxz     :     0.011479
      dyz     :     0.002171
      dx2y2   :     0.008332
      dxy     :     0.008349
      f0      :     0.000172  f :     0.002452
      f+1     :     0.000482
      f-1     :     0.000045
      f+2     :     0.000456
      f-2     :     0.000322
      f+3     :     0.000438
      f-3     :     0.000538
  2 O s       :     3.694969  s :     3.694969
      pz      :     1.730045  p :     4.556931
      px      :     1.198335
      py      :     1.628551
      dz2     :     0.004378  d :     0.034869
      dxz     :     0.006078
      dyz     :     0.004707
      dx2y2   :     0.003741
      dxy     :     0.015966
      f0      :     0.000309  f :     0.002256
      f+1     :     0.000373
      f-1     :     0.000147
      f+2     :     0.000193
      f-2     :     0.000319
      f+3     :     0.000338
      f-3     :     0.000578
  3 C s       :     3.219642  s :     3.219642
      pz      :     0.930349  p :     2.699081
      px      :     0.795110
      py      :     0.973621
      dz2     :     0.025020  d :     0.116610
      dxz     :     0.024186
      dyz     :     0.015146
      dx2y2   :     0.021416
      dxy     :     0.030843
      f0      :     0.001130  f :     0.010245
      f+1     :     0.002039
      f-1     :     0.000944
      f+2     :     0.001210
      f-2     :     0.001471
      f+3     :     0.001741
      f-3     :     0.001710
  4 H s       :     0.923528  s :     0.923528
      pz      :     0.004448  p :     0.017764
      px      :     0.002530
      py      :     0.010785
      dz2     :     0.000195  d :     0.002282
      dxz     :     0.000110
      dyz     :     0.000496
      dx2y2   :     0.000896
      dxy     :     0.000584
  5 H s       :     0.897515  s :     0.897515
      pz      :     0.012590  p :     0.024835
      px      :     0.003961
      py      :     0.008284
      dz2     :     0.000840  d :     0.001990
      dxz     :     0.000379
      dyz     :     0.000650
      dx2y2   :     0.000028
      dxy     :     0.000092
  6 H s       :     0.899364  s :     0.899364
      pz      :     0.007808  p :     0.024550
      px      :     0.005126
      py      :     0.011616
      dz2     :     0.000389  d :     0.001978
      dxz     :     0.000212
      dyz     :     0.000543
      dx2y2   :     0.000403
      dxy     :     0.000431
  7 H s       :     0.859042  s :     0.859042
      pz      :     0.008213  p :     0.025650
      px      :     0.008370
      py      :     0.009067
      dz2     :     0.000241  d :     0.001960
      dxz     :     0.000248
      dyz     :     0.000315
      dx2y2   :     0.000403
      dxy     :     0.000753


                     *******************************
                     * LOEWDIN POPULATION ANALYSIS *
                     *******************************

----------------------
LOEWDIN ATOMIC CHARGES
----------------------
   0 C :   -0.310345
   1 O :    0.136759
   2 O :    0.291083
   3 C :    0.012055
   4 H :   -0.053890
   5 H :   -0.029022
   6 H :   -0.033442
   7 H :   -0.013197

-------------------------------
LOEWDIN REDUCED ORBITAL CHARGES
-------------------------------
  0 C s       :     2.784931  s :     2.784931
      pz      :     0.712280  p :     2.519767
      px      :     0.897208
      py      :     0.910279
      dz2     :     0.083164  d :     0.862754
      dxz     :     0.184216
      dyz     :     0.081257
      dx2y2   :     0.265923
      dxy     :     0.248194
      f0      :     0.011067  f :     0.142893
      f+1     :     0.017617
      f-1     :     0.005127
      f+2     :     0.014647
      f-2     :     0.026179
      f+3     :     0.044508
      f-3     :     0.023748
  1 O s       :     3.394351  s :     3.394351
      pz      :     1.313915  p :     4.399776
      px      :     1.493857
      py      :     1.592004
      dz2     :     0.007486  d :     0.064175
      dxz     :     0.017835
      dyz     :     0.004725
      dx2y2   :     0.017660
      dxy     :     0.016468
      f0      :     0.000390  f :     0.004940
      f+1     :     0.000685
      f-1     :     0.000070
      f+2     :     0.000928
      f-2     :     0.000734
      f+3     :     0.001122
      f-3     :     0.001010
  2 O s       :     3.228210  s :     3.228210
      pz      :     1.586307  p :     4.377197
      px      :     1.227531
      py      :     1.563358
      dz2     :     0.013351  d :     0.097686
      dxz     :     0.017763
      dyz     :     0.006805
      dx2y2   :     0.022564
      dxy     :     0.037202
      f0      :     0.000437  f :     0.005825
      f+1     :     0.000909
      f-1     :     0.000394
      f+2     :     0.000515
      f-2     :     0.000899
      f+3     :     0.001600
      f-3     :     0.001070
  3 C s       :     2.699424  s :     2.699424
      pz      :     0.964968  p :     2.767852
      px      :     0.824372
      py      :     0.978512
      dz2     :     0.103339  d :     0.454687
      dxz     :     0.081099
      dyz     :     0.069034
      dx2y2   :     0.067789
      dxy     :     0.133425
      f0      :     0.005860  f :     0.065982
      f+1     :     0.013369
      f-1     :     0.003933
      f+2     :     0.010844
      f-2     :     0.009755
      f+3     :     0.011318
      f-3     :     0.010904
  4 H s       :     0.899642  s :     0.899642
      pz      :     0.029358  p :     0.131032
      px      :     0.021021
      py      :     0.080652
      dz2     :     0.002786  d :     0.023215
      dxz     :     0.001073
      dyz     :     0.006239
      dx2y2   :     0.007161
      dxy     :     0.005956
  5 H s       :     0.866298  s :     0.866298
      pz      :     0.073150  p :     0.137890
      px      :     0.026651
      py      :     0.038089
      dz2     :     0.009323  d :     0.024834
      dxz     :     0.005831
      dyz     :     0.007963
      dx2y2   :     0.000486
      dxy     :     0.001231
  6 H s       :     0.870325  s :     0.870325
      pz      :     0.044455  p :     0.138420
      px      :     0.032054
      py      :     0.061911
      dz2     :     0.004948  d :     0.024698
      dxz     :     0.002915
      dyz     :     0.005992
      dx2y2   :     0.005427
      dxy     :     0.005416
  7 H s       :     0.853257  s :     0.853257
      pz      :     0.033929  p :     0.135273
      px      :     0.048827
      py      :     0.052517
      dz2     :     0.002449  d :     0.024667
      dxz     :     0.004113
      dyz     :     0.004151
      dx2y2   :     0.006619
      dxy     :     0.007335


                      *****************************
                      * MAYER POPULATION ANALYSIS *
                      *****************************

  NA   - Mulliken gross atomic population
  ZA   - Total nuclear charge
  QA   - Mulliken gross atomic charge
  VA   - Mayer's total valence
  BVA  - Mayer's bonded valence
  FA   - Mayer's free valence

  ATOM       NA         ZA         QA         VA         BVA        FA
  0 C      5.6415     6.0000     0.3585     4.1946     4.1946     0.0000
  1 O      8.3435     8.0000    -0.3435     2.1561     2.1561     0.0000
  2 O      8.2890     8.0000    -0.2890     2.0213     2.0213     0.0000
  3 C      6.0456     6.0000    -0.0456     3.8873     3.8873    -0.0000
  4 H      0.9436     1.0000     0.0564     0.9688     0.9688     0.0000
  5 H      0.9243     1.0000     0.0757     0.9706     0.9706    -0.0000
  6 H      0.9259     1.0000     0.0741     0.9738     0.9738    -0.0000
  7 H      0.8867     1.0000     0.1133     0.9784     0.9784     0.0000

  Mayer bond orders larger than 0.1
B(  0-C ,  1-O ) :   2.1286 B(  0-C ,  2-O ) :   1.0975 B(  0-C ,  4-H ) :   0.9469 
B(  2-O ,  3-C ) :   0.9351 B(  3-C ,  5-H ) :   0.9715 B(  3-C ,  6-H ) :   0.9753 
B(  3-C ,  7-H ) :   0.9793 

-------
TIMINGS
-------

Total SCF time: 0 days 0 hours 0 min 3 sec 

Total time                  ....       3.814 sec
Sum of individual times     ....       3.632 sec  ( 95.2%)

Fock matrix formation       ....       3.370 sec  ( 88.4%)
Diagonalization             ....       0.022 sec  (  0.6%)
Density matrix formation    ....       0.005 sec  (  0.1%)
Population analysis         ....       0.019 sec  (  0.5%)
Initial guess               ....       0.149 sec  (  3.9%)
Orbital Transformation      ....       0.000 sec  (  0.0%)
Orbital Orthonormalization  ....       0.000 sec  (  0.0%)
DIIS solution               ....       0.000 sec  (  0.0%)
SOSCF solution              ....       0.020 sec  (  0.5%)


           ************************************************************
           *        Program running with 8 parallel MPI-processes     *
           *              working on a common directory               *
           ************************************************************


------------------------------------------------------------------------------- 
                              ORCA-MATRIX DRIVEN CI                            
------------------------------------------------------------------------------- 


Wavefunction type
-----------------
Correlation treatment                      ...      CCSD     
Single excitations                         ... ON
Orbital optimization                       ... OFF
Calculation of Z vector                    ... OFF
Calculation of Brueckner orbitals          ... OFF
Perturbative triple excitations            ... ON
Calculation of F12 correction              ... OFF
Frozen core treatment                      ... chemical core (8 el)
Reference Wavefunction                     ... RHF
  Internal Orbitals:     4 ...   15 ( 12 MO's/ 24 electrons)
  Virtual  Orbitals:    16 ...  175 (160 MO's              )
Number of AO's                             ...    176
Number of electrons                        ...     32
Number of correlated electrons             ...     24

Algorithmic settings
--------------------
Integral transformation                    ... All integrals via the RI transformation
K(C) Formation                             ... RI-DLPNO
   PNO-Integral Storage                    ... ON DISK
   PNO occupation number cut-off           ... 1.000e-07
   Singles PNO occupation number cut-off   ... 3.000e-09
   PNO Mulliken prescreening cut-off       ... 1.000e-03
   Domain cut-off (Mulliken population)    ... 1.000e-03
   PNO Normalization                       ...    1
Maximum number of iterations               ...        50
Convergence tolerance (max. residuum)      ... 1.000e-05
Level shift for amplitude update           ... 2.000e-01
Maximum number of DIIS vectors             ...         7
DIIS turned on at iteration                ...         0
Damping before turning on DIIS             ...     0.500
Damping after turning on DIIS              ...     0.000
Pair specific amplitude update             ... OFF
Natural orbital iterations                 ... OFF
Perturbative natural orbital generation    ... OFF
Printlevel                                 ... 2

Singles Fock matrix elements calculated using PNOs.

Memory handling:
----------------
Maximum memory for working arrays          ...   8000 MB
Data storage in matrix containers          ... UNCOMPRESSED
Data type for integral storage             ... DOUBLE
In-Core Storage of quantities:
   Amplitudes+Sigma Vector      ... NO
   J+K operators                ... NO
   DIIS vectors                 ... NO
   3-external integrals         ... NO
   4-external integrals         ... NO

Localization treatment:
-----------------------
Localization option                        ...    6
Localization threshhold                    ... -1.0e+00
Using relative localization threshhold     ... 1.0e-08
Neglect threshold for strong pairs         ... 1.000e-05 Eh
Prescreening threshold for very weak pairs ... 1.000e-07 Eh

Initializing the integral package          ... done
Localizing the valence orbitals
------------------------------------------------------------------------------
                           ORCA ORBITAL LOCALIZATION
------------------------------------------------------------------------------

Input orbitals are from                  ... methylformate_CO_Lp_ecl.proc0.gbw
Output orbitals are to                   ... methylformate_CO_Lp_ecl.proc0.loc
Max. number of iterations                ... 128
Localizations seeded randomly            ... off
Convergence tolerance                    ... 1.000e-06
Using relative localization threshhold   ... 1.000e-08
Treshold for strong local MOs            ... 9.500e-01
Treshold for bond MOs                    ... 8.500e-01
Operator                                 ... 0
Orbital range for localization           ... 4 to 15
Localization criterion                   ... FOSTER-BOYS (AUGMENTED HESSIAN)
Doing the dipole integrals     ... o.k.
Initial value of the localization sum :    73.661146
ITERATION   0 : L=   92.7596282176 DL=  1.91e+01 (AVERGE_DL)=    0.5379320919 
ITERATION   1 : L=   94.7142760215 DL=  1.95e+00 (AVERGE_DL)=    0.1720926373 
ITERATION   2 : L=   94.8951783492 DL=  1.81e-01 (AVERGE_DL)=    0.0523540291 
ITERATION   3 : L=   94.9055338101 DL=  1.04e-02 (AVERGE_DL)=    0.0125260098 
ITERATION   4 : L=   94.9068278954 DL=  1.29e-03 (AVERGE_DL)=    0.0044280191 
ITERATION   5 : L=   94.9069932243 DL=  1.65e-04 (AVERGE_DL)=    0.0015827142 
ITERATION   6 : L=   94.9070136125 DL=  2.04e-05 (AVERGE_DL)=    0.0005557990 
ITERATION   7 : L=   94.9070161327 DL=  2.52e-06 (AVERGE_DL)=    0.0001954067 
ITERATION   8 : L=   94.9070164414 DL=  3.09e-07 (AVERGE_DL)=    0.0000683969 
LOCALIZATION SUM CONVERGED

------------------------------------------------------
AUGMENTED HESSIAN OPTIMIZATION OF FOSTER-BOYS ORBITALS
------------------------------------------------------

Spin operator:           0
Orbital window:          4 to 15
Number of iterations:    128
Gradient tolerance:      1.000e-06
Number of pairs:         66
Davidson threshold:      2000
Diagonalization method:  LAPACK
Iter:    0   L: 94.9070164414   Grad. norm: 7.134408e-04
   *** Likely close to a maximum now. ***
       Augmented Hessian eigenvalues:  8.86e-08 -1.09e+00 -1.20e+00 -2.36e+00 ... 
Iter:    1   L: 94.9070164858   Grad. norm: 4.091199e-08
LOCALIZATION HAS CONVERGED.

Eigenvalues of the Hessian:
  0 -1.095e+00
  1 -1.203e+00
  2 -2.359e+00
  3 -2.649e+00
  4 -2.874e+00
  5 -4.525e+00
  6 -4.931e+00
  7 -5.133e+00
  8 -6.444e+00
  9 -7.005e+00
    ...


------------------------------------------------------------------------------- 
                    LOCALIZED MOLECULAR ORBITAL COMPOSITIONS                   
------------------------------------------------------------------------------- 

The Mulliken populations for each LMO on each atom are computed
The LMO`s will be ordered according to atom index and type
  (A) Strongly localized MO`s have populations of >=0.950 on one atom
  (B) Two center bond orbitals have populations of >=0.850 on two atoms
  (C) Other MO`s are considered to be `delocalized`

FOUND  -   2 strongly local MO`s
       -  10 two center bond MO`s
       -   0 significantly delocalized MO`s

Rather strongly localized orbitals:
MO   5:   2O  -   0.972131
MO   4:   1O  -   0.951189
Bond-like localized orbitals:
MO  15:   7H  -   0.459153  and   3C  -   0.564237
MO  14:   6H  -   0.484765  and   3C  -   0.549097
MO  13:   5H  -   0.485239  and   3C  -   0.546602
MO  12:   4H  -   0.492242  and   0C  -   0.545555
MO  11:   3C  -   0.338758  and   2O  -   0.659482
MO  10:   2O  -   0.652491  and   0C  -   0.361170
MO   9:   2O  -   0.939898  and   0C  -   0.051705
MO   8:   1O  -   0.653765  and   0C  -   0.360357
MO   7:   1O  -   0.638034  and   0C  -   0.369741
MO   6:   1O  -   0.949751  and   0C  -   0.056714
Localized MO's were stored in: methylformate_CO_Lp_ecl.proc0.loc

Localizing the core orbitals
------------------------------------------------------------------------------
                           ORCA ORBITAL LOCALIZATION
------------------------------------------------------------------------------

Input orbitals are from                  ... methylformate_CO_Lp_ecl.proc0.loc
Output orbitals are to                   ... methylformate_CO_Lp_ecl.proc0.loc
Max. number of iterations                ... 128
Localizations seeded randomly            ... off
Convergence tolerance                    ... 1.000e-06
Using relative localization threshhold   ... 1.000e-08
Treshold for strong local MOs            ... 9.500e-01
Treshold for bond MOs                    ... 8.500e-01
Operator                                 ... 0
Orbital range for localization           ... 0 to 3
Localization criterion                   ... FOSTER-BOYS (AUGMENTED HESSIAN)
Doing the dipole integrals     ... o.k.
Initial value of the localization sum :    24.493627
ITERATION   0 : L=   24.4936326977 DL=  5.36e-06 (AVERGE_DL)=    0.0009450486 
ITERATION   1 : L=   24.4936326977 DL=  0.00e+00 (AVERGE_DL)=    0.0000000000 
LOCALIZATION SUM CONVERGED

------------------------------------------------------
AUGMENTED HESSIAN OPTIMIZATION OF FOSTER-BOYS ORBITALS
------------------------------------------------------

Spin operator:           0
Orbital window:          0 to 3
Number of iterations:    128
Gradient tolerance:      1.000e-06
Number of pairs:         6
Davidson threshold:      2000
Diagonalization method:  LAPACK
Iter:    0   L: 24.4936326977   Grad. norm: 4.432138e-06
   *** Likely close to a maximum now. ***
       Augmented Hessian eigenvalues:  3.69e-13 -2.09e+01 -2.64e+01 -2.85e+01 ... 
Iter:    1   L: 24.4936326977   Grad. norm: 6.021273e-19
LOCALIZATION HAS CONVERGED.

Eigenvalues of the Hessian:
  0 -2.091e+01
  1 -2.642e+01
  2 -2.855e+01
  3 -7.469e+01
  4 -7.878e+01
  5 -1.596e+02


------------------------------------------------------------------------------- 
                    LOCALIZED MOLECULAR ORBITAL COMPOSITIONS                   
------------------------------------------------------------------------------- 

The Mulliken populations for each LMO on each atom are computed
The LMO`s will be ordered according to atom index and type
  (A) Strongly localized MO`s have populations of >=0.950 on one atom
  (B) Two center bond orbitals have populations of >=0.850 on two atoms
  (C) Other MO`s are considered to be `delocalized`

FOUND  -   4 strongly local MO`s
       -   0 two center bond MO`s
       -   0 significantly delocalized MO`s

Rather strongly localized orbitals:
MO   3:   3C  -   1.000686
MO   2:   2O  -   0.999589
MO   1:   1O  -   0.999602
MO   0:   0C  -   1.000021
Localized MO's were stored in: methylformate_CO_Lp_ecl.proc0.loc

Warning: internal orbitals are localized - no re-canonicalization of internal orbitals

--------------------------
CLOSED-SHELL FOCK OPERATOR
--------------------------

RI-JK section for the Fock operator:
  RHF full Fock operator         ... done
  RHF frozen core Fock operator  ... done
Time needed for Fock operator              ...            0.670 sec
Reference energy                           ...   -227.854983130

--------------
DLPNO SETTINGS (2015 fully linear scaling implementation)
--------------

TCutMKN:           1.000e-03
TCutPAO:           1.000e-03
TCutPNO:           1.000e-07
TCutPNOSingles:    3.000e-09
TCutEN:            9.700e-01
TCutPAOExt:        1.000e-01
TCutPairs:         1.000e-05
TCutPre:           1.000e-07
TCutOSV:           1.000e-06
TCutDOij:          1.000e-05
TCutDO:            5.000e-03
TCutC:             1.000e-04
TCutCPAO:          1.000e-03
TCutCMO:           1.000e-03
TScaleDOMP2PreScr: 2.000e+00
TScaleMKNMP2PreScr:1.000e+01
TScalePNOMP2PreScr:1.000e+00
PAO overlap thresh 1.000e-08
Using PNOs for Singles Fock computation
Use new domains
Use fully linear algorithm
TCutTNO:           1.000e-09
TCutMP2Pairs:      1.000e-06
TCutDOStrong:      2.000e-03
TCutMKNStrong:     1.000e-02
TCutMKNWeak:       1.000e-01
TCutDOWeak:        4.000e-03
NTCutTNO:          1

--------------------------
Calculating differential overlap integrals ... ok
--------------------------
ELECTRON PAIR PRESCREENING
--------------------------

Dipole-based pair screening          .... used

   TCutDOij = 1.000000e-05
   TCutPre  = 1.000000e-07
   .... Finished loop over pairs
Total time spent in the prescreening                  ...     0.000 sec
sum of pair energies estimated for screened out pairs ...       0.000000000000 Eh
Thresholds for map construction and integral transformation for crude MP2:
   TCutMKN                    ...     1.0e-02
   TCutDO                     ...     1.0e-02
   TCutPairs                  ...     1.0e-05
   TCutPNO_CrudeMP2           ...     1.0e-07
   TCutPNOSingles_CrudeMP2    ...     3.0e-09
--------------------------------
LOCAL RI TRANSFORMATION (IAVPAO)
--------------------------------

Orbital window:       4 to 15
Number of PAOs:     176
Basis functions:    176 (64 shells)
Aux. functions:     444 (132 shells)

Processing maps (0.0 sec)
Average map sizes:
   Aux shells -> MOs              12.0
   Aux shells -> PAOs            176.0
   MOs        -> AO shells        64.0
   PAOs       -> AO shells        64.0

Calculating integrals (0.3 sec, 7.159 MB)
Sorting integrals (0.0 sec, 7.154 MB)
Total time for the integral transformation: 0.3 sec
--------------------------------
INITIAL GUESS AND PNO GENERATION
--------------------------------

PNO truncation parameters                   .... 
    PAOOverlapThresh   =        1.000e-08

    TCutPairs          =        1.000e-05
    TCutPNO            =        1.000e-07
    TCutPNOSingles     =        3.000e-09
    TCutMP2Pairs       =        1.000e-06
    TCutMKN            =        1.000e-02
    TCutDO             =        1.000e-02

Pair selection                          .... not used
Type of local MP2 treatment                 .... semi-local MP2
Strategy for PNO selection                  .... occupation number selection
Pair density normalization                  .... MP2 norm
Spin component scaling                      .... not used

   .... Finished loop over pairs
Making pair pair interaction lists          ... done

                       ===========================
                         78 OF   78 PAIRS ARE KEPT CCSD PAIRS
                          0 OF   78 PAIRS ARE KEPT MP2 PAIRS FOR (T)
                          0 OF   78 PAIRS ARE SKIPPED
                       ===========================

Total time spent in the initial guess                 ...     0.225 sec
SL-MP2 correlation energy (all non-screened pairs)    ...      -0.769097955756 Eh

Initial PNO correlation energy                        ...      -0.768607050796 Eh
sum of pair energies prescreened and skipped MP2 pairs...       0.000000000000 Eh
sum of pair energies of crude MP2 skipped pairs only  ...       0.000000000000 Eh
sum of MP2 pair energies for pairs that were not kept ...       0.000000000000 Eh
sum of PNO error estimates for the kept pairs         ...      -0.000490904960 Eh
                                                          --------------------
sum of all corrections                                         -0.000490904960
Initial total correlation energy                               -0.769097955756
Thresholds for map construction and integral transformation for fine MP2 and CCSD(T) calculation:
   TCutMKN   ...     1.0e-03
   TCutDO    ...     5.0e-03
   TCutPairs ...     1.0e-05
   TCutCMO   ...     1.0e-03
   TCutCPAO  ...     1.0e-03

Thresholds for map construction and integral transformation for strong Triples:
   TCutMKN   ...     1.0e-02
   TCutDO    ...     1.0e-02
   TCutCMO   ...     1.0e-03
   TCutCPAO  ...     1.0e-03

Thresholds for map construction and integral transformation for weak Triples:
   TCutMKN   ...     1.0e-01
   TCutDO    ...     2.0e-02
   TCutCMO   ...     1.0e-03
   TCutCPAO  ...     1.0e-03

--------------------------------
LOCAL RI TRANSFORMATION (IAVPAO)
--------------------------------

Orbital window:       4 to 15
Number of PAOs:     176
Basis functions:    176 (64 shells)
Aux. functions:     444 (132 shells)

Processing maps (0.0 sec)
Average map sizes:
   Aux shells -> MOs              12.0
   Aux shells -> PAOs            176.0
   MOs        -> AO shells        64.0
   PAOs       -> AO shells        64.0

Calculating integrals (0.3 sec, 7.159 MB)
Sorting integrals (0.0 sec, 7.154 MB)
Total time for the integral transformation: 0.3 sec
--------------------------------
INITIAL GUESS AND PNO GENERATION
--------------------------------

PNO truncation parameters                   .... 
    ScaleTCutPNO       =        1.000e-02
    PAOOverlapThresh   =        1.000e-08

    TCutPairs          =        1.000e-05
    TCutPNO            =        1.000e-07
    TCutPNOSingles     =        3.000e-09
    TCutMP2Pairs       =        1.000e-06
    TCutMKN            =        1.000e-03
    TCutDO             =        5.000e-03

Pair selection                          .... not used
Type of local MP2 treatment                 .... full local PMP2
Strategy for PNO selection                  .... occupation number selection
Pair density normalization                  .... MP2 norm
Spin component scaling                      .... not used

PASS-1: Formation of initial guess LMP2 amplitudes
Initial amplitudes guess done. Entering LMP2 iteration loop:
   Max. no of iterations          ...  50
   Energy convergence tolerance   ...    1.0e-07
   Residual convergence tolerance ...    5.0e-07
   Fock matrix cutoff             ...    1.0e-05 Eh
   DIIS convergence acceleration parameters:
        Max # vectors in DIIS     ... 7
        Start iteration of DIIS   ... 0
        Levelshift                ... 2.000e-01
        Damping factor 1          ... 5.000e-01
        Damping factor 2          ... 1.000e+00
   L-MP2 PNO cut-off              ...   1.0e-09
   L-MP2 PNO cut-off (core)       ...   1.0e-11
                           *** Turning on DIIS ***
LMP2-Iter=   0:  ELMP2= -0.788427019215  DE=   1.9e-02 RMAX=   2.1e-02
LMP2-Iter=   1:  ELMP2= -0.798222750994  DE=   9.8e-03 RMAX=   9.6e-03
LMP2-Iter=   2:  ELMP2= -0.800112567434  DE=   1.9e-03 RMAX=   3.9e-03
LMP2-Iter=   3:  ELMP2= -0.800399616931  DE=   2.9e-04 RMAX=   1.3e-03
LMP2-Iter=   4:  ELMP2= -0.800402854017  DE=   3.2e-06 RMAX=   3.6e-04
LMP2-Iter=   5:  ELMP2= -0.800397559438  DE=   5.3e-06 RMAX=   8.7e-05
LMP2-Iter=   6:  ELMP2= -0.800396281487  DE=   1.3e-06 RMAX=   1.2e-05
LMP2-Iter=   7:  ELMP2= -0.800396199102  DE=   8.2e-08 RMAX=   1.9e-06
LMP2-Iter=   8:  ELMP2= -0.800396232369  DE=   3.3e-08 RMAX=   3.2e-07
LMP2-Iter=   9:  ELMP2= -0.800396232930  DE=   5.6e-10 RMAX=   7.3e-08 => CONVERGED
PASS-2: Formation of Pair natural orbitals
   .... Finished loop over pairs

 PNO Occupation Number Statistics: 
  | Av. % of trace(Dij) retained        ...  99.777156320442
  | sigma^2 in % of trace(Dij) retained ...   1.32e-01
  | Av. % of trace(Di) retained         ...  99.999766975074
  | sigma^2 in % of trace(Di) retained  ...   8.26e-09
 Distributions of % trace(Dij) recovered:
  |       >= 99.9  ...    42 ( 53.8 % of all pairs)
  |   [90.0, 99.0) ...     5 (  6.4 % of all pairs)
  |   [99.0, 99.9) ...    31 ( 39.7 % of all pairs)
 Distributions of % trace(Di) recovered :
  |       >= 99.9  ...    12 (100.0 % of all I-pairs )

Making pair pair interaction lists          ... done

                       ===========================
                         78 OF   78 PAIRS ARE KEPT
                       ===========================

Total time spent in the initial guess                 ...     2.050 sec
L-MP2 correlation energy (all non-screened pairs)     ...      -0.800396232930 Eh
L-MP2 PNO error correction                            ...      -0.000006458075 Eh
                                                          --------------------
Initial total L-MP2 energy (non-screened pairs)       ...      -0.800402691005 Eh

Initial PNO correlation energy                        ...      -0.799939195154 Eh
sum of pair energies estimated for screened out pairs ...       0.000000000000 Eh
sum of MP2 pair energies for pairs that were not kept ...       0.000000000000 Eh
sum of PNO error estimates for the kept pairs         ...      -0.000463495851 Eh
                                                          --------------------
sum of all corrections                                         -0.000463495851
Initial total correlation energy                               -0.800402691005
Thresholds for map construction and integral transformation for fine MP2 and CCSD(T) calculation:
   TCutMKN   ...     1.0e-03
   TCutDO    ...     5.0e-03
   TCutPairs ...     1.0e-05
   TCutCMO   ...     1.0e-03
   TCutCPAO  ...     1.0e-03

Time for aux screen maps:            0.001
Time for maps after fine MP2:            0.003
-----------------------------
LOCAL RI TRANSFORMATION (IJV)
-----------------------------

Orbital window:       4 to 15
Basis functions:    176 (64 shells)
Aux. functions:     444 (132 shells)

Processing maps (0.0 sec)
Average map sizes:
   Aux shells -> MOs(i)           12.0
   Aux shells -> MOs(j)           12.0
   MOs        -> AO shells        64.0

Calculating integrals (0.3 sec, 0.493 MB)
Sorting integrals (0.0 sec, 0.488 MB)
Total time for the integral transformation: 0.3 sec
--------------------------------
LOCAL RI TRANSFORMATION (VABPAO)
--------------------------------

Number of PAOs:     176
Basis functions:    176 (64 shells)
Aux. functions:     444 (132 shells)

Processing maps (0.0 sec)
Average map sizes:
   Aux shells -> PAOs            176.0
   PAOs       -> AO shells        64.0

Calculating integrals (0.5 sec, 197.816 MB)
Finished


-------------------------------------
Pair Pair Term precalculation with     
RI-(ij|mn) and (im|jn) transformation  
ON THE FLY                             
-------------------------------------

   IBatch   1 (of   1)              ... done (    6.493 sec)
Total EXT                           ...           6.493 sec

---------------------
RI-PNO TRANSFORMATION
---------------------

Total Number of PNOs                   ...  3607
Average number of PNOs per pair        ...    46
Maximal number of PNOs per pair        ...    63
   #pairs with  1 -  5 PNOs   :    0
   #pairs with  6 - 10 PNOs   :    0
   #pairs with 11 - 15 PNOs   :    0
   #pairs with 16 - 20 PNOs   :    5
   #pairs with 21 - 25 PNOs   :    4
   #pairs with 26 - 30 PNOs   :    5
   #pairs with 31 - 35 PNOs   :    1
   #pairs with 36 - 40 PNOs   :    3
   #pairs with 41 - 45 PNOs   :    8
   #pairs with 46 - 50 PNOs   :   15
   #pairs with 51 - 55 PNOs   :   20
   #pairs with 56 - 60 PNOs   :   13
   #pairs with 61 - 65 PNOs   :    4

Generation of (ij|ab)[P] integrals            ... on
Generation of (ia|bc)[P],(ja|bc)[P] integrals ... on
Storage of 3 and 4 external integrals         ... on
Generation of ALL (ka|bc)[P] integrals        ... on
Keep RI integrals in memory                   ... off

Ibatch:  1 (of  1)
Starting 2-4 index PNO integral generation ... done

Timings:
Total PNO integral transformation time     ...          3.963 sec
Size of the 3-external file                ...        71 MB
Size of the 4-external file                ...       483 MB
Size of the IKJL file                      ...         0 MB
Size of the all 3-external file            ...       430 MB
Size of the 1-external file                ...         0 MB

Making pair/pair overlap matrices          ... done (    0.227 sec)
Size of the pair overlap file              ... 77 MB
Redoing the guess amplitudes               ... done (    0.002 sec)

-------------------------
FINAL STARTUP INFORMATION
-------------------------

E(0)                                       ...   -227.854983130
E(L-MP2)                                   ...     -0.800402691
E(L-MP2) including corrections             ...     -0.800402691
Initial E(tot)                             ...   -228.655385821
<T|T>                                      ...      0.189826318
Number of pairs included                   ... 78
Total number of pairs                      ... 78

------------------------------------------------
                  RHF COUPLED CLUSTER ITERATIONS
------------------------------------------------

Number of PNO amplitudes to be optimized   ...       178643
Number of non-PNO amplitudes               ...      1996800
Untruncated number of regular amplitudes   ...      1996800

Iter       E(tot)           E(Corr)          Delta-E          Residual     Time
  0   -228.624024034     -0.768577408      0.031825283      0.016473669    3.92
                           *** Turning on DIIS ***
  1   -228.645042241     -0.789595615     -0.021018207      0.013798951    3.93
  2   -228.665458597     -0.810011971     -0.020416356      0.007354546    3.93
  3   -228.670223139     -0.814776513     -0.004764542      0.004273949   14.02
  4   -228.671829395     -0.816382770     -0.001606257      0.002139406    3.95
  5   -228.672374994     -0.816928368     -0.000545598      0.000819360    3.97
  6   -228.672511744     -0.817065118     -0.000136750      0.000362334    3.95
  7   -228.672538026     -0.817091401     -0.000026282      0.000155913    3.98
  8   -228.672538390     -0.817091765     -0.000000364      0.000069311    3.98
  9   -228.672536171     -0.817089546      0.000002219      0.000042939    3.98
 10   -228.672535923     -0.817089298      0.000000248      0.000025136    4.00
 11   -228.672535939     -0.817089314     -0.000000016      0.000015434    4.02
 12   -228.672535869     -0.817089244      0.000000070      0.000009716    4.04
               --- The Coupled-Cluster iterations have converged ---

----------------------
COUPLED CLUSTER ENERGY
----------------------

E(0)                                       ...   -227.854983130
E(CORR)(strong-pairs)                      ...     -0.817089244
E(CORR)(weak-pairs)                        ...     -0.000463496
E(CORR)(corrected)                         ...     -0.817552740
E(TOT)                                     ...   -228.672535869
Singles Norm <S|S>**1/2                    ...      0.071968365  
T1 diagnostic                              ...      0.014690481  

------------------
LARGEST AMPLITUDES
------------------
   7-> 16   7-> 16       0.054467
   8-> 16   8-> 16       0.052499
   8-> 16   7-> 16       0.045963
  14-> 23  14-> 23       0.034130
  12-> 21  12-> 21       0.032541
  14-> 16  14-> 16       0.029171
  13-> 16  13-> 16       0.029079
  12-> 17  12-> 17       0.028334
  15-> 16  15-> 16       0.027609
  12-> 19  12-> 19       0.027495
  14-> 16  14-> 23       0.027056
  14-> 23  14-> 16       0.027056
   7-> 16  -1-> -1       0.026899
  11-> 17  11-> 17       0.026279
  12-> 21  12-> 17       0.026235
  12-> 17  12-> 21       0.026235


-------------------------------------------
DLPNO BASED TRIPLES CORRECTION
-------------------------------------------

Singles multiplier          ...  1.000000
TCutTNO                     ... 1.000e-09
TCutMP2Pairs                ... 1.000e-06
TCutDOStrong                ... 1.000e-02
TCutMKNStrong               ... 1.000e-02
TCutDOWeak                  ... 2.000e-02
TCutMKNWeak                 ... 1.000e-01

Fragment selection                          .... not used
Number of Triples that are to be computed   ...       352

 . . . . . . . . .
10% done  
20% done  
30% done  
40% done  
50% done  
60% done  
70% done  
80% done  
90% done               (     14.764 sec)
Triples timings:
Total time for T0               ...    15.427 sec
Total time for Iterative (T)    ...     0.000 sec
Total time of overall (T)       ...    16.710 sec

Triples List generation         ...     0.000 sec
TNO generation                  ...     0.660 sec
Pair density generation         ...     0.002 sec
Look up tables                  ...     0.000 sec
Generating 3-index integrals    ...     6.259 sec
  Make 4-ind.int. from 3-ind.int...     3.234 sec
  Projecting amplitudes (D + S) ...     0.753 sec
  Downprojecting integrals      ...     0.001 sec
  Energy contr. (sum over a,b,c)...     1.277 sec
Fitting ET(->0)                 ...     0.000 sec

Everything after 3-index        ...     8.505 sec

Timing details:
 TNO integrals                  ...     9.228 sec
   Reading 3-index integrals    ...     0.038 sec
   Sorting integrals            ...     1.933 sec
       Sorting integrals 1      ...     0.000 sec
       Sorting integrals 2      ...     0.393 sec
       Sorting integrals 3      ...     0.075 sec
       Sorting integrals 4      ...     0.003 sec
       Sorting integrals 5      ...     0.015 sec
       Sorting integrals 6      ...     1.446 sec
   Calculating local VM**-1/2   ...     0.062 sec
   Orthogonal. integrals        ...     0.127 sec
   Multipl. 3-index integrals   ...     7.069 sec
   All concerning IRIab (w/TNO) ...     1.513 sec

 Calculate W0/W1                ...     3.239 sec
 W 3-ext contribution           ...     1.681 sec
 W 3-int contribution           ...     0.444 sec
 Sorting W                      ...     1.069 sec

 V exchange contribution        ...     0.414 sec

 Timings for Triples without generation
     of 3-index integrals       ...     8.505 sec
       0 weak pairs             ...     8.505 sec
       1 weak pair              ...     0.000 sec
       2 weak pairs             ...     0.000 sec
       3 weak pairs             ...     0.000 sec
  Extra time for extrapolation  ...     0.000 sec

Number of Triples   (0, 1, 2, 3 weak pairs; overall):    352       0       0       0  (   352)
Number of Atoms     (0, 1, 2, 3 weak pairs; overall):    8.0     0.0     0.0     0.0  (     8)
Number of PAOs      (0, 1, 2, 3 weak pairs; overall):  175.6     0.0     0.0     0.0  (   176)
Number of AuxFcns   (0, 1, 2, 3 weak pairs; overall):  321.5     0.0     0.0     0.0  (   444)
Number of TNOs      (0, 1, 2, 3 weak pairs         ):   94.6     0.0     0.0     0.0
Aver. Number of NTNO, Atoms, PAOs, AuxFcns / Triples:    352    94.6     8.0   175.6   321.5

Triples Correction (T)                     ...     -0.032223439
Final correlation energy                   ...     -0.849776179
E(CCSD)                                    ...   -228.672535869
E(CCSD(T))                                 ...   -228.704759308


Maximum memory used throughout the entire calculation: 1745.9 MB


------------------------------------------------------------------------------- 
                                     TIMINGS                                   
------------------------------------------------------------------------------- 


Total execution time                   ...       94.848 sec

Localization of occupied MO's          ...        0.419 sec (  0.4%)
Fock Matrix Formation                  ...        0.670 sec (  0.7%)
Global overlap, Fock, MKN matrices     ...        0.149 sec (  0.2%)
Differential overlap integrals         ...        0.037 sec (  0.0%)
Organizing maps                        ...        0.010 sec (  0.0%)
RI 3-index integral generations        ...        1.429 sec (  1.5%)
RI-PNO integral transformation         ...       11.137 sec ( 11.7%)
Initial Guess                          ...        2.298 sec (  2.4%)
DIIS Solver                            ...        0.625 sec (  0.7%)
State Vector Update                    ...        0.018 sec (  0.0%)
Sigma-vector construction              ...       61.470 sec ( 64.8%)
  <D|H|D>(0-ext)                       ...        0.620 sec (  1.0% of sigma)
  <D|H|D>(2-ext Fock)                  ...        0.007 sec (  0.0% of sigma)
  <D|H|D>(2-ext)                       ...        1.989 sec (  3.2% of sigma)
  <D|H|D>(4-ext)                       ...        8.566 sec ( 13.9% of sigma)
  <D|H|D>(4-ext-corr)                  ...       33.024 sec ( 53.7% of sigma)
  CCSD doubles correction              ...        0.068 sec (  0.1% of sigma)
  <S|H|S>                              ...        0.181 sec (  0.3% of sigma)
  <S|H|D>(1-ext)                       ...        0.094 sec (  0.2% of sigma)
  <D|H|S>(1-ext)                       ...        0.004 sec (  0.0% of sigma)
  <S|H|D>(3-ext)                       ...        0.284 sec (  0.5% of sigma)
  Fock-dressing                        ...       14.666 sec ( 23.9% of sigma)
  Singles amplitudes                   ...        0.144 sec (  0.2% of sigma)
  (ik|jl)-dressing                     ...        0.503 sec (  0.8% of sigma)
  (ij|ab),(ia|jb)-dressing             ...        1.078 sec (  1.8% of sigma)
  Pair energies                        ...        0.005 sec (  0.0% of sigma)
Total Time for computing (T)           ...       16.728 sec ( 17.6% of ALL)


-------------------------   --------------------
FINAL SINGLE POINT ENERGY      -228.704759308132
-------------------------   --------------------


                            ***************************************
                            *     ORCA property calculations      *
                            ***************************************

                                    ---------------------
                                    Active property flags
                                    ---------------------
   (+) Dipole Moment


------------------------------------------------------------------------------
                       ORCA ELECTRIC PROPERTIES CALCULATION
------------------------------------------------------------------------------

Dipole Moment Calculation                       ... on
Quadrupole Moment Calculation                   ... off
Polarizability Calculation                      ... off
GBWName                                         ... methylformate_CO_Lp_ecl.gbw
Electron density file                           ... methylformate_CO_Lp_ecl.scfp.tmp
The origin for moment calculation is the CENTER OF MASS  = ( 0.160440, -0.064339 -0.015595)

-------------
DIPOLE MOMENT
-------------
                                X             Y             Z
Electronic contribution:      3.80176      -1.25689      -0.63625
Nuclear contribution   :     -5.13401       2.05885       0.49902
                        -----------------------------------------
Total Dipole Moment    :     -1.33225       0.80197      -0.13723
                        -----------------------------------------
Magnitude (a.u.)       :      1.56105
Magnitude (Debye)      :      3.96787



--------------------
Rotational spectrum 
--------------------
 
Rotational constants in cm-1:     1.176607     0.159693     0.156664 
Rotational constants in MHz : 35273.793395  4787.484463  4696.680923 

 Dipole components along the rotational axes: 
x,y,z [a.u.] :    -1.331545    -0.688239    -0.436104 
x,y,z [Debye]:    -3.384519    -1.749364    -1.108488 

 

Timings for individual modules:

Sum of individual times         ...       99.358 sec (=   1.656 min)
GTO integral calculation        ...        0.397 sec (=   0.007 min)   0.4 %
SCF iterations                  ...        3.931 sec (=   0.066 min)   4.0 %
MDCI module                     ...       95.031 sec (=   1.584 min)  95.6 %
                             ****ORCA TERMINATED NORMALLY****
TOTAL RUN TIME: 0 days 0 hours 1 minutes 39 seconds 634 msec
methylformate_CO_Lp_ecl.gbw -> /home1/pantazis/klk/xyz/Energy_barrier/methylformate_CO_Lp_ecl.gbw
methylformate_CO_Lp_ecl.job -> /home1/pantazis/klk/xyz/Energy_barrier/methylformate_CO_Lp_ecl.job
methylformate_CO_Lp_ecl.loc -> /home1/pantazis/klk/xyz/Energy_barrier/methylformate_CO_Lp_ecl.loc
methylformate_CO_Lp_ecl.nodes -> /home1/pantazis/klk/xyz/Energy_barrier/methylformate_CO_Lp_ecl.nodes
methylformate_CO_Lp_ecl.prop -> /home1/pantazis/klk/xyz/Energy_barrier/methylformate_CO_Lp_ecl.prop
methylformate_CO_Lp_ecl_property.txt -> /home1/pantazis/klk/xyz/Energy_barrier/methylformate_CO_Lp_ecl_property.txt
methylformate_CO_Lp_ecl.xyz -> /home1/pantazis/klk/xyz/Energy_barrier/methylformate_CO_Lp_ecl.xyz
cp: cannot stat methylformate_CO_Lp_ecl.asa.inp: No such file or directory
