! Job execution by suborca V 6.07 on ZEUS !
Job started from zeus1, running /scratch/pantazis/N_2_dimethylpiperidine_eq_ax__1H3t1k/orca/orca copied from /opt/orca on zeussn124 in /scratch/pantazis/N_2_dimethylpiperidine_eq_ax__1H3t1k
Job execution start: Fri Jun 28 00:12:29 CEST 2019
Shared library path: /scratch/pantazis/N_2_dimethylpiperidine_eq_ax__1H3t1k/orca:/opt/openmpi_1.10.2/lib:/opt/intel/mkl/lib/intel64:/opt/intel/lib/intel64:
PBS Job ID is: 158249.icqc
izeussn124
izeussn124
izeussn124
izeussn124
izeussn124
izeussn124
izeussn124
izeussn124

                                 *****************
                                 * O   R   C   A *
                                 *****************

           --- An Ab Initio, DFT and Semiempirical electronic structure package ---

                  #######################################################
                  #                        -***-                        #
                  #          Department of theory and spectroscopy      #
                  #               Directorship: Frank Neese             #
                  #        Max Planck Institute fuer Kohlenforschung    #
                  #                Kaiser Wilhelm Platz 1               #
                  #                 D-45470 Muelheim/Ruhr               #
                  #                      Germany                        #
                  #                                                     #
                  #                  All rights reserved                #
                  #                        -***-                        #
                  #######################################################


                         Program Version 4.1.x  -  STABLE  -
                                (SVN: $Rev: 14094$)
                ($Date: 2019-06-14 15:01:15 +0200 (Fri, 14 Jun 2019) $)

                         (BUILD: $Sun Jun 23 06:18:31 CEST 2019$)


 With contributions from (in alphabetic order):
   Daniel Aravena         : Magnetic Properties
   Michael Atanasov       : Ab Initio Ligand Field Theory
   Alexander A. Auer      : GIAO ZORA
   Ute Becker             : Parallelization
   Giovanni Bistoni       : ED, Open-shell LED
   Martin Brehm           : Molecular dynamics
   Dmytro Bykov           : SCF Hessian
   Vijay G. Chilkuri      : MRCI spin determinant printing
   Dipayan Datta          : RHF DLPNO-CCSD density
   Achintya Kumar Dutta   : EOM-CC, STEOM-CC
   Dmitry Ganyushin       : Spin-Orbit,Spin-Spin,Magnetic field MRCI
   Miquel Garcia          : C-PCM Hessian
   Yang Guo               : DLPNO-NEVPT2, CIM, IAO-localization
   Andreas Hansen         : Spin unrestricted coupled pair/coupled cluster methods
   Benjamin Helmich-Paris : CASSCF linear response (MC-RPA)
   Lee Huntington         : MR-EOM, pCC
   Robert Izsak           : Overlap fitted RIJCOSX, COSX-SCS-MP3, EOM
   Christian Kollmar      : KDIIS, OOCD, Brueckner-CCSD(T), CCSD density
   Simone Kossmann        : Meta GGA functionals, TD-DFT gradient, OOMP2, MP2 Hessian
   Martin Krupicka        : AUTO-CI
   Lucas Lang             : DCDCAS
   Dagmar Lenk            : GEPOL surface, SMD
   Dimitrios Liakos       : Extrapolation schemes; parallel MDCI
   Dimitrios Manganas     : ROCIS; embedding schemes
   Dimitrios Pantazis     : SARC Basis sets
   Taras Petrenko         : DFT Hessian,TD-DFT gradient, ASA, ECA, R-Raman, ABS, FL, XAS/XES, NRVS
   Peter Pinski           : DLPNO-MP2, DLPNO-MP2 Gradient
   Christoph Reimann      : Effective Core Potentials
   Marius Retegan         : Local ZFS, SOC
   Christoph Riplinger    : Optimizer, TS searches, QM/MM, DLPNO-CCSD(T), (RO)-DLPNO pert. Triples
   Tobias Risthaus        : Range-separated hybrids, TD-DFT gradient, RPA, STAB
   Michael Roemelt        : Restricted open shell CIS
   Masaaki Saitow         : Open-shell DLPNO
   Barbara Sandhoefer     : DKH picture change effects
   Avijit Sen             : IP-ROCIS
   Kantharuban Sivalingam : CASSCF convergence, NEVPT2, FIC-MRCI
   Bernardo de Souza      : ESD, SOC TD-DFT
   Georgi Stoychev        : AutoAux, RI-MP2 NMR
   Willem Van den Heuvel  : Paramagnetic NMR
   Boris Wezisla          : Elementary symmetry handling
   Frank Wennmohs         : Technical directorship


 We gratefully acknowledge several colleagues who have allowed us to
 interface, adapt or use parts of their codes:
   Stefan Grimme, W. Hujo, H. Kruse,             : VdW corrections, initial TS optimization,
                  C. Bannwarth                     DFT functionals, gCP, sTDA/sTD-DF
   Ed Valeev                                     : LibInt (2-el integral package), F12 methods
   Garnet Chan, S. Sharma, J. Yang, R. Olivares  : DMRG
   Ulf Ekstrom                                   : XCFun DFT Library
   Mihaly Kallay                                 : mrcc  (arbitrary order and MRCC methods)
   Andreas Klamt, Michael Diedenhofen            : otool_cosmo (COSMO solvation model)
   Jiri Pittner, Ondrej Demel                    : Mk-CCSD
   Frank Weinhold                                : gennbo (NPA and NBO analysis)
   Christopher J. Cramer and Donald G. Truhlar   : smd solvation model
   Lars Goerigk                                  : TD-DFT with DH, B97 family of functionals
   V. Asgeirsson, H. Jonsson                     : NEB implementation
   FAccTs GmbH                                   : IRC, NEB, NEB-TS, Multilevel


 Your calculation uses the libint2 library for the computation of 2-el integrals
 For citations please refer to: http://libint.valeyev.net

 This ORCA versions uses:
   CBLAS   interface :  Fast vector & matrix operations
   LAPACKE interface :  Fast linear algebra routines
   SCALAPACK package :  Parallel linear algebra routines




***************************************
The coordinates will be read from file: N_2_dimethylpiperidine_eq_ax.xyz
***************************************


----- Orbital basis set information -----
Your calculation utilizes the basis: cc-pVTZ 
       H, B-Ne : Obtained from the ccRepo (grant-hill.group.shef.ac.uk/ccrepo) Feb. 2017
                 T. H. Dunning, Jr., J. Chem. Phys. 90, 1007 (1989)
            He : Obtained from the ccRepo (grant-hill.group.shef.ac.uk/ccrepo) Feb. 2017
                 D. E. Woon, T. H. Dunning, Jr., J. Chem. Phys. 100, 2975 (1994)
  Li-Be, Na-Mg : Obtained from the ccRepo (grant-hill.group.shef.ac.uk/ccrepo) Feb. 2017
                 B. P. Prascher, D. E. Woon, K. A. Peterson, T. H. Dunning, Jr., A. K. Wilson, Theor. Chem. Acc. 128, 69 (2011)
         Al-Ar : Obtained from the ccRepo (grant-hill.group.shef.ac.uk/ccrepo) Feb. 2017
                 D. E. Woon, T. H. Dunning, Jr., J. Chem. Phys. 98, 1358 (1993)
            Ca : Obtained from the Peterson Research Group Website (tyr0.chem.wsu.edu/~kipeters) Feb. 2017
                 J. Koput, K. A. Peterson, J. Phys. Chem. 106, 9595 (2002)
         Sc-Zn : Obtained from the ccRepo (grant-hill.group.shef.ac.uk/ccrepo) Feb. 2017
                 N. B. Balabanov, K. A. Peterson, J. Chem. Phys. 123, 064107 (2005)
                 N. B. Balabanov, K. A. Peterson, J. Chem. Phys. 125, 074110 (2006)
         Ga-Kr : Obtained from the ccRepo (grant-hill.group.shef.ac.uk/ccrepo) Feb. 2017
                 A. K. Wilson, D. E. Woon, K. A. Peterson, T. H. Dunning, Jr., J. Chem. Phys. 110, 7667 (1999)
             Y : Obtained from the ccRepo (grant-hill.group.shef.ac.uk/ccrepo) Feb. 2017
                 K. A. Peterson, D. Figgen, M. Dolg, H. Stoll, J. Chem. Phys. 126, 124101 (2007)
        Ag, Au : Obtained from the Peterson Research Group Website (tyr0.chem.wsu.edu/~kipeters) Feb. 2017
                 K. A. Peterson, C. Puzzarini, Theor. Chem. Acc. 114, 283 (2005)

----- AuxC basis set information -----
Your calculation utilizes the auxiliary basis: cc-pVTZ/C 
  Obtained from the EMSL Basis Set Exchange (bse.pnl.gov) Feb. 2017
  H-He, B-F, Al-Ar, Ga-Kr : F. Weigend, A. Kohn, C. Hattig, J. Chem. Phys. 116, 3175 (2002)
             Li-Be, Na-Mg : C. Haettig, Phys. Chem. Chem. Phys. 7, 59 (2005)
                       Ne : C. Haettig, Phys. Chem. Chem. Phys. 7, 59 (2005)
                            F. Weigend, A. Kohn, C. Hattig, J. Chem. Phys. 116, 3175 (2002)
                    Sc-Zn : J. G. Hill, J. A. Platts, J. Chem. Phys. 128, 044104 (2008)

----- AuxJK basis set information -----
Your calculation utilizes the auxiliary basis: cc-pVTZ/JK 
  H, B-F, Al-Cl, Ga-Br : Obtained from the TURBOMOLE 7.0 basis set library

================================================================================
                                        WARNINGS
                       Please study these warnings very carefully!
================================================================================


WARNING: MDCI localization with Augmented Hessian Foster-Boys
  ===> : Switching off randomization!

WARNING: Post HF methods need fully converged wavefunctions
  ===> : Setting SCFConvForced true
         You can overwrite this default with %scf ConvForced false 


INFO   : the flag for use of LIBINT has been found!

================================================================================
                                       INPUT FILE
================================================================================
NAME = N_2_dimethylpiperidine_eq_ax.inp
|  1> ! RHF DLPNO-CCSD(T) cc-pVTZ RIJK cc-pVTZ/JK cc-pVTZ/C
|  2> ! KDIIS SOSCF TightSCF TightPNO
|  3> 
|  4> %pal nprocs 8 end
|  5> 
|  6> %maxcore 8000
|  7> 
|  8> %scf maxiter 300
|  9>      shift shift 0.2 erroff 0.1 end
| 10> end
| 11> 
| 12> * xyzfile 0 1 N_2_dimethylpiperidine_eq_ax.xyz 
| 13> 
| 14> 
| 15>                          ****END OF INPUT****
================================================================================

                       ****************************
                       * Single Point Calculation *
                       ****************************

---------------------------------
CARTESIAN COORDINATES (ANGSTROEM)
---------------------------------
  C     -1.967150    0.155880    0.131040
  C     -1.079400    1.016650   -0.780490
  C      0.414100    0.916270   -0.411790
  N      0.811170   -0.506290   -0.418420
  C      0.030500   -1.353700    0.483870
  C     -1.462830   -1.293370    0.146420
  C      0.747860    1.689790    0.884390
  C      2.243440   -0.724940   -0.287480
  H      0.987070    1.386200   -1.222970
  H      0.184000   -1.083620    1.548860
  H      0.394870   -2.381800    0.371580
  H     -1.197780    0.676360   -1.816850
  H     -1.393590    2.067070   -0.745660
  H     -2.026430   -1.894390    0.870710
  H     -1.616660   -1.743830   -0.842830
  H     -1.963060    0.558620    1.153110
  H     -3.008160    0.196000   -0.211840
  H      2.643200   -0.517780    0.723410
  H      2.475890   -1.768490   -0.527310
  H      2.780030   -0.088880   -0.999930
  H      1.817360    1.644600    1.113240
  H      0.481680    2.746070    0.765170
  H      0.204360    1.308420    1.754540

----------------------------
CARTESIAN COORDINATES (A.U.)
----------------------------
  NO LB      ZA    FRAG     MASS         X           Y           Z
   0 C     6.0000    0    12.011   -3.717375    0.294571    0.247630
   1 C     6.0000    0    12.011   -2.039770    1.921190   -1.474912
   2 C     6.0000    0    12.011    0.782536    1.731499   -0.778170
   3 N     7.0000    0    14.007    1.532889   -0.956749   -0.790699
   4 C     6.0000    0    12.011    0.057637   -2.558122    0.914382
   5 C     6.0000    0    12.011   -2.764348   -2.444115    0.276694
   6 C     6.0000    0    12.011    1.413251    3.193240    1.671255
   7 C     6.0000    0    12.011    4.239487   -1.369938   -0.543258
   8 H     1.0000    0     1.008    1.865292    2.619538   -2.311078
   9 H     1.0000    0     1.008    0.347710   -2.047745    2.926921
  10 H     1.0000    0     1.008    0.746196   -4.500950    0.702184
  11 H     1.0000    0     1.008   -2.263476    1.278135   -3.433349
  12 H     1.0000    0     1.008   -2.633503    3.906196   -1.409093
  13 H     1.0000    0     1.008   -3.829398   -3.579878    1.645403
  14 H     1.0000    0     1.008   -3.055045   -3.295361   -1.592718
  15 H     1.0000    0     1.008   -3.709646    1.055639    2.179062
  16 H     1.0000    0     1.008   -5.684599    0.370386   -0.400320
  17 H     1.0000    0     1.008    4.994924   -0.978462    1.367047
  18 H     1.0000    0     1.008    4.678754   -3.341962   -0.996471
  19 H     1.0000    0     1.008    5.253495   -0.167959   -1.889594
  20 H     1.0000    0     1.008    3.434313    3.107844    2.103719
  21 H     1.0000    0     1.008    0.910243    5.189320    1.445962
  22 H     1.0000    0     1.008    0.386184    2.472555    3.315600

--------------------------------
INTERNAL COORDINATES (ANGSTROEM)
--------------------------------
 C      0   0   0     0.000000000000     0.00000000     0.00000000
 C      1   0   0     1.536200506542     0.00000000     0.00000000
 C      2   1   0     1.541608927193   112.42383533     0.00000000
 N      3   2   1     1.476951419445   108.78977513    54.79362184
 C      4   3   2     1.463446822095   114.30189670   302.54739104
 C      5   4   3     1.532170584596   111.18199894    58.21145107
 C      3   2   1     1.545901523513   112.15496150   286.01737253
 C      4   3   2     1.454768180502   114.14494508   171.05285144
 H      3   2   1     1.098700058342   107.50538609   168.66203013
 H      5   4   3     1.109373317013   112.15429101   295.00436892
 H      5   4   3     1.096523666411   107.60888357   178.44786390
 H      2   1   3     1.097202423484   108.92514323   119.75392832
 H      2   1   3     1.096955177480   110.62164046   237.36353561
 H      6   5   4     1.097025981689   109.49626430   182.99601328
 H      6   5   4     1.097813027341   108.59510532    66.07123059
 H      1   2   3     1.098564208683   110.15007367    67.38877863
 H      1   2   3     1.096758008359   110.02996163   184.28307325
 H      8   4   3     1.106626366621   114.18852058    72.16881557
 H      8   4   3     1.095695228565   109.40918369   192.75362758
 H      8   4   3     1.095484438137   109.66023112   310.86670752
 H      7   3   2     1.094643644571   111.44303190   182.29880849
 H      7   3   2     1.095806843928   109.79488272   301.23025810
 H      7   3   2     1.094530195746   112.64525647    61.07364119

---------------------------
INTERNAL COORDINATES (A.U.)
---------------------------
 C      0   0   0     0.000000000000     0.00000000     0.00000000
 C      1   0   0     2.902998244156     0.00000000     0.00000000
 C      2   1   0     2.913218678002   112.42383533     0.00000000
 N      3   2   1     2.791033695857   108.78977513    54.79362184
 C      4   3   2     2.765513705317   114.30189670   302.54739104
 C      5   4   3     2.895382795336   111.18199894    58.21145107
 C      3   2   1     2.921330509451   112.15496150   286.01737253
 C      4   3   2     2.749113449491   114.14494508   171.05285144
 H      3   2   1     2.076242213589   107.50538609   168.66203013
 H      5   4   3     2.096411749434   112.15429101   295.00436892
 H      5   4   3     2.072129428881   107.60888357   178.44786390
 H      2   1   3     2.073412093860   108.92514323   119.75392832
 H      2   1   3     2.072944866624   110.62164046   237.36353561
 H      6   5   4     2.073078667188   109.49626430   182.99601328
 H      6   5   4     2.074565967926   108.59510532    66.07123059
 H      1   2   3     2.075985494939   110.15007367    67.38877863
 H      1   2   3     2.072572270984   110.02996163   184.28307325
 H      8   4   3     2.091220765489   114.18852058    72.16881557
 H      8   4   3     2.070563908232   109.40918369   192.75362758
 H      8   4   3     2.070165572051   109.66023112   310.86670752
 H      7   3   2     2.068576702477   111.44303190   182.29880849
 H      7   3   2     2.070774830701   109.79488272   301.23025810
 H      7   3   2     2.068362315267   112.64525647    61.07364119

---------------------
BASIS SET INFORMATION
---------------------
There are 3 groups of distinct atoms

 Group   1 Type C   : 18s5p2d1f contracted to 4s3p2d1f pattern {8811/311/11/1}
 Group   2 Type N   : 18s5p2d1f contracted to 4s3p2d1f pattern {8811/311/11/1}
 Group   3 Type H   : 5s2p1d contracted to 3s2p1d pattern {311/11/1}

Atom   0C    basis set group =>   1
Atom   1C    basis set group =>   1
Atom   2C    basis set group =>   1
Atom   3N    basis set group =>   2
Atom   4C    basis set group =>   1
Atom   5C    basis set group =>   1
Atom   6C    basis set group =>   1
Atom   7C    basis set group =>   1
Atom   8H    basis set group =>   3
Atom   9H    basis set group =>   3
Atom  10H    basis set group =>   3
Atom  11H    basis set group =>   3
Atom  12H    basis set group =>   3
Atom  13H    basis set group =>   3
Atom  14H    basis set group =>   3
Atom  15H    basis set group =>   3
Atom  16H    basis set group =>   3
Atom  17H    basis set group =>   3
Atom  18H    basis set group =>   3
Atom  19H    basis set group =>   3
Atom  20H    basis set group =>   3
Atom  21H    basis set group =>   3
Atom  22H    basis set group =>   3
-------------------------------
AUXILIARY BASIS SET INFORMATION
-------------------------------
There are 3 groups of distinct atoms

 Group   1 Type C   : 8s6p5d3f1g contracted to 8s6p5d3f1g pattern {11111111/111111/11111/111/1}
 Group   2 Type N   : 8s6p5d3f1g contracted to 8s6p5d3f1g pattern {11111111/111111/11111/111/1}
 Group   3 Type H   : 4s3p2d1f contracted to 4s3p2d1f pattern {1111/111/11/1}

Atom   0C    basis set group =>   1
Atom   1C    basis set group =>   1
Atom   2C    basis set group =>   1
Atom   3N    basis set group =>   2
Atom   4C    basis set group =>   1
Atom   5C    basis set group =>   1
Atom   6C    basis set group =>   1
Atom   7C    basis set group =>   1
Atom   8H    basis set group =>   3
Atom   9H    basis set group =>   3
Atom  10H    basis set group =>   3
Atom  11H    basis set group =>   3
Atom  12H    basis set group =>   3
Atom  13H    basis set group =>   3
Atom  14H    basis set group =>   3
Atom  15H    basis set group =>   3
Atom  16H    basis set group =>   3
Atom  17H    basis set group =>   3
Atom  18H    basis set group =>   3
Atom  19H    basis set group =>   3
Atom  20H    basis set group =>   3
Atom  21H    basis set group =>   3
Atom  22H    basis set group =>   3
-------------------------------
AUXILIARY BASIS SET INFORMATION
-------------------------------
There are 3 groups of distinct atoms

 Group   1 Type C   : 10s7p5d2f1g contracted to 10s7p5d2f1g pattern {1111111111/1111111/11111/11/1}
 Group   2 Type N   : 10s7p5d2f1g contracted to 10s7p5d2f1g pattern {1111111111/1111111/11111/11/1}
 Group   3 Type H   : 4s3p2d1f contracted to 4s3p2d1f pattern {1111/111/11/1}

Atom   0C    basis set group =>   1
Atom   1C    basis set group =>   1
Atom   2C    basis set group =>   1
Atom   3N    basis set group =>   2
Atom   4C    basis set group =>   1
Atom   5C    basis set group =>   1
Atom   6C    basis set group =>   1
Atom   7C    basis set group =>   1
Atom   8H    basis set group =>   3
Atom   9H    basis set group =>   3
Atom  10H    basis set group =>   3
Atom  11H    basis set group =>   3
Atom  12H    basis set group =>   3
Atom  13H    basis set group =>   3
Atom  14H    basis set group =>   3
Atom  15H    basis set group =>   3
Atom  16H    basis set group =>   3
Atom  17H    basis set group =>   3
Atom  18H    basis set group =>   3
Atom  19H    basis set group =>   3
Atom  20H    basis set group =>   3
Atom  21H    basis set group =>   3
Atom  22H    basis set group =>   3


           ************************************************************
           *        Program running with 8 parallel MPI-processes     *
           *              working on a common directory               *
           ************************************************************
------------------------------------------------------------------------------
                           ORCA GTO INTEGRAL CALCULATION
                           -- RI-GTO INTEGRALS CHOSEN --
------------------------------------------------------------------------------

                         BASIS SET STATISTICS AND STARTUP INFO

Gaussian basis set:
 # of primitive gaussian shells          ...  328
 # of primitive gaussian functions       ...  640
 # of contracted shells                  ...  170
 # of contracted basis functions         ...  450
 Highest angular momentum                ...    3
 Maximum contraction depth               ...    8
Auxiliary gaussian basis set:
 # of primitive gaussian shells          ...  350
 # of primitive gaussian functions       ... 1082
 # of contracted shells                  ...  350
 # of contracted aux-basis functions     ... 1082
 Highest angular momentum                ...    4
 Maximum contraction depth               ...    1
Ratio of auxiliary to basis functions    ...  2.40
Integral package used                  ... LIBINT
 One Electron integrals                  ... done
 Ordering auxiliary basis shells         ... done
 Integral threshhold             Thresh  ...  2.500e-11
 Primitive cut-off               TCut    ...  2.500e-12
 Pre-screening matrix                    ... done
 Shell pair data                         ... 
 Ordering of the shell pairs             ... done (   0.003 sec) 13764 of 14535 pairs
 Determination of significant pairs      ... done (   0.000 sec)
 Creation of shell pair data             ... done (   0.003 sec)
 Storage of shell pair data              ... done (   0.003 sec)
 Shell pair data done in (   0.009 sec)
 Computing two index integrals           ... done
 Cholesky decomposition of the V-matrix  ... done


Timings:
 Total evaluation time                   ...   0.732 sec (  0.012 min)
 One electron matrix time                ...   0.175 sec (  0.003 min) = 23.9%
 Schwartz matrix evaluation time         ...   0.285 sec (  0.005 min) = 38.9%
 Two index repulsion integral time       ...   0.110 sec (  0.002 min) = 15.0%
 Cholesky decomposition of V             ...   0.128 sec (  0.002 min) = 17.5%
 Three index repulsion integral time     ...   0.000 sec (  0.000 min) =  0.0%



           ************************************************************
           *        Program running with 8 parallel MPI-processes     *
           *              working on a common directory               *
           ************************************************************
-------------------------------------------------------------------------------
                                 ORCA SCF
-------------------------------------------------------------------------------

------------
SCF SETTINGS
------------
Hamiltonian:
 Ab initio Hamiltonian  Method          .... Hartree-Fock(GTOs)
 RI-approximation to the Coulomb term is turned on
   Number of auxiliary basis functions  .... 1082
   RI-JK (J+K treated both via RI)      .... on


General Settings:
 Integral files         IntName         .... N_2_dimethylpiperidine_eq_ax
 Hartree-Fock type      HFTyp           .... RHF
 Total Charge           Charge          ....    0
 Multiplicity           Mult            ....    1
 Number of Electrons    NEL             ....   64
 Basis Dimension        Dim             ....  450
 Nuclear Repulsion      ENuc            ....    419.9884559761 Eh

Convergence Acceleration:
 DIIS                   CNVDIIS         .... off
 Newton-Raphson         CNVNR           .... off
 SOSCF                  CNVSOSCF        .... on
   Start iteration      SOSCFMaxIt      ....   150
   Startup grad/error   SOSCFStart      ....  0.003300
 Level Shifting         CNVShift        .... on
   Level shift para.    LevelShift      ....    0.2000
   Turn off err/grad.   ShiftErr        ....    0.1000
 Zerner damping         CNVZerner       .... off
 Static damping         CNVDamp         .... off
 Fernandez-Rico         CNVRico         .... off

SCF Procedure:
 Maximum # iterations   MaxIter         ....   300
 SCF integral mode      SCFMode         .... Direct
   Integral package                     .... LIBINT
 Reset frequency        DirectResetFreq ....    20
 Integral Threshold     Thresh          ....  2.500e-11 Eh
 Primitive CutOff       TCut            ....  2.500e-12 Eh

Convergence Tolerance:
 Convergence Check Mode ConvCheckMode   .... Total+1el-Energy
 Convergence forced     ConvForced      .... 1
 Energy Change          TolE            ....  1.000e-08 Eh
 1-El. energy change                    ....  1.000e-05 Eh
 Orbital Gradient       TolG            ....  1.000e-05
 Orbital Rotation angle TolX            ....  1.000e-05


Diagonalization of the overlap matrix:
Smallest eigenvalue                        ... 2.788e-04
Time for diagonalization                   ...    0.042 sec
Threshold for overlap eigenvalues          ... 1.000e-08
Number of eigenvalues below threshold      ... 0
Time for construction of square roots      ...    0.089 sec
Total time needed                          ...    0.132 sec

-------------------
DFT GRID GENERATION
-------------------

General Integration Accuracy     IntAcc      ...  4.340
Radial Grid Type                 RadialGrid  ... Gauss-Chebyshev
Angular Grid (max. acc.)         AngularGrid ... Lebedev-110
Angular grid pruning method      GridPruning ... 3 (G Style)
Weight generation scheme         WeightScheme... Becke
Basis function cutoff            BFCut       ...    1.0000e-11
Integration weight cutoff        WCut        ...    1.0000e-14
Grids for H and He will be reduced by one unit

# of grid points (after initial pruning)     ...  25204 (   0.0 sec)
# of grid points (after weights+screening)   ...  22707 (   0.0 sec)
nearest neighbour list constructed           ...    0.0 sec
Grid point re-assignment to atoms done       ...    0.0 sec
Grid point division into batches done        ...    0.0 sec
Reduced shell lists constructed in    0.2 sec

Total number of grid points                  ...    22707
Total number of batches                      ...      366
Average number of points per batch           ...       62
Average number of grid points per atom       ...      987
Average number of shells per batch           ...   145.11 (85.36%)
Average number of basis functions per batch  ...   378.98 (84.22%)
Average number of large shells per batch     ...   116.66 (80.40%)
Average number of large basis fcns per batch ...   299.64 (79.06%)
Average number of aux-shells per batch       ...   145.11 (41.46%)
Average number of aux functions per batch    ...   378.98 (35.03%)
Maximum spatial batch extension              ...   3.67,  3.55,  3.69 au
Average spatial batch extension              ...   0.20,  0.20,  0.20 au

Time for grid setup =    0.214 sec

------------------------------
INITIAL GUESS: MODEL POTENTIAL
------------------------------
Loading Hartree-Fock densities                     ... done
Calculating cut-offs                               ... done
Setting up the integral package                    ... done
Initializing the effective Hamiltonian             ... done
Starting the Coulomb interaction                   ... done (   0.1 sec)
Reading the grid                                   ... done
Mapping shells                                     ... done
Starting the XC term evaluation                    ... done (   0.1 sec)
Transforming the Hamiltonian                       ... done (   0.0 sec)
Diagonalizing the Hamiltonian                      ... done (   0.0 sec)
Back transforming the eigenvectors                 ... done (   0.0 sec)
Now organizing SCF variables                       ... done
                      ------------------
                      INITIAL GUESS DONE (   0.6 sec)
                      ------------------
--------------
SCF ITERATIONS
--------------
ITER       Energy         Delta-E        Max-DP      RMS-DP      [F,P]   Gradient Norm
                             ****Turning on KDIIS(Cayley)****
  0   -327.9087122919   0.000000000000 0.01336153  0.00022664  0.1267029   0.148239390
  1   -328.0360199567  -0.127307664811 0.01821553  0.00025932  0.1160722   0.128553991
  2   -328.1424509816  -0.106431024920 0.02998899  0.00044871  0.0932472   0.104429084
  3   -328.2732269579  -0.130775976253 0.04575575  0.00072404  0.0566185   0.064513698
                      *** Initiating the SOSCF procedure ***
                           *** Shutting down KDIIS ***
                      *** Re-Reading the Fockian *** 
                      *** Removing any level shift *** 
ITER      Energy       Delta-E        Grad      Rot      Max-DP    RMS-DP
  4   -328.35883450  -0.0856075429  0.002105  0.002105  0.002224  0.000054
  5   -328.35931560  -0.0004810994  0.000911  0.001179  0.001610  0.000043
  6   -328.35938824  -0.0000726439  0.000542  0.000428  0.001006  0.000018
  7   -328.35941242  -0.0000241785  0.000075  0.000125  0.000433  0.000008
  8   -328.35941313  -0.0000007053  0.000032  0.000047  0.000203  0.000003
  9   -328.35941326  -0.0000001312  0.000011  0.000012  0.000045  0.000001
 10   -328.35941327  -0.0000000106  0.000003  0.000004  0.000024  0.000000
                  ***Gradient check signals convergence***
              ***Rediagonalizing the Fockian in SOSCF/NRSCF***

               *****************************************************
               *                     SUCCESS                       *
               *           SCF CONVERGED AFTER  11 CYCLES          *
               *****************************************************


----------------
TOTAL SCF ENERGY
----------------

Total Energy       :         -328.35941327 Eh           -8935.11389 eV

Components:
Nuclear Repulsion  :          419.98845598 Eh           11428.46690 eV
Electronic Energy  :         -748.34786925 Eh          -20363.58079 eV
One Electron Energy:        -1276.60688388 Eh          -34738.23937 eV
Two Electron Energy:          528.25901463 Eh           14374.65858 eV

Virial components:
Potential Energy   :         -656.12000059 Eh          -17853.93289 eV
Kinetic Energy     :          327.76058732 Eh            8918.81901 eV
Virial Ratio       :            2.00182702


---------------
SCF CONVERGENCE
---------------

  Last Energy change         ...   -1.2353e-09  Tolerance :   1.0000e-08
  Last MAX-Density change    ...    7.1158e-06  Tolerance :   1.0000e-07
  Last RMS-Density change    ...    1.1259e-07  Tolerance :   5.0000e-09
  Last Orbital Gradient      ...    1.1574e-06  Tolerance :   1.0000e-05
  Last Orbital Rotation      ...    2.6403e-06  Tolerance :   1.0000e-05

             **** THE GBW FILE WAS UPDATED (N_2_dimethylpiperidine_eq_ax.gbw) ****
             **** DENSITY FILE WAS UPDATED (N_2_dimethylpiperidine_eq_ax.scfp.tmp) ****
             **** ENERGY FILE WAS UPDATED (N_2_dimethylpiperidine_eq_ax.en.tmp) ****
----------------
ORBITAL ENERGIES
----------------

  NO   OCC          E(Eh)            E(eV) 
   0   2.0000     -15.535142      -422.7327 
   1   2.0000     -11.249502      -306.1145 
   2   2.0000     -11.240967      -305.8823 
   3   2.0000     -11.237348      -305.7838 
   4   2.0000     -11.215466      -305.1883 
   5   2.0000     -11.213692      -305.1401 
   6   2.0000     -11.212884      -305.1181 
   7   2.0000     -11.208611      -305.0018 
   8   2.0000      -1.220547       -33.2128 
   9   2.0000      -1.064026       -28.9536 
  10   2.0000      -1.028958       -27.9994 
  11   2.0000      -0.947322       -25.7779 
  12   2.0000      -0.910295       -24.7704 
  13   2.0000      -0.836106       -22.7516 
  14   2.0000      -0.818066       -22.2607 
  15   2.0000      -0.722211       -19.6523 
  16   2.0000      -0.658346       -17.9145 
  17   2.0000      -0.627324       -17.0704 
  18   2.0000      -0.617824       -16.8119 
  19   2.0000      -0.599920       -16.3247 
  20   2.0000      -0.571238       -15.5442 
  21   2.0000      -0.560506       -15.2522 
  22   2.0000      -0.545387       -14.8407 
  23   2.0000      -0.538585       -14.6556 
  24   2.0000      -0.525405       -14.2970 
  25   2.0000      -0.505139       -13.7455 
  26   2.0000      -0.491523       -13.3750 
  27   2.0000      -0.476360       -12.9624 
  28   2.0000      -0.454945       -12.3797 
  29   2.0000      -0.438273       -11.9260 
  30   2.0000      -0.432511       -11.7692 
  31   2.0000      -0.340023        -9.2525 
  32   0.0000       0.136848         3.7238 
  33   0.0000       0.159347         4.3360 
  34   0.0000       0.162467         4.4209 
  35   0.0000       0.164544         4.4775 
  36   0.0000       0.192714         5.2440 
  37   0.0000       0.200115         5.4454 
  38   0.0000       0.203079         5.5261 
  39   0.0000       0.217149         5.9089 
  40   0.0000       0.218636         5.9494 
  41   0.0000       0.235637         6.4120 
  42   0.0000       0.241427         6.5696 
  43   0.0000       0.247828         6.7437 
  44   0.0000       0.264346         7.1932 
  45   0.0000       0.270143         7.3510 
  46   0.0000       0.278343         7.5741 
  47   0.0000       0.297343         8.0911 
  48   0.0000       0.320312         8.7161 
  49   0.0000       0.337174         9.1750 
  50   0.0000       0.357416         9.7258 
  51   0.0000       0.364510         9.9188 
  52   0.0000       0.373883        10.1739 
  53   0.0000       0.379595        10.3293 
  54   0.0000       0.390280        10.6201 
  55   0.0000       0.393279        10.7017 
  56   0.0000       0.425542        11.5796 
  57   0.0000       0.436119        11.8674 
  58   0.0000       0.442717        12.0469 
  59   0.0000       0.455144        12.3851 
  60   0.0000       0.474645        12.9157 
  61   0.0000       0.491888        13.3850 
  62   0.0000       0.513356        13.9691 
  63   0.0000       0.518606        14.1120 
  64   0.0000       0.519949        14.1485 
  65   0.0000       0.563893        15.3443 
  66   0.0000       0.569193        15.4885 
  67   0.0000       0.584399        15.9023 
  68   0.0000       0.593755        16.1569 
  69   0.0000       0.600450        16.3391 
  70   0.0000       0.606605        16.5066 
  71   0.0000       0.609691        16.5905 
  72   0.0000       0.619779        16.8651 
  73   0.0000       0.627500        17.0752 
  74   0.0000       0.633143        17.2287 
  75   0.0000       0.638946        17.3866 
  76   0.0000       0.639637        17.4054 
  77   0.0000       0.651936        17.7401 
  78   0.0000       0.652678        17.7603 
  79   0.0000       0.665076        18.0976 
  80   0.0000       0.668797        18.1989 
  81   0.0000       0.672487        18.2993 
  82   0.0000       0.683489        18.5987 
  83   0.0000       0.691036        18.8041 
  84   0.0000       0.695421        18.9234 
  85   0.0000       0.696670        18.9574 
  86   0.0000       0.708000        19.2657 
  87   0.0000       0.714298        19.4370 
  88   0.0000       0.723001        19.6739 
  89   0.0000       0.750760        20.4292 
  90   0.0000       0.758241        20.6328 
  91   0.0000       0.775701        21.1079 
  92   0.0000       0.809828        22.0366 
  93   0.0000       0.821609        22.3571 
  94   0.0000       0.871495        23.7146 
  95   0.0000       0.882597        24.0167 
  96   0.0000       0.885268        24.0894 
  97   0.0000       0.907539        24.6954 
  98   0.0000       0.947582        25.7850 
  99   0.0000       0.960098        26.1256 
 100   0.0000       0.977214        26.5913 
 101   0.0000       0.990072        26.9412 
 102   0.0000       1.002995        27.2929 
 103   0.0000       1.012822        27.5603 
 104   0.0000       1.016230        27.6530 
 105   0.0000       1.028586        27.9892 
 106   0.0000       1.056301        28.7434 
 107   0.0000       1.078613        29.3506 
 108   0.0000       1.092591        29.7309 
 109   0.0000       1.108207        30.1558 
 110   0.0000       1.122649        30.5488 
 111   0.0000       1.129628        30.7387 
 112   0.0000       1.143594        31.1188 
 113   0.0000       1.161977        31.6190 
 114   0.0000       1.169965        31.8364 
 115   0.0000       1.189683        32.3729 
 116   0.0000       1.203718        32.7548 
 117   0.0000       1.216026        33.0898 
 118   0.0000       1.218849        33.1666 
 119   0.0000       1.226343        33.3705 
 120   0.0000       1.229172        33.4475 
 121   0.0000       1.237962        33.6867 
 122   0.0000       1.264469        34.4080 
 123   0.0000       1.270752        34.5789 
 124   0.0000       1.279383        34.8138 
 125   0.0000       1.299981        35.3743 
 126   0.0000       1.310775        35.6680 
 127   0.0000       1.321794        35.9678 
 128   0.0000       1.333519        36.2869 
 129   0.0000       1.340574        36.4789 
 130   0.0000       1.345095        36.6019 
 131   0.0000       1.364470        37.1291 
 132   0.0000       1.375221        37.4217 
 133   0.0000       1.389317        37.8052 
 134   0.0000       1.394512        37.9466 
 135   0.0000       1.401934        38.1486 
 136   0.0000       1.409397        38.3516 
 137   0.0000       1.426657        38.8213 
 138   0.0000       1.432525        38.9810 
 139   0.0000       1.437510        39.1166 
 140   0.0000       1.455213        39.5984 
 141   0.0000       1.472058        40.0567 
 142   0.0000       1.480413        40.2841 
 143   0.0000       1.490026        40.5457 
 144   0.0000       1.498687        40.7814 
 145   0.0000       1.516514        41.2665 
 146   0.0000       1.522574        41.4313 
 147   0.0000       1.532209        41.6935 
 148   0.0000       1.547865        42.1195 
 149   0.0000       1.551131        42.2084 
 150   0.0000       1.559229        42.4288 
 151   0.0000       1.566289        42.6209 
 152   0.0000       1.590386        43.2766 
 153   0.0000       1.597270        43.4639 
 154   0.0000       1.600977        43.5648 
 155   0.0000       1.613370        43.9020 
 156   0.0000       1.625833        44.2412 
 157   0.0000       1.634210        44.4691 
 158   0.0000       1.645479        44.7758 
 159   0.0000       1.655044        45.0360 
 160   0.0000       1.670857        45.4663 
 161   0.0000       1.687233        45.9119 
 162   0.0000       1.691383        46.0249 
 163   0.0000       1.707765        46.4706 
 164   0.0000       1.710195        46.5368 
 165   0.0000       1.720038        46.8046 
 166   0.0000       1.738326        47.3023 
 167   0.0000       1.759250        47.8716 
 168   0.0000       1.781780        48.4847 
 169   0.0000       1.786984        48.6263 
 170   0.0000       1.803638        49.0795 
 171   0.0000       1.818003        49.4704 
 172   0.0000       1.839062        50.0434 
 173   0.0000       1.858653        50.5765 
 174   0.0000       1.877737        51.0958 
 175   0.0000       1.902665        51.7742 
 176   0.0000       1.924945        52.3804 
 177   0.0000       1.969446        53.5914 
 178   0.0000       1.981505        53.9195 
 179   0.0000       2.012977        54.7759 
 180   0.0000       2.021309        55.0026 
 181   0.0000       2.099178        57.1215 
 182   0.0000       2.165601        58.9290 
 183   0.0000       2.193128        59.6780 
 184   0.0000       2.232271        60.7432 
 185   0.0000       2.270490        61.7832 
 186   0.0000       2.321629        63.1747 
 187   0.0000       2.536828        69.0306 
 188   0.0000       2.562850        69.7387 
 189   0.0000       2.606382        70.9233 
 190   0.0000       2.619493        71.2800 
 191   0.0000       2.657480        72.3137 
 192   0.0000       2.679070        72.9012 
 193   0.0000       2.680280        72.9341 
 194   0.0000       2.712166        73.8018 
 195   0.0000       2.738604        74.5212 
 196   0.0000       2.777229        75.5722 
 197   0.0000       2.779445        75.6325 
 198   0.0000       2.802059        76.2479 
 199   0.0000       2.809754        76.4573 
 200   0.0000       2.829620        76.9979 
 201   0.0000       2.838762        77.2466 
 202   0.0000       2.860574        77.8402 
 203   0.0000       2.884225        78.4838 
 204   0.0000       2.891821        78.6904 
 205   0.0000       2.913034        79.2677 
 206   0.0000       2.931513        79.7705 
 207   0.0000       2.937393        79.9305 
 208   0.0000       2.949073        80.2484 
 209   0.0000       2.971604        80.8614 
 210   0.0000       2.976116        80.9842 
 211   0.0000       2.984731        81.2187 
 212   0.0000       2.996639        81.5427 
 213   0.0000       3.008447        81.8640 
 214   0.0000       3.021039        82.2066 
 215   0.0000       3.033647        82.5497 
 216   0.0000       3.042862        82.8005 
 217   0.0000       3.048168        82.9449 
 218   0.0000       3.055968        83.1571 
 219   0.0000       3.082362        83.8753 
 220   0.0000       3.092799        84.1593 
 221   0.0000       3.101447        84.3947 
 222   0.0000       3.106980        84.5452 
 223   0.0000       3.128460        85.1297 
 224   0.0000       3.136741        85.3551 
 225   0.0000       3.161779        86.0364 
 226   0.0000       3.175537        86.4107 
 227   0.0000       3.186191        86.7007 
 228   0.0000       3.194062        86.9148 
 229   0.0000       3.215899        87.5091 
 230   0.0000       3.237444        88.0953 
 231   0.0000       3.243593        88.2626 
 232   0.0000       3.268492        88.9402 
 233   0.0000       3.293107        89.6100 
 234   0.0000       3.295477        89.6745 
 235   0.0000       3.306653        89.9786 
 236   0.0000       3.324161        90.4550 
 237   0.0000       3.327291        90.5402 
 238   0.0000       3.335993        90.7770 
 239   0.0000       3.352883        91.2366 
 240   0.0000       3.359127        91.4065 
 241   0.0000       3.360572        91.4458 
 242   0.0000       3.377497        91.9064 
 243   0.0000       3.382381        92.0393 
 244   0.0000       3.387123        92.1683 
 245   0.0000       3.410429        92.8025 
 246   0.0000       3.418630        93.0256 
 247   0.0000       3.424099        93.1745 
 248   0.0000       3.444271        93.7234 
 249   0.0000       3.450818        93.9015 
 250   0.0000       3.462985        94.2326 
 251   0.0000       3.467719        94.3614 
 252   0.0000       3.477704        94.6331 
 253   0.0000       3.486952        94.8848 
 254   0.0000       3.502272        95.3017 
 255   0.0000       3.509822        95.5071 
 256   0.0000       3.512083        95.5686 
 257   0.0000       3.522905        95.8631 
 258   0.0000       3.535720        96.2118 
 259   0.0000       3.548113        96.5491 
 260   0.0000       3.556694        96.7826 
 261   0.0000       3.572872        97.2228 
 262   0.0000       3.591361        97.7259 
 263   0.0000       3.595875        97.8487 
 264   0.0000       3.613285        98.3225 
 265   0.0000       3.624125        98.6175 
 266   0.0000       3.642917        99.1288 
 267   0.0000       3.647462        99.2525 
 268   0.0000       3.663217        99.6812 
 269   0.0000       3.677860       100.0797 
 270   0.0000       3.690081       100.4122 
 271   0.0000       3.700412       100.6933 
 272   0.0000       3.714831       101.0857 
 273   0.0000       3.730474       101.5114 
 274   0.0000       3.739893       101.7677 
 275   0.0000       3.745692       101.9254 
 276   0.0000       3.754083       102.1538 
 277   0.0000       3.772785       102.6627 
 278   0.0000       3.779160       102.8362 
 279   0.0000       3.797291       103.3295 
 280   0.0000       3.808831       103.6436 
 281   0.0000       3.812287       103.7376 
 282   0.0000       3.825906       104.1082 
 283   0.0000       3.835898       104.3801 
 284   0.0000       3.848277       104.7169 
 285   0.0000       3.858290       104.9894 
 286   0.0000       3.877353       105.5081 
 287   0.0000       3.894939       105.9867 
 288   0.0000       3.906032       106.2885 
 289   0.0000       3.927410       106.8703 
 290   0.0000       3.939895       107.2100 
 291   0.0000       3.950916       107.5099 
 292   0.0000       3.971922       108.0815 
 293   0.0000       3.983167       108.3875 
 294   0.0000       3.994983       108.7090 
 295   0.0000       4.004481       108.9675 
 296   0.0000       4.021806       109.4389 
 297   0.0000       4.028568       109.6229 
 298   0.0000       4.036287       109.8329 
 299   0.0000       4.040296       109.9420 
 300   0.0000       4.055928       110.3674 
 301   0.0000       4.069428       110.7348 
 302   0.0000       4.076190       110.9188 
 303   0.0000       4.082740       111.0970 
 304   0.0000       4.108219       111.7903 
 305   0.0000       4.128296       112.3366 
 306   0.0000       4.134375       112.5021 
 307   0.0000       4.143909       112.7615 
 308   0.0000       4.155126       113.0667 
 309   0.0000       4.173440       113.5651 
 310   0.0000       4.183063       113.8269 
 311   0.0000       4.190496       114.0292 
 312   0.0000       4.200004       114.2879 
 313   0.0000       4.231492       115.1448 
 314   0.0000       4.237488       115.3079 
 315   0.0000       4.247039       115.5678 
 316   0.0000       4.258400       115.8770 
 317   0.0000       4.280151       116.4688 
 318   0.0000       4.285928       116.6260 
 319   0.0000       4.293117       116.8217 
 320   0.0000       4.302391       117.0740 
 321   0.0000       4.320371       117.5633 
 322   0.0000       4.335705       117.9805 
 323   0.0000       4.347723       118.3076 
 324   0.0000       4.353617       118.4679 
 325   0.0000       4.361201       118.6743 
 326   0.0000       4.378916       119.1564 
 327   0.0000       4.388014       119.4039 
 328   0.0000       4.396760       119.6419 
 329   0.0000       4.409420       119.9864 
 330   0.0000       4.430075       120.5485 
 331   0.0000       4.438349       120.7736 
 332   0.0000       4.440735       120.8385 
 333   0.0000       4.444950       120.9532 
 334   0.0000       4.465859       121.5222 
 335   0.0000       4.487363       122.1074 
 336   0.0000       4.495637       122.3325 
 337   0.0000       4.502798       122.5274 
 338   0.0000       4.521834       123.0454 
 339   0.0000       4.527513       123.1999 
 340   0.0000       4.531309       123.3032 
 341   0.0000       4.550540       123.8265 
 342   0.0000       4.555742       123.9680 
 343   0.0000       4.565294       124.2280 
 344   0.0000       4.576767       124.5402 
 345   0.0000       4.591126       124.9309 
 346   0.0000       4.607876       125.3867 
 347   0.0000       4.617693       125.6538 
 348   0.0000       4.621689       125.7625 
 349   0.0000       4.632119       126.0464 
 350   0.0000       4.670194       127.0824 
 351   0.0000       4.677991       127.2946 
 352   0.0000       4.688029       127.5678 
 353   0.0000       4.703043       127.9763 
 354   0.0000       4.715317       128.3103 
 355   0.0000       4.732730       128.7841 
 356   0.0000       4.752188       129.3136 
 357   0.0000       4.765302       129.6705 
 358   0.0000       4.776939       129.9871 
 359   0.0000       4.801733       130.6618 
 360   0.0000       4.809533       130.8740 
 361   0.0000       4.826690       131.3409 
 362   0.0000       4.851792       132.0240 
 363   0.0000       4.864283       132.3639 
 364   0.0000       4.876412       132.6939 
 365   0.0000       4.907719       133.5458 
 366   0.0000       4.932299       134.2147 
 367   0.0000       4.982477       135.5801 
 368   0.0000       5.008959       136.3007 
 369   0.0000       5.027665       136.8097 
 370   0.0000       5.058345       137.6446 
 371   0.0000       5.079104       138.2095 
 372   0.0000       5.086244       138.4037 
 373   0.0000       5.123689       139.4227 
 374   0.0000       5.125472       139.4712 
 375   0.0000       5.144891       139.9996 
 376   0.0000       5.176613       140.8628 
 377   0.0000       5.181275       140.9897 
 378   0.0000       5.192270       141.2888 
 379   0.0000       5.209910       141.7689 
 380   0.0000       5.224067       142.1541 
 381   0.0000       5.246399       142.7618 
 382   0.0000       5.266467       143.3079 
 383   0.0000       5.282683       143.7491 
 384   0.0000       5.291770       143.9964 
 385   0.0000       5.325528       144.9150 
 386   0.0000       5.332227       145.0973 
 387   0.0000       5.348127       145.5299 
 388   0.0000       5.367869       146.0671 
 389   0.0000       5.388463       146.6275 
 390   0.0000       5.396525       146.8469 
 391   0.0000       5.417157       147.4083 
 392   0.0000       5.432190       147.8174 
 393   0.0000       5.470306       148.8546 
 394   0.0000       5.481398       149.1564 
 395   0.0000       5.489301       149.3715 
 396   0.0000       5.523234       150.2948 
 397   0.0000       5.547078       150.9437 
 398   0.0000       5.548009       150.9690 
 399   0.0000       5.560642       151.3128 
 400   0.0000       5.575249       151.7102 
 401   0.0000       5.576596       151.7469 
 402   0.0000       5.596535       152.2895 
 403   0.0000       5.613482       152.7506 
 404   0.0000       5.622547       152.9973 
 405   0.0000       5.654681       153.8717 
 406   0.0000       5.672143       154.3469 
 407   0.0000       5.684447       154.6817 
 408   0.0000       5.713425       155.4702 
 409   0.0000       5.722544       155.7183 
 410   0.0000       5.729712       155.9134 
 411   0.0000       5.736222       156.0905 
 412   0.0000       5.764763       156.8672 
 413   0.0000       5.788994       157.5265 
 414   0.0000       5.799489       157.8121 
 415   0.0000       5.809027       158.0716 
 416   0.0000       5.830266       158.6496 
 417   0.0000       5.858330       159.4133 
 418   0.0000       5.873305       159.8208 
 419   0.0000       5.897691       160.4843 
 420   0.0000       5.910795       160.8409 
 421   0.0000       5.927337       161.2910 
 422   0.0000       5.966399       162.3540 
 423   0.0000       6.008538       163.5006 
 424   0.0000       6.041653       164.4017 
 425   0.0000       6.067216       165.0973 
 426   0.0000       6.106988       166.1796 
 427   0.0000       6.126902       166.7215 
 428   0.0000       6.146298       167.2493 
 429   0.0000       6.255382       170.2176 
 430   0.0000       6.303206       171.5189 
 431   0.0000       6.318444       171.9336 
 432   0.0000       6.363652       173.1638 
 433   0.0000       6.371321       173.3725 
 434   0.0000       6.401372       174.1902 
 435   0.0000       6.409250       174.4046 
 436   0.0000       6.419284       174.6776 
 437   0.0000       6.432158       175.0279 
 438   0.0000       6.472804       176.1340 
 439   0.0000       6.499328       176.8557 
 440   0.0000       6.541177       177.9945 
 441   0.0000       6.555589       178.3866 
 442   0.0000      11.070512       301.2439 
 443   0.0000      12.635894       343.8402 
 444   0.0000      12.963877       352.7650 
 445   0.0000      13.385334       364.2334 
 446   0.0000      13.572517       369.3270 
 447   0.0000      13.663137       371.7929 
 448   0.0000      14.170222       385.5913 
 449   0.0000      14.340218       390.2172 

                    ********************************
                    * MULLIKEN POPULATION ANALYSIS *
                    ********************************

-----------------------
MULLIKEN ATOMIC CHARGES
-----------------------
   0 C :   -0.211829
   1 C :   -0.187563
   2 C :    0.007013
   3 N :   -0.240689
   4 C :   -0.083998
   5 C :   -0.180080
   6 C :   -0.320431
   7 C :   -0.198886
   8 H :    0.104507
   9 H :    0.064396
  10 H :    0.099320
  11 H :    0.098241
  12 H :    0.099811
  13 H :    0.102339
  14 H :    0.087816
  15 H :    0.093247
  16 H :    0.111812
  17 H :    0.061616
  18 H :    0.098197
  19 H :    0.092435
  20 H :    0.105324
  21 H :    0.103725
  22 H :    0.093677
Sum of atomic charges:   -0.0000000

--------------------------------
MULLIKEN REDUCED ORBITAL CHARGES
--------------------------------
  0 C s       :     3.217878  s :     3.217878
      pz      :     0.980033  p :     2.871377
      px      :     0.994853
      py      :     0.896491
      dz2     :     0.028762  d :     0.115864
      dxz     :     0.012223
      dyz     :     0.024457
      dx2y2   :     0.032254
      dxy     :     0.018169
      f0      :     0.001011  f :     0.006711
      f+1     :     0.000534
      f-1     :     0.001103
      f+2     :     0.000907
      f-2     :     0.000754
      f+3     :     0.001326
      f-3     :     0.001078
  1 C s       :     3.210007  s :     3.210007
      pz      :     0.982830  p :     2.860087
      px      :     0.885316
      py      :     0.991940
      dz2     :     0.031665  d :     0.110768
      dxz     :     0.019726
      dyz     :     0.012389
      dx2y2   :     0.030245
      dxy     :     0.016744
      f0      :     0.000918  f :     0.006702
      f+1     :     0.000842
      f-1     :     0.000957
      f+2     :     0.000969
      f-2     :     0.000725
      f+3     :     0.001279
      f-3     :     0.001011
  2 C s       :     3.148852  s :     3.148852
      pz      :     0.940035  p :     2.658325
      px      :     0.932172
      py      :     0.786118
      dz2     :     0.026767  d :     0.174886
      dxz     :     0.028604
      dyz     :     0.047093
      dx2y2   :     0.039398
      dxy     :     0.033024
      f0      :     0.001484  f :     0.010925
      f+1     :     0.001239
      f-1     :     0.001694
      f+2     :     0.001859
      f-2     :     0.000821
      f+3     :     0.001832
      f-3     :     0.001995
  3 N s       :     3.427874  s :     3.427874
      pz      :     1.576631  p :     3.731122
      px      :     1.050443
      py      :     1.104048
      dz2     :     0.010147  d :     0.077081
      dxz     :     0.012919
      dyz     :     0.012062
      dx2y2   :     0.025633
      dxy     :     0.016320
      f0      :     0.000586  f :     0.004611
      f+1     :     0.000691
      f-1     :     0.000684
      f+2     :     0.000550
      f-2     :     0.000517
      f+3     :     0.000805
      f-3     :     0.000778
  4 C s       :     3.188527  s :     3.188527
      pz      :     0.895414  p :     2.738784
      px      :     0.880693
      py      :     0.962677
      dz2     :     0.048860  d :     0.147134
      dxz     :     0.022455
      dyz     :     0.015968
      dx2y2   :     0.029796
      dxy     :     0.030054
      f0      :     0.001402  f :     0.009553
      f+1     :     0.001418
      f-1     :     0.001689
      f+2     :     0.001172
      f-2     :     0.001083
      f+3     :     0.001519
      f-3     :     0.001271
  5 C s       :     3.211470  s :     3.211470
      pz      :     1.012600  p :     2.852153
      px      :     0.906642
      py      :     0.932911
      dz2     :     0.019794  d :     0.109857
      dxz     :     0.017340
      dyz     :     0.027302
      dx2y2   :     0.022621
      dxy     :     0.022801
      f0      :     0.000756  f :     0.006600
      f+1     :     0.000773
      f-1     :     0.001107
      f+2     :     0.000818
      f-2     :     0.000369
      f+3     :     0.001503
      f-3     :     0.001274
  6 C s       :     3.264074  s :     3.264074
      pz      :     0.960017  p :     2.971471
      px      :     1.015209
      py      :     0.996246
      dz2     :     0.019886  d :     0.080147
      dxz     :     0.017969
      dyz     :     0.012994
      dx2y2   :     0.022866
      dxy     :     0.006432
      f0      :     0.000531  f :     0.004738
      f+1     :     0.000767
      f-1     :     0.001225
      f+2     :     0.000698
      f-2     :     0.000472
      f+3     :     0.000676
      f-3     :     0.000370
  7 C s       :     3.244674  s :     3.244674
      pz      :     0.995261  p :     2.839425
      px      :     0.805357
      py      :     1.038807
      dz2     :     0.016469  d :     0.107239
      dxz     :     0.031112
      dyz     :     0.009915
      dx2y2   :     0.026832
      dxy     :     0.022911
      f0      :     0.001251  f :     0.007548
      f+1     :     0.001216
      f-1     :     0.000560
      f+2     :     0.001365
      f-2     :     0.000204
      f+3     :     0.001516
      f-3     :     0.001437
  8 H s       :     0.863252  s :     0.863252
      pz      :     0.011173  p :     0.029379
      px      :     0.010551
      py      :     0.007655
      dz2     :     0.000879  d :     0.002863
      dxz     :     0.000471
      dyz     :     0.000607
      dx2y2   :     0.000573
      dxy     :     0.000332
  9 H s       :     0.908739  s :     0.908739
      pz      :     0.010575  p :     0.024509
      px      :     0.007771
      py      :     0.006163
      dz2     :     0.000815  d :     0.002356
      dxz     :     0.000831
      dyz     :     0.000571
      dx2y2   :     0.000106
      dxy     :     0.000033
 10 H s       :     0.871315  s :     0.871315
      pz      :     0.006833  p :     0.026869
      px      :     0.009233
      py      :     0.010802
      dz2     :     0.000326  d :     0.002497
      dxz     :     0.000061
      dyz     :     0.000557
      dx2y2   :     0.000773
      dxy     :     0.000779
 11 H s       :     0.870732  s :     0.870732
      pz      :     0.012573  p :     0.028529
      px      :     0.008819
      py      :     0.007136
      dz2     :     0.000819  d :     0.002499
      dxz     :     0.000892
      dyz     :     0.000583
      dx2y2   :     0.000129
      dxy     :     0.000076
 12 H s       :     0.868107  s :     0.868107
      pz      :     0.007960  p :     0.029616
      px      :     0.009962
      py      :     0.011695
      dz2     :     0.000215  d :     0.002466
      dxz     :     0.000051
      dyz     :     0.000676
      dx2y2   :     0.000659
      dxy     :     0.000864
 13 H s       :     0.865872  s :     0.865872
      pz      :     0.007711  p :     0.029340
      px      :     0.010637
      py      :     0.010992
      dz2     :     0.000552  d :     0.002449
      dxz     :     0.000386
      dyz     :     0.000463
      dx2y2   :     0.000690
      dxy     :     0.000358
 14 H s       :     0.881823  s :     0.881823
      pz      :     0.009911  p :     0.027898
      px      :     0.008335
      py      :     0.009652
      dz2     :     0.000634  d :     0.002463
      dxz     :     0.000734
      dyz     :     0.000695
      dx2y2   :     0.000256
      dxy     :     0.000143
 15 H s       :     0.876186  s :     0.876186
      pz      :     0.010854  p :     0.028145
      px      :     0.007904
      py      :     0.009387
      dz2     :     0.000752  d :     0.002421
      dxz     :     0.000654
      dyz     :     0.000747
      dx2y2   :     0.000178
      dxy     :     0.000090
 16 H s       :     0.857433  s :     0.857433
      pz      :     0.007193  p :     0.028327
      px      :     0.012157
      py      :     0.008977
      dz2     :     0.000347  d :     0.002428
      dxz     :     0.000576
      dyz     :     0.000076
      dx2y2   :     0.000536
      dxy     :     0.000894
 17 H s       :     0.914738  s :     0.914738
      pz      :     0.008477  p :     0.021568
      px      :     0.006357
      py      :     0.006734
      dz2     :     0.000655  d :     0.002077
      dxz     :     0.000691
      dyz     :     0.000481
      dx2y2   :     0.000184
      dxy     :     0.000067
 18 H s       :     0.875212  s :     0.875212
      pz      :     0.008196  p :     0.024388
      px      :     0.005690
      py      :     0.010502
      dz2     :     0.000290  d :     0.002202
      dxz     :     0.000067
      dyz     :     0.000538
      dx2y2   :     0.000579
      dxy     :     0.000728
 19 H s       :     0.880766  s :     0.880766
      pz      :     0.008512  p :     0.024612
      px      :     0.007532
      py      :     0.008568
      dz2     :     0.000489  d :     0.002188
      dxz     :     0.000479
      dyz     :     0.000388
      dx2y2   :     0.000468
      dxy     :     0.000364
 20 H s       :     0.865701  s :     0.865701
      pz      :     0.008937  p :     0.026808
      px      :     0.009754
      py      :     0.008117
      dz2     :     0.000216  d :     0.002168
      dxz     :     0.000785
      dyz     :     0.000050
      dx2y2   :     0.000496
      dxy     :     0.000621
 21 H s       :     0.867024  s :     0.867024
      pz      :     0.008834  p :     0.027048
      px      :     0.007635
      py      :     0.010580
      dz2     :     0.000193  d :     0.002203
      dxz     :     0.000038
      dyz     :     0.000809
      dx2y2   :     0.000616
      dxy     :     0.000547
 22 H s       :     0.877263  s :     0.877263
      pz      :     0.010891  p :     0.026871
      px      :     0.008052
      py      :     0.007928
      dz2     :     0.000844  d :     0.002189
      dxz     :     0.000463
      dyz     :     0.000443
      dx2y2   :     0.000250
      dxy     :     0.000188


                     *******************************
                     * LOEWDIN POPULATION ANALYSIS *
                     *******************************

----------------------
LOEWDIN ATOMIC CHARGES
----------------------
   0 C :    0.055066
   1 C :    0.062696
   2 C :   -0.086263
   3 N :    0.247974
   4 C :   -0.017155
   5 C :    0.056630
   6 C :    0.107029
   7 C :    0.031945
   8 H :   -0.023890
   9 H :   -0.043103
  10 H :   -0.026874
  11 H :   -0.023172
  12 H :   -0.026456
  13 H :   -0.027070
  14 H :   -0.025206
  15 H :   -0.029721
  16 H :   -0.026937
  17 H :   -0.047526
  18 H :   -0.031761
  19 H :   -0.030908
  20 H :   -0.031851
  21 H :   -0.027551
  22 H :   -0.035895

-------------------------------
LOEWDIN REDUCED ORBITAL CHARGES
-------------------------------
  0 C s       :     2.658791  s :     2.658791
      pz      :     0.957026  p :     2.822323
      px      :     0.947428
      py      :     0.917870
      dz2     :     0.098943  d :     0.423796
      dxz     :     0.046594
      dyz     :     0.090948
      dx2y2   :     0.115994
      dxy     :     0.071316
      f0      :     0.005588  f :     0.040024
      f+1     :     0.003598
      f-1     :     0.005898
      f+2     :     0.006429
      f-2     :     0.005125
      f+3     :     0.007027
      f-3     :     0.006359
  1 C s       :     2.660187  s :     2.660187
      pz      :     0.952829  p :     2.819490
      px      :     0.913247
      py      :     0.953415
      dz2     :     0.111048  d :     0.418101
      dxz     :     0.075542
      dyz     :     0.045123
      dx2y2   :     0.113421
      dxy     :     0.072967
      f0      :     0.004735  f :     0.039526
      f+1     :     0.005619
      f-1     :     0.005297
      f+2     :     0.006297
      f-2     :     0.005135
      f+3     :     0.006251
      f-3     :     0.006193
  2 C s       :     2.669686  s :     2.669686
      pz      :     0.951434  p :     2.742271
      px      :     0.941616
      py      :     0.849221
      dz2     :     0.098288  d :     0.607596
      dxz     :     0.105000
      dyz     :     0.154217
      dx2y2   :     0.142473
      dxy     :     0.107619
      f0      :     0.009240  f :     0.066711
      f+1     :     0.007442
      f-1     :     0.007640
      f+2     :     0.011065
      f-2     :     0.008314
      f+3     :     0.010213
      f-3     :     0.012796
  3 N s       :     2.900751  s :     2.900751
      pz      :     1.409472  p :     3.565815
      px      :     1.065366
      py      :     1.090977
      dz2     :     0.037181  d :     0.267834
      dxz     :     0.041836
      dyz     :     0.039606
      dx2y2   :     0.082526
      dxy     :     0.066685
      f0      :     0.001842  f :     0.017626
      f+1     :     0.001857
      f-1     :     0.001644
      f+2     :     0.003331
      f-2     :     0.001773
      f+3     :     0.003134
      f-3     :     0.004045
  4 C s       :     2.668205  s :     2.668205
      pz      :     0.927453  p :     2.766118
      px      :     0.909852
      py      :     0.928814
      dz2     :     0.170126  d :     0.524666
      dxz     :     0.088682
      dyz     :     0.056812
      dx2y2   :     0.110951
      dxy     :     0.098094
      f0      :     0.006467  f :     0.058166
      f+1     :     0.009285
      f-1     :     0.009048
      f+2     :     0.008345
      f-2     :     0.008999
      f+3     :     0.008020
      f-3     :     0.008000
  5 C s       :     2.661072  s :     2.661072
      pz      :     0.970986  p :     2.822824
      px      :     0.923253
      py      :     0.928585
      dz2     :     0.069152  d :     0.419623
      dxz     :     0.067738
      dyz     :     0.092099
      dx2y2   :     0.096155
      dxy     :     0.094479
      f0      :     0.004313  f :     0.039851
      f+1     :     0.004681
      f-1     :     0.004919
      f+2     :     0.005410
      f-2     :     0.004892
      f+3     :     0.006781
      f-3     :     0.008855
  6 C s       :     2.664515  s :     2.664515
      pz      :     0.951042  p :     2.893582
      px      :     0.976906
      py      :     0.965634
      dz2     :     0.079781  d :     0.306520
      dxz     :     0.066491
      dyz     :     0.054788
      dx2y2   :     0.083095
      dxy     :     0.022365
      f0      :     0.004172  f :     0.028354
      f+1     :     0.004939
      f-1     :     0.005315
      f+2     :     0.002829
      f-2     :     0.004926
      f+3     :     0.003774
      f-3     :     0.002399
  7 C s       :     2.671671  s :     2.671671
      pz      :     0.989332  p :     2.828458
      px      :     0.845941
      py      :     0.993185
      dz2     :     0.068320  d :     0.420109
      dxz     :     0.135082
      dyz     :     0.034221
      dx2y2   :     0.102745
      dxy     :     0.079740
      f0      :     0.006418  f :     0.047817
      f+1     :     0.006487
      f-1     :     0.002763
      f+2     :     0.008789
      f-2     :     0.005149
      f+3     :     0.008665
      f-3     :     0.009546
  8 H s       :     0.845582  s :     0.845582
      pz      :     0.061263  p :     0.149584
      px      :     0.049801
      py      :     0.038520
      dz2     :     0.008472  d :     0.028724
      dxz     :     0.006057
      dyz     :     0.005991
      dx2y2   :     0.004864
      dxy     :     0.003339
  9 H s       :     0.868398  s :     0.868398
      pz      :     0.074278  p :     0.147926
      px      :     0.036142
      py      :     0.037506
      dz2     :     0.009460  d :     0.026778
      dxz     :     0.008064
      dyz     :     0.007707
      dx2y2   :     0.001105
      dxy     :     0.000443
 10 H s       :     0.851825  s :     0.851825
      pz      :     0.035849  p :     0.147038
      px      :     0.041502
      py      :     0.069687
      dz2     :     0.002977  d :     0.028011
      dxz     :     0.000711
      dyz     :     0.007900
      dx2y2   :     0.008413
      dxy     :     0.008010
 11 H s       :     0.842974  s :     0.842974
      pz      :     0.071033  p :     0.151808
      px      :     0.038966
      py      :     0.041809
      dz2     :     0.009731  d :     0.028391
      dxz     :     0.008420
      dyz     :     0.007966
      dx2y2   :     0.001469
      dxy     :     0.000805
 12 H s       :     0.846354  s :     0.846354
      pz      :     0.039235  p :     0.152001
      px      :     0.041730
      py      :     0.071036
      dz2     :     0.002517  d :     0.028102
      dxz     :     0.000557
      dyz     :     0.008690
      dx2y2   :     0.007847
      dxy     :     0.008491
 13 H s       :     0.846916  s :     0.846916
      pz      :     0.053540  p :     0.152223
      px      :     0.048493
      py      :     0.050191
      dz2     :     0.007545  d :     0.027930
      dxz     :     0.004994
      dyz     :     0.005409
      dx2y2   :     0.005721
      dxy     :     0.004261
 14 H s       :     0.845275  s :     0.845275
      pz      :     0.068604  p :     0.151700
      px      :     0.038943
      py      :     0.044153
      dz2     :     0.008912  d :     0.028232
      dxz     :     0.007745
      dyz     :     0.008072
      dx2y2   :     0.002106
      dxy     :     0.001397
 15 H s       :     0.848195  s :     0.848195
      pz      :     0.069809  p :     0.153469
      px      :     0.039380
      py      :     0.044280
      dz2     :     0.009124  d :     0.028058
      dxz     :     0.008238
      dyz     :     0.008116
      dx2y2   :     0.001507
      dxy     :     0.001073
 16 H s       :     0.845807  s :     0.845807
      pz      :     0.042670  p :     0.153127
      px      :     0.070461
      py      :     0.039996
      dz2     :     0.004030  d :     0.028003
      dxz     :     0.008159
      dyz     :     0.000810
      dx2y2   :     0.006699
      dxy     :     0.008304
 17 H s       :     0.874573  s :     0.874573
      pz      :     0.069775  p :     0.146629
      px      :     0.036429
      py      :     0.040426
      dz2     :     0.008353  d :     0.026323
      dxz     :     0.007362
      dyz     :     0.007705
      dx2y2   :     0.001827
      dxy     :     0.001076
 18 H s       :     0.858858  s :     0.858858
      pz      :     0.041834  p :     0.145553
      px      :     0.032009
      py      :     0.071710
      dz2     :     0.003195  d :     0.027349
      dxz     :     0.000597
      dyz     :     0.008682
      dx2y2   :     0.007091
      dxy     :     0.007784
 19 H s       :     0.857901  s :     0.857901
      pz      :     0.054624  p :     0.145600
      px      :     0.039744
      py      :     0.051233
      dz2     :     0.007442  d :     0.027407
      dxz     :     0.005054
      dyz     :     0.005041
      dx2y2   :     0.005600
      dxy     :     0.004271
 20 H s       :     0.849354  s :     0.849354
      pz      :     0.042259  p :     0.154663
      px      :     0.071330
      py      :     0.041074
      dz2     :     0.002743  d :     0.027835
      dxz     :     0.009174
      dyz     :     0.000473
      dx2y2   :     0.006719
      dxy     :     0.008726
 21 H s       :     0.847424  s :     0.847424
      pz      :     0.040106  p :     0.152283
      px      :     0.041982
      py      :     0.070195
      dz2     :     0.002506  d :     0.027844
      dxz     :     0.000552
      dyz     :     0.008784
      dx2y2   :     0.007766
      dxy     :     0.008237
 22 H s       :     0.852392  s :     0.852392
      pz      :     0.061572  p :     0.155688
      px      :     0.049224
      py      :     0.044892
      dz2     :     0.008738  d :     0.027816
      dxz     :     0.006290
      dyz     :     0.006154
      dx2y2   :     0.004118
      dxy     :     0.002515


                      *****************************
                      * MAYER POPULATION ANALYSIS *
                      *****************************

  NA   - Mulliken gross atomic population
  ZA   - Total nuclear charge
  QA   - Mulliken gross atomic charge
  VA   - Mayer's total valence
  BVA  - Mayer's bonded valence
  FA   - Mayer's free valence

  ATOM       NA         ZA         QA         VA         BVA        FA
  0 C      6.2118     6.0000    -0.2118     3.8736     3.8736    -0.0000
  1 C      6.1876     6.0000    -0.1876     3.8651     3.8651    -0.0000
  2 C      5.9930     6.0000     0.0070     3.9197     3.9197    -0.0000
  3 N      7.2407     7.0000    -0.2407     2.9490     2.9490     0.0000
  4 C      6.0840     6.0000    -0.0840     3.9068     3.9068    -0.0000
  5 C      6.1801     6.0000    -0.1801     3.8739     3.8739    -0.0000
  6 C      6.3204     6.0000    -0.3204     3.8510     3.8510     0.0000
  7 C      6.1989     6.0000    -0.1989     3.9283     3.9283     0.0000
  8 H      0.8955     1.0000     0.1045     0.9815     0.9815     0.0000
  9 H      0.9356     1.0000     0.0644     0.9759     0.9759     0.0000
 10 H      0.9007     1.0000     0.0993     0.9781     0.9781    -0.0000
 11 H      0.9018     1.0000     0.0982     0.9903     0.9903    -0.0000
 12 H      0.9002     1.0000     0.0998     0.9844     0.9844     0.0000
 13 H      0.8977     1.0000     0.1023     0.9831     0.9831     0.0000
 14 H      0.9122     1.0000     0.0878     0.9916     0.9916    -0.0000
 15 H      0.9068     1.0000     0.0932     0.9800     0.9800    -0.0000
 16 H      0.8882     1.0000     0.1118     0.9772     0.9772     0.0000
 17 H      0.9384     1.0000     0.0616     0.9616     0.9616    -0.0000
 18 H      0.9018     1.0000     0.0982     0.9756     0.9756     0.0000
 19 H      0.9076     1.0000     0.0924     0.9764     0.9764    -0.0000
 20 H      0.8947     1.0000     0.1053     0.9779     0.9779     0.0000
 21 H      0.8963     1.0000     0.1037     0.9830     0.9830     0.0000
 22 H      0.9063     1.0000     0.0937     0.9790     0.9790     0.0000

  Mayer bond orders larger than 0.1
B(  0-C ,  1-C ) :   0.9518 B(  0-C ,  5-C ) :   0.9514 B(  0-C , 15-H ) :   0.9844 
B(  0-C , 16-H ) :   0.9931 B(  1-C ,  2-C ) :   0.9549 B(  1-C , 11-H ) :   0.9891 
B(  1-C , 12-H ) :   0.9946 B(  2-C ,  3-N ) :   1.0044 B(  2-C ,  6-C ) :   0.9401 
B(  2-C ,  8-H ) :   0.9951 B(  3-N ,  4-C ) :   0.9742 B(  3-N ,  7-C ) :   0.9930 
B(  4-C ,  5-C ) :   0.9608 B(  4-C ,  9-H ) :   0.9717 B(  4-C , 10-H ) :   0.9904 
B(  5-C , 13-H ) :   0.9942 B(  5-C , 14-H ) :   0.9825 B(  6-C , 20-H ) :   0.9843 
B(  6-C , 21-H ) :   0.9808 B(  6-C , 22-H ) :   0.9768 B(  7-C , 17-H ) :   0.9649 
B(  7-C , 18-H ) :   0.9859 B(  7-C , 19-H ) :   0.9822 

-------
TIMINGS
-------

Total SCF time: 0 days 0 hours 0 min 28 sec 

Total time                  ....      28.572 sec
Sum of individual times     ....      28.126 sec  ( 98.4%)

Fock matrix formation       ....      26.959 sec  ( 94.4%)
Diagonalization             ....       0.195 sec  (  0.7%)
Density matrix formation    ....       0.026 sec  (  0.1%)
Population analysis         ....       0.094 sec  (  0.3%)
Initial guess               ....       0.389 sec  (  1.4%)
Orbital Transformation      ....       0.000 sec  (  0.0%)
Orbital Orthonormalization  ....       0.000 sec  (  0.0%)
DIIS solution               ....       0.000 sec  (  0.0%)
SOSCF solution              ....       0.249 sec  (  0.9%)


           ************************************************************
           *        Program running with 8 parallel MPI-processes     *
           *              working on a common directory               *
           ************************************************************


------------------------------------------------------------------------------- 
                              ORCA-MATRIX DRIVEN CI                            
------------------------------------------------------------------------------- 


Wavefunction type
-----------------
Correlation treatment                      ...      CCSD     
Single excitations                         ... ON
Orbital optimization                       ... OFF
Calculation of Z vector                    ... OFF
Calculation of Brueckner orbitals          ... OFF
Perturbative triple excitations            ... ON
Calculation of F12 correction              ... OFF
Frozen core treatment                      ... chemical core (16 el)
Reference Wavefunction                     ... RHF
  Internal Orbitals:     8 ...   31 ( 24 MO's/ 48 electrons)
  Virtual  Orbitals:    32 ...  449 (418 MO's              )
Number of AO's                             ...    450
Number of electrons                        ...     64
Number of correlated electrons             ...     48

Algorithmic settings
--------------------
Integral transformation                    ... All integrals via the RI transformation
K(C) Formation                             ... RI-DLPNO
   PNO-Integral Storage                    ... ON DISK
   PNO occupation number cut-off           ... 1.000e-07
   Singles PNO occupation number cut-off   ... 3.000e-09
   PNO Mulliken prescreening cut-off       ... 1.000e-03
   Domain cut-off (Mulliken population)    ... 1.000e-03
   PNO Normalization                       ...    1
Maximum number of iterations               ...        50
Convergence tolerance (max. residuum)      ... 1.000e-05
Level shift for amplitude update           ... 2.000e-01
Maximum number of DIIS vectors             ...         7
DIIS turned on at iteration                ...         0
Damping before turning on DIIS             ...     0.500
Damping after turning on DIIS              ...     0.000
Pair specific amplitude update             ... OFF
Natural orbital iterations                 ... OFF
Perturbative natural orbital generation    ... OFF
Printlevel                                 ... 2

Singles Fock matrix elements calculated using PNOs.

Memory handling:
----------------
Maximum memory for working arrays          ...   8000 MB
Data storage in matrix containers          ... UNCOMPRESSED
Data type for integral storage             ... DOUBLE
In-Core Storage of quantities:
   Amplitudes+Sigma Vector      ... NO
   J+K operators                ... NO
   DIIS vectors                 ... NO
   3-external integrals         ... NO
   4-external integrals         ... NO

Localization treatment:
-----------------------
Localization option                        ...    6
Localization threshhold                    ... -1.0e+00
Using relative localization threshhold     ... 1.0e-08
Neglect threshold for strong pairs         ... 1.000e-05 Eh
Prescreening threshold for very weak pairs ... 1.000e-07 Eh

Initializing the integral package          ... done
Localizing the valence orbitals
------------------------------------------------------------------------------
                           ORCA ORBITAL LOCALIZATION
------------------------------------------------------------------------------

Input orbitals are from                  ... N_2_dimethylpiperidine_eq_ax.proc0.gbw
Output orbitals are to                   ... N_2_dimethylpiperidine_eq_ax.proc0.loc
Max. number of iterations                ... 128
Localizations seeded randomly            ... off
Convergence tolerance                    ... 1.000e-06
Using relative localization threshhold   ... 1.000e-08
Treshold for strong local MOs            ... 9.500e-01
Treshold for bond MOs                    ... 8.500e-01
Operator                                 ... 0
Orbital range for localization           ... 8 to 31
Localization criterion                   ... FOSTER-BOYS (AUGMENTED HESSIAN)
Doing the dipole integrals     ... o.k.
Initial value of the localization sum :   283.878855
ITERATION   0 : L=  354.5498316779 DL=  7.07e+01 (AVERGE_DL)=    0.5060180449 
ITERATION   1 : L=  359.4107657558 DL=  4.86e+00 (AVERGE_DL)=    0.1327105120 
ITERATION   2 : L=  359.4625603524 DL=  5.18e-02 (AVERGE_DL)=    0.0136989628 
ITERATION   3 : L=  359.4626061368 DL=  4.58e-05 (AVERGE_DL)=    0.0004072907 
ITERATION   4 : L=  359.4626063695 DL=  2.33e-07 (AVERGE_DL)=    0.0000290326 
LOCALIZATION SUM CONVERGED

------------------------------------------------------
AUGMENTED HESSIAN OPTIMIZATION OF FOSTER-BOYS ORBITALS
------------------------------------------------------

Spin operator:           0
Orbital window:          8 to 31
Number of iterations:    128
Gradient tolerance:      1.000e-06
Number of pairs:         276
Davidson threshold:      2000
Diagonalization method:  LAPACK
Iter:    0   L: 359.4626063695   Grad. norm: 1.356599e-03
   *** Likely close to a maximum now. ***
       Augmented Hessian eigenvalues:  1.33e-08 -6.27e+00 -6.39e+00 -8.99e+00 ... 
Iter:    1   L: 359.4626063761   Grad. norm: 1.456635e-09
LOCALIZATION HAS CONVERGED.

Eigenvalues of the Hessian:
  0 -6.266e+00
  1 -6.386e+00
  2 -8.988e+00
  3 -1.294e+01
  4 -1.658e+01
  5 -1.672e+01
  6 -1.709e+01
  7 -1.756e+01
  8 -1.790e+01
[...]
Number of PAOs:     450
Basis functions:    450 (170 shells)
Aux. functions:    1098 (334 shells)

Processing maps (0.0 sec)
Average map sizes:
   Aux shells -> MOs              24.0
   Aux shells -> PAOs            450.0
   MOs        -> AO shells       167.8
   PAOs       -> AO shells       169.8

Calculating integrals (1.2 sec, 90.485 MB)
Sorting integrals (0.1 sec, 90.473 MB)
Total time for the integral transformation: 1.4 sec
--------------------------------
INITIAL GUESS AND PNO GENERATION
--------------------------------

PNO truncation parameters                   .... 
    ScaleTCutPNO       =        1.000e-02
    PAOOverlapThresh   =        1.000e-08

    TCutPairs          =        1.000e-05
    TCutPNO            =        1.000e-07
    TCutPNOSingles     =        3.000e-09
    TCutMP2Pairs       =        1.000e-06
    TCutMKN            =        1.000e-03
    TCutDO             =        5.000e-03

Pair selection                          .... not used
Type of local MP2 treatment                 .... full local PMP2
Strategy for PNO selection                  .... occupation number selection
Pair density normalization                  .... MP2 norm
Spin component scaling                      .... not used

PASS-1: Formation of initial guess LMP2 amplitudes
Initial amplitudes guess done. Entering LMP2 iteration loop:
   Max. no of iterations          ...  50
   Energy convergence tolerance   ...    1.0e-07
   Residual convergence tolerance ...    5.0e-07
   Fock matrix cutoff             ...    1.0e-05 Eh
   DIIS convergence acceleration parameters:
        Max # vectors in DIIS     ... 7
        Start iteration of DIIS   ... 0
        Levelshift                ... 2.000e-01
        Damping factor 1          ... 5.000e-01
        Damping factor 2          ... 1.000e+00
   L-MP2 PNO cut-off              ...   1.0e-09
   L-MP2 PNO cut-off (core)       ...   1.0e-11
                           *** Turning on DIIS ***
LMP2-Iter=   0:  ELMP2= -1.416123075947  DE=   2.5e-02 RMAX=   3.4e-03
LMP2-Iter=   1:  ELMP2= -1.428814987923  DE=   1.3e-02 RMAX=   1.8e-03
LMP2-Iter=   2:  ELMP2= -1.430708308709  DE=   1.9e-03 RMAX=   2.7e-04
LMP2-Iter=   3:  ELMP2= -1.430871840657  DE=   1.6e-04 RMAX=   1.0e-04
LMP2-Iter=   4:  ELMP2= -1.430875752301  DE=   3.9e-06 RMAX=   2.0e-05
LMP2-Iter=   5:  ELMP2= -1.430874159045  DE=   1.6e-06 RMAX=   6.6e-06
LMP2-Iter=   6:  ELMP2= -1.430874022950  DE=   1.4e-07 RMAX=   1.5e-06
LMP2-Iter=   7:  ELMP2= -1.430874025621  DE=   2.7e-09 RMAX=   3.7e-07
LMP2-Iter=   8:  ELMP2= -1.430874029747  DE=   4.1e-09 RMAX=   6.1e-08 => CONVERGED
PASS-2: Formation of Pair natural orbitals
   .... Finished loop over pairs

 PNO Occupation Number Statistics: 
  | Av. % of trace(Dij) retained        ...  99.424885074350
  | sigma^2 in % of trace(Dij) retained ...   4.51e-01
  | Av. % of trace(Di) retained         ...  99.999696295653
  | sigma^2 in % of trace(Di) retained  ...   1.04e-08
 Distributions of % trace(Dij) recovered:
  |       >= 99.9  ...    74 ( 24.7 % of all pairs)
  |   [90.0, 99.0) ...    52 ( 17.3 % of all pairs)
  |   [99.0, 99.9) ...   174 ( 58.0 % of all pairs)
 Distributions of % trace(Di) recovered :
  |       >= 99.9  ...    24 (100.0 % of all I-pairs )

Making pair pair interaction lists          ... done

                       ===========================
                        300 OF  300 PAIRS ARE KEPT
                       ===========================

Total time spent in the initial guess                 ...    40.327 sec
L-MP2 correlation energy (all non-screened pairs)     ...      -1.430874029747 Eh
L-MP2 PNO error correction                            ...      -0.000042744896 Eh
                                                          --------------------
Initial total L-MP2 energy (non-screened pairs)       ...      -1.430916774643 Eh

Initial PNO correlation energy                        ...      -1.429262234161 Eh
sum of pair energies estimated for screened out pairs ...       0.000000000000 Eh
sum of MP2 pair energies for pairs that were not kept ...       0.000000000000 Eh
sum of PNO error estimates for the kept pairs         ...      -0.001654540482 Eh
                                                          --------------------
sum of all corrections                                         -0.001654540482
Initial total correlation energy                               -1.430916774643
Thresholds for map construction and integral transformation for fine MP2 and CCSD(T) calculation:
   TCutMKN   ...     1.0e-03
   TCutDO    ...     5.0e-03
   TCutPairs ...     1.0e-05
   TCutCMO   ...     1.0e-03
   TCutCPAO  ...     1.0e-03

Time for aux screen maps:            0.008
Time for maps after fine MP2:            0.025
-----------------------------
LOCAL RI TRANSFORMATION (IJV)
-----------------------------

Orbital window:       8 to 31
Basis functions:    450 (170 shells)
Aux. functions:    1098 (334 shells)

Processing maps (0.0 sec)
Average map sizes:
   Aux shells -> MOs(i)           24.0
   Aux shells -> MOs(j)           24.0
   MOs        -> AO shells       167.8

Calculating integrals (1.1 sec, 4.838 MB)
Sorting integrals (0.0 sec, 4.825 MB)
Total time for the integral transformation: 1.2 sec
--------------------------------
LOCAL RI TRANSFORMATION (VABPAO)
--------------------------------

Number of PAOs:     450
Basis functions:    450 (170 shells)
Aux. functions:    1098 (334 shells)

Processing maps (0.0 sec)
Average map sizes:
   Aux shells -> PAOs            450.0
   PAOs       -> AO shells       169.8

Calculating integrals (4.6 sec, 3188.805 MB)
Finished


-------------------------------------
Pair Pair Term precalculation with     
RI-(ij|mn) and (im|jn) transformation  
ON THE FLY                             
-------------------------------------

   IBatch   1 (of   3)              ... done (  172.916 sec)
   IBatch   2 (of   3)              ... done (  100.075 sec)
   IBatch   3 (of   3)              ... done (   17.227 sec)
Total EXT                           ...         290.218 sec

---------------------
RI-PNO TRANSFORMATION
---------------------

Total Number of PNOs                   ... 11933
Average number of PNOs per pair        ...    39
Maximal number of PNOs per pair        ...    71
   #pairs with  1 -  5 PNOs   :    0
   #pairs with  6 - 10 PNOs   :   14
   #pairs with 11 - 15 PNOs   :   22
   #pairs with 16 - 20 PNOs   :   21
   #pairs with 21 - 25 PNOs   :   21
   #pairs with 26 - 30 PNOs   :   35
   #pairs with 31 - 35 PNOs   :   29
   #pairs with 36 - 40 PNOs   :   13
   #pairs with 41 - 45 PNOs   :   11
   #pairs with 46 - 50 PNOs   :   35
   #pairs with 51 - 55 PNOs   :   33
   #pairs with 56 - 60 PNOs   :    6
   #pairs with 61 - 65 PNOs   :   20
   #pairs with 66 - 70 PNOs   :   33
   #pairs with 71 - 75 PNOs   :    7

Generation of (ij|ab)[P] integrals            ... on
Generation of (ia|bc)[P],(ja|bc)[P] integrals ... on
Storage of 3 and 4 external integrals         ... on
Generation of ALL (ka|bc)[P] integrals        ... on
Keep RI integrals in memory                   ... off

Ibatch:  1 (of  1)
Starting 2-4 index PNO integral generation ... done

Timings:
Total PNO integral transformation time     ...        117.167 sec
Size of the 3-external file                ...       243 MB
Size of the 4-external file                ...      1785 MB
Size of the IKJL file                      ...         0 MB
Size of the all 3-external file            ...      2917 MB
Size of the 1-external file                ...         6 MB

Making pair/pair overlap matrices          ... done (   14.725 sec)
Size of the pair overlap file              ... 768 MB
Redoing the guess amplitudes               ... done (    0.086 sec)

-------------------------
FINAL STARTUP INFORMATION
-------------------------

E(0)                                       ...   -328.359413271
E(L-MP2)                                   ...     -1.430916775
E(L-MP2) including corrections             ...     -1.430916775
Initial E(tot)                             ...   -329.790330046
<T|T>                                      ...      0.405275494
Number of pairs included                   ... 300
Total number of pairs                      ... 300

------------------------------------------------
                  RHF COUPLED CLUSTER ITERATIONS
------------------------------------------------

Number of PNO amplitudes to be optimized   ...       577993
Number of non-PNO amplitudes               ...     52417200
Untruncated number of regular amplitudes   ...     52417200

Iter       E(tot)           E(Corr)          Delta-E          Residual     Time
  0   -329.750497443     -1.389429631      0.041487144      0.013102374   21.49
                           *** Turning on DIIS ***
  1   -329.817940080     -1.456872268     -0.067442637      0.005880807   21.47
  2   -329.855429160     -1.494361349     -0.037489080      0.001783932   21.44
  3   -329.862095478     -1.501027667     -0.006666318      0.000711879   21.31
  4   -329.863368527     -1.502300716     -0.001273049      0.000394973   21.33
  5   -329.863586454     -1.502518642     -0.000217927      0.000131302   21.39
  6   -329.863635162     -1.502567350     -0.000048708      0.000079552   21.41
  7   -329.863642633     -1.502574821     -0.000007471      0.000030450   20.39
  8   -329.863644473     -1.502576661     -0.000001840      0.000014036   19.76
  9   -329.863644183     -1.502576371      0.000000290      0.000005159   20.24
               --- The Coupled-Cluster iterations have converged ---

----------------------
COUPLED CLUSTER ENERGY
----------------------

E(0)                                       ...   -328.359413271
E(CORR)(strong-pairs)                      ...     -1.502576371
E(CORR)(weak-pairs)                        ...     -0.001654540
E(CORR)(corrected)                         ...     -1.504230912
E(TOT)                                     ...   -329.863644183
Singles Norm <S|S>**1/2                    ...      0.061377178  
T1 diagnostic                              ...      0.008859032  

------------------
LARGEST AMPLITUDES
------------------
  26-> 39  26-> 39       0.033545
  11-> 32  11-> 32       0.033160
  18-> 38  18-> 38       0.031906
   8-> 42   8-> 42       0.031115
  13-> 42  13-> 42       0.030150
  29-> 38  29-> 38       0.029434
  18-> 32  18-> 32       0.029404
  17-> 37  17-> 37       0.028953
  26-> 32  26-> 32       0.028812
  24-> 32  24-> 32       0.028611
  31-> 32  31-> 32       0.028022
  23-> 32  23-> 32       0.027975
  21-> 32  21-> 32       0.027669
  20-> 32  20-> 32       0.027619
  22-> 32  22-> 32       0.027379
  29-> 32  29-> 32       0.027133


-------------------------------------------
DLPNO BASED TRIPLES CORRECTION
-------------------------------------------

Singles multiplier          ...  1.000000
TCutTNO                     ... 1.000e-09
TCutMP2Pairs                ... 1.000e-06
TCutDOStrong                ... 1.000e-02
TCutMKNStrong               ... 1.000e-02
TCutDOWeak                  ... 2.000e-02
TCutMKNWeak                 ... 1.000e-01

Fragment selection                          .... not used
Number of Triples that are to be computed   ...      2576

 . . . . . . . . .
10% done  
20% done  
30% done  
40% done  
50% done  
60% done  
70% done  
80% done  
90% done               (    658.049 sec)
Triples timings:
Total time for T0               ...   698.446 sec
Total time for Iterative (T)    ...     0.000 sec
Total time of overall (T)       ...   719.338 sec

Triples List generation         ...     0.000 sec
TNO generation                  ...    40.315 sec
Pair density generation         ...     0.028 sec
Look up tables                  ...     0.000 sec
Generating 3-index integrals    ...   536.965 sec
  Make 4-ind.int. from 3-ind.int...    33.803 sec
  Projecting amplitudes (D + S) ...    45.384 sec
  Downprojecting integrals      ...     0.005 sec
  Energy contr. (sum over a,b,c)...    10.922 sec
Fitting ET(->0)                 ...     0.000 sec

Everything after 3-index        ...   121.084 sec

Timing details:
 TNO integrals                  ...   559.007 sec
   Reading 3-index integrals    ...     0.914 sec
   Sorting integrals            ...    45.311 sec
       Sorting integrals 1      ...     0.003 sec
       Sorting integrals 2      ...    31.887 sec
       Sorting integrals 3      ...     1.488 sec
       Sorting integrals 4      ...     0.087 sec
       Sorting integrals 5      ...     0.451 sec
       Sorting integrals 6      ...    11.395 sec
   Calculating local VM**-1/2   ...     1.135 sec
   Orthogonal. integrals        ...     1.748 sec
   Multipl. 3-index integrals   ...   509.900 sec
   All concerning IRIab (w/TNO) ...    18.582 sec

 Calculate W0/W1                ...    30.955 sec
 W 3-ext contribution           ...    16.888 sec
 W 3-int contribution           ...     4.849 sec
 Sorting W                      ...     8.783 sec

 V exchange contribution        ...     3.809 sec

 Timings for Triples without generation
     of 3-index integrals       ...   121.079 sec
       0 weak pairs             ...   121.079 sec
       1 weak pair              ...     0.000 sec
       2 weak pairs             ...     0.000 sec
       3 weak pairs             ...     0.000 sec
  Extra time for extrapolation  ...     0.000 sec

Number of Triples   (0, 1, 2, 3 weak pairs; overall):   2576       0       0       0  (  2576)
Number of Atoms     (0, 1, 2, 3 weak pairs; overall):   21.7     0.0     0.0     0.0  (    23)
Number of PAOs      (0, 1, 2, 3 weak pairs; overall):  429.9     0.0     0.0     0.0  (   450)
Number of AuxFcns   (0, 1, 2, 3 weak pairs; overall):  456.0     0.0     0.0     0.0  (  1098)
Number of TNOs      (0, 1, 2, 3 weak pairs         ):  100.0     0.0     0.0     0.0
Aver. Number of NTNO, Atoms, PAOs, AuxFcns / Triples:   2576   100.0    21.7   429.9   456.0

Triples Correction (T)                     ...     -0.060662639
Final correlation energy                   ...     -1.564893550
E(CCSD)                                    ...   -329.863644183
E(CCSD(T))                                 ...   -329.924306821


Maximum memory used throughout the entire calculation: 7941.3 MB


------------------------------------------------------------------------------- 
                                     TIMINGS                                   
------------------------------------------------------------------------------- 


Total execution time                   ...     1451.771 sec

Localization of occupied MO's          ...        0.775 sec (  0.1%)
Fock Matrix Formation                  ...       27.334 sec (  1.9%)
Global overlap, Fock, MKN matrices     ...        0.314 sec (  0.0%)
Differential overlap integrals         ...        0.211 sec (  0.0%)
Organizing maps                        ...        0.076 sec (  0.0%)
RI 3-index integral generations        ...        8.551 sec (  0.6%)
RI-PNO integral transformation         ...      436.043 sec ( 30.0%)
Initial Guess                          ...       46.243 sec (  3.2%)
DIIS Solver                            ...        2.462 sec (  0.2%)
State Vector Update                    ...        0.047 sec (  0.0%)
Sigma-vector construction              ...      209.782 sec ( 14.5%)
  <D|H|D>(0-ext)                       ...        5.864 sec (  2.8% of sigma)
  <D|H|D>(2-ext Fock)                  ...        0.019 sec (  0.0% of sigma)
  <D|H|D>(2-ext)                       ...       41.804 sec ( 19.9% of sigma)
  <D|H|D>(4-ext)                       ...       18.572 sec (  8.9% of sigma)
  <D|H|D>(4-ext-corr)                  ...      100.700 sec ( 48.0% of sigma)
  CCSD doubles correction              ...        0.338 sec (  0.2% of sigma)
  <S|H|S>                              ...        1.300 sec (  0.6% of sigma)
  <S|H|D>(1-ext)                       ...        0.670 sec (  0.3% of sigma)
  <D|H|S>(1-ext)                       ...        0.018 sec (  0.0% of sigma)
  <S|H|D>(3-ext)                       ...        0.705 sec (  0.3% of sigma)
  Fock-dressing                        ...       28.271 sec ( 13.5% of sigma)
  Singles amplitudes                   ...        0.909 sec (  0.4% of sigma)
  (ik|jl)-dressing                     ...        4.232 sec (  2.0% of sigma)
  (ij|ab),(ia|jb)-dressing             ...        3.441 sec (  1.6% of sigma)
  Pair energies                        ...        0.011 sec (  0.0% of sigma)
Total Time for computing (T)           ...      719.642 sec ( 49.6% of ALL)


-------------------------   --------------------
FINAL SINGLE POINT ENERGY      -329.924306821445
-------------------------   --------------------


                            ***************************************
                            *     ORCA property calculations      *
                            ***************************************

                                    ---------------------
                                    Active property flags
                                    ---------------------
   (+) Dipole Moment


------------------------------------------------------------------------------
                       ORCA ELECTRIC PROPERTIES CALCULATION
------------------------------------------------------------------------------

Dipole Moment Calculation                       ... on
Quadrupole Moment Calculation                   ... off
Polarizability Calculation                      ... off
GBWName                                         ... N_2_dimethylpiperidine_eq_ax.gbw
Electron density file                           ... N_2_dimethylpiperidine_eq_ax.scfp.tmp
The origin for moment calculation is the CENTER OF MASS  = (-0.012731, -0.018275 -0.032030)

-------------
DIPOLE MOMENT
-------------
                                X             Y             Z
Electronic contribution:     -0.79682      -1.07422      -1.86582
Nuclear contribution   :      0.81493       1.16962       2.05003
                        -----------------------------------------
Total Dipole Moment    :      0.01811       0.09540       0.18421
                        -----------------------------------------
Magnitude (a.u.)       :      0.20824
Magnitude (Debye)      :      0.52930



--------------------
Rotational spectrum 
--------------------
 
Rotational constants in cm-1:     0.089566     0.065693     0.046982 
Rotational constants in MHz :  2685.130613  1969.429076  1408.471335 

 Dipole components along the rotational axes: 
x,y,z [a.u.] :     0.016906    -0.094910     0.184580 
x,y,z [Debye]:     0.042971    -0.241241     0.469166 

 

Timings for individual modules:

Sum of individual times         ...     1486.842 sec (=  24.781 min)
GTO integral calculation        ...        0.838 sec (=   0.014 min)   0.1 %
SCF iterations                  ...       28.709 sec (=   0.478 min)   1.9 %
MDCI module                     ...     1457.295 sec (=  24.288 min)  98.0 %
                             ****ORCA TERMINATED NORMALLY****
TOTAL RUN TIME: 0 days 0 hours 24 minutes 47 seconds 968 msec
N_2_dimethylpiperidine_eq_ax.gbw -> /home1/pantazis/klk/xyz/Nitrogen_compounds/N_2_dimethylpiperidine_eq_ax.gbw
N_2_dimethylpiperidine_eq_ax.job -> /home1/pantazis/klk/xyz/Nitrogen_compounds/N_2_dimethylpiperidine_eq_ax.job
N_2_dimethylpiperidine_eq_ax.loc -> /home1/pantazis/klk/xyz/Nitrogen_compounds/N_2_dimethylpiperidine_eq_ax.loc
N_2_dimethylpiperidine_eq_ax.nodes -> /home1/pantazis/klk/xyz/Nitrogen_compounds/N_2_dimethylpiperidine_eq_ax.nodes
N_2_dimethylpiperidine_eq_ax.prop -> /home1/pantazis/klk/xyz/Nitrogen_compounds/N_2_dimethylpiperidine_eq_ax.prop
N_2_dimethylpiperidine_eq_ax_property.txt -> /home1/pantazis/klk/xyz/Nitrogen_compounds/N_2_dimethylpiperidine_eq_ax_property.txt
N_2_dimethylpiperidine_eq_ax.xyz -> /home1/pantazis/klk/xyz/Nitrogen_compounds/N_2_dimethylpiperidine_eq_ax.xyz
cp: cannot stat N_2_dimethylpiperidine_eq_ax.asa.inp: No such file or directory
