! Job execution by suborca V 6.07 on ZEUS !
Job started from zeus1, running /scratch/pantazis/N_4_dimethylpiperidine_eq_ax__PxkMTn/orca/orca copied from /opt/orca on zeussn126 in /scratch/pantazis/N_4_dimethylpiperidine_eq_ax__PxkMTn
Job execution start: Fri Jun 28 00:13:50 CEST 2019
Shared library path: /scratch/pantazis/N_4_dimethylpiperidine_eq_ax__PxkMTn/orca:/opt/openmpi_1.10.2/lib:/opt/intel/mkl/lib/intel64:/opt/intel/lib/intel64:
PBS Job ID is: 158253.icqc
izeussn126
izeussn126
izeussn126
izeussn126
izeussn126
izeussn126
izeussn126
izeussn126

                                 *****************
                                 * O   R   C   A *
                                 *****************

           --- An Ab Initio, DFT and Semiempirical electronic structure package ---

                  #######################################################
                  #                        -***-                        #
                  #          Department of theory and spectroscopy      #
                  #               Directorship: Frank Neese             #
                  #        Max Planck Institute fuer Kohlenforschung    #
                  #                Kaiser Wilhelm Platz 1               #
                  #                 D-45470 Muelheim/Ruhr               #
                  #                      Germany                        #
                  #                                                     #
                  #                  All rights reserved                #
                  #                        -***-                        #
                  #######################################################


                         Program Version 4.1.x  -  STABLE  -
                                (SVN: $Rev: 14094$)
                ($Date: 2019-06-14 15:01:15 +0200 (Fri, 14 Jun 2019) $)

                         (BUILD: $Sun Jun 23 06:18:31 CEST 2019$)


 With contributions from (in alphabetic order):
   Daniel Aravena         : Magnetic Properties
   Michael Atanasov       : Ab Initio Ligand Field Theory
   Alexander A. Auer      : GIAO ZORA
   Ute Becker             : Parallelization
   Giovanni Bistoni       : ED, Open-shell LED
   Martin Brehm           : Molecular dynamics
   Dmytro Bykov           : SCF Hessian
   Vijay G. Chilkuri      : MRCI spin determinant printing
   Dipayan Datta          : RHF DLPNO-CCSD density
   Achintya Kumar Dutta   : EOM-CC, STEOM-CC
   Dmitry Ganyushin       : Spin-Orbit,Spin-Spin,Magnetic field MRCI
   Miquel Garcia          : C-PCM Hessian
   Yang Guo               : DLPNO-NEVPT2, CIM, IAO-localization
   Andreas Hansen         : Spin unrestricted coupled pair/coupled cluster methods
   Benjamin Helmich-Paris : CASSCF linear response (MC-RPA)
   Lee Huntington         : MR-EOM, pCC
   Robert Izsak           : Overlap fitted RIJCOSX, COSX-SCS-MP3, EOM
   Christian Kollmar      : KDIIS, OOCD, Brueckner-CCSD(T), CCSD density
   Simone Kossmann        : Meta GGA functionals, TD-DFT gradient, OOMP2, MP2 Hessian
   Martin Krupicka        : AUTO-CI
   Lucas Lang             : DCDCAS
   Dagmar Lenk            : GEPOL surface, SMD
   Dimitrios Liakos       : Extrapolation schemes; parallel MDCI
   Dimitrios Manganas     : ROCIS; embedding schemes
   Dimitrios Pantazis     : SARC Basis sets
   Taras Petrenko         : DFT Hessian,TD-DFT gradient, ASA, ECA, R-Raman, ABS, FL, XAS/XES, NRVS
   Peter Pinski           : DLPNO-MP2, DLPNO-MP2 Gradient
   Christoph Reimann      : Effective Core Potentials
   Marius Retegan         : Local ZFS, SOC
   Christoph Riplinger    : Optimizer, TS searches, QM/MM, DLPNO-CCSD(T), (RO)-DLPNO pert. Triples
   Tobias Risthaus        : Range-separated hybrids, TD-DFT gradient, RPA, STAB
   Michael Roemelt        : Restricted open shell CIS
   Masaaki Saitow         : Open-shell DLPNO
   Barbara Sandhoefer     : DKH picture change effects
   Avijit Sen             : IP-ROCIS
   Kantharuban Sivalingam : CASSCF convergence, NEVPT2, FIC-MRCI
   Bernardo de Souza      : ESD, SOC TD-DFT
   Georgi Stoychev        : AutoAux, RI-MP2 NMR
   Willem Van den Heuvel  : Paramagnetic NMR
   Boris Wezisla          : Elementary symmetry handling
   Frank Wennmohs         : Technical directorship


 We gratefully acknowledge several colleagues who have allowed us to
 interface, adapt or use parts of their codes:
   Stefan Grimme, W. Hujo, H. Kruse,             : VdW corrections, initial TS optimization,
                  C. Bannwarth                     DFT functionals, gCP, sTDA/sTD-DF
   Ed Valeev                                     : LibInt (2-el integral package), F12 methods
   Garnet Chan, S. Sharma, J. Yang, R. Olivares  : DMRG
   Ulf Ekstrom                                   : XCFun DFT Library
   Mihaly Kallay                                 : mrcc  (arbitrary order and MRCC methods)
   Andreas Klamt, Michael Diedenhofen            : otool_cosmo (COSMO solvation model)
   Jiri Pittner, Ondrej Demel                    : Mk-CCSD
   Frank Weinhold                                : gennbo (NPA and NBO analysis)
   Christopher J. Cramer and Donald G. Truhlar   : smd solvation model
   Lars Goerigk                                  : TD-DFT with DH, B97 family of functionals
   V. Asgeirsson, H. Jonsson                     : NEB implementation
   FAccTs GmbH                                   : IRC, NEB, NEB-TS, Multilevel


 Your calculation uses the libint2 library for the computation of 2-el integrals
 For citations please refer to: http://libint.valeyev.net

 This ORCA versions uses:
   CBLAS   interface :  Fast vector & matrix operations
   LAPACKE interface :  Fast linear algebra routines
   SCALAPACK package :  Parallel linear algebra routines




***************************************
The coordinates will be read from file: N_4_dimethylpiperidine_eq_ax.xyz
***************************************


----- Orbital basis set information -----
Your calculation utilizes the basis: cc-pVTZ 
       H, B-Ne : Obtained from the ccRepo (grant-hill.group.shef.ac.uk/ccrepo) Feb. 2017
                 T. H. Dunning, Jr., J. Chem. Phys. 90, 1007 (1989)
            He : Obtained from the ccRepo (grant-hill.group.shef.ac.uk/ccrepo) Feb. 2017
                 D. E. Woon, T. H. Dunning, Jr., J. Chem. Phys. 100, 2975 (1994)
  Li-Be, Na-Mg : Obtained from the ccRepo (grant-hill.group.shef.ac.uk/ccrepo) Feb. 2017
                 B. P. Prascher, D. E. Woon, K. A. Peterson, T. H. Dunning, Jr., A. K. Wilson, Theor. Chem. Acc. 128, 69 (2011)
         Al-Ar : Obtained from the ccRepo (grant-hill.group.shef.ac.uk/ccrepo) Feb. 2017
                 D. E. Woon, T. H. Dunning, Jr., J. Chem. Phys. 98, 1358 (1993)
            Ca : Obtained from the Peterson Research Group Website (tyr0.chem.wsu.edu/~kipeters) Feb. 2017
                 J. Koput, K. A. Peterson, J. Phys. Chem. 106, 9595 (2002)
         Sc-Zn : Obtained from the ccRepo (grant-hill.group.shef.ac.uk/ccrepo) Feb. 2017
                 N. B. Balabanov, K. A. Peterson, J. Chem. Phys. 123, 064107 (2005)
                 N. B. Balabanov, K. A. Peterson, J. Chem. Phys. 125, 074110 (2006)
         Ga-Kr : Obtained from the ccRepo (grant-hill.group.shef.ac.uk/ccrepo) Feb. 2017
                 A. K. Wilson, D. E. Woon, K. A. Peterson, T. H. Dunning, Jr., J. Chem. Phys. 110, 7667 (1999)
             Y : Obtained from the ccRepo (grant-hill.group.shef.ac.uk/ccrepo) Feb. 2017
                 K. A. Peterson, D. Figgen, M. Dolg, H. Stoll, J. Chem. Phys. 126, 124101 (2007)
        Ag, Au : Obtained from the Peterson Research Group Website (tyr0.chem.wsu.edu/~kipeters) Feb. 2017
                 K. A. Peterson, C. Puzzarini, Theor. Chem. Acc. 114, 283 (2005)

----- AuxC basis set information -----
Your calculation utilizes the auxiliary basis: cc-pVTZ/C 
  Obtained from the EMSL Basis Set Exchange (bse.pnl.gov) Feb. 2017
  H-He, B-F, Al-Ar, Ga-Kr : F. Weigend, A. Kohn, C. Hattig, J. Chem. Phys. 116, 3175 (2002)
             Li-Be, Na-Mg : C. Haettig, Phys. Chem. Chem. Phys. 7, 59 (2005)
                       Ne : C. Haettig, Phys. Chem. Chem. Phys. 7, 59 (2005)
                            F. Weigend, A. Kohn, C. Hattig, J. Chem. Phys. 116, 3175 (2002)
                    Sc-Zn : J. G. Hill, J. A. Platts, J. Chem. Phys. 128, 044104 (2008)

----- AuxJK basis set information -----
Your calculation utilizes the auxiliary basis: cc-pVTZ/JK 
  H, B-F, Al-Cl, Ga-Br : Obtained from the TURBOMOLE 7.0 basis set library

================================================================================
                                        WARNINGS
                       Please study these warnings very carefully!
================================================================================


WARNING: MDCI localization with Augmented Hessian Foster-Boys
  ===> : Switching off randomization!

WARNING: Post HF methods need fully converged wavefunctions
  ===> : Setting SCFConvForced true
         You can overwrite this default with %scf ConvForced false 


INFO   : the flag for use of LIBINT has been found!

================================================================================
                                       INPUT FILE
================================================================================
NAME = N_4_dimethylpiperidine_eq_ax.inp
|  1> ! RHF DLPNO-CCSD(T) cc-pVTZ RIJK cc-pVTZ/JK cc-pVTZ/C
|  2> ! KDIIS SOSCF TightSCF TightPNO
|  3> 
|  4> %pal nprocs 8 end
|  5> 
|  6> %maxcore 8000
|  7> 
|  8> %scf maxiter 300
|  9>      shift shift 0.2 erroff 0.1 end
| 10> end
| 11> 
| 12> * xyzfile 0 1 N_4_dimethylpiperidine_eq_ax.xyz 
| 13> 
| 14> 
| 15>                          ****END OF INPUT****
================================================================================

                       ****************************
                       * Single Point Calculation *
                       ****************************

---------------------------------
CARTESIAN COORDINATES (ANGSTROEM)
---------------------------------
  C     -1.600730    0.000010   -0.379420
  C     -0.739760    1.255440   -0.637680
  C      0.605370    1.209240    0.095500
  N      1.354350    0.000000   -0.251670
  C      0.605350   -1.209230    0.095460
  C     -0.739780   -1.255380   -0.637720
  C      2.683380   -0.000030    0.341730
  C     -2.247010   -0.000040    1.016860
  H      1.209460    2.078660   -0.188920
  H      0.448780   -1.277030    1.192600
  H      1.209430   -2.078660   -0.188970
  H     -0.538260    1.336400   -1.713160
  H     -1.285640   -2.159980   -0.340500
  H     -0.538270   -1.336310   -1.713200
  H     -2.419510    0.000040   -1.112040
  H      2.661410   -0.000040    1.450460
  H      3.236100   -0.886540    0.013890
  H      3.236150    0.886470    0.013920
  H      0.448810    1.277010    1.192650
  H     -1.285610    2.160030   -0.340420
  H     -1.505760   -0.000060    1.822560
  H     -2.879220    0.885270    1.152250
  H     -2.879220   -0.885350    1.152190

----------------------------
CARTESIAN COORDINATES (A.U.)
----------------------------
  NO LB      ZA    FRAG     MASS         X           Y           Z
   0 C     6.0000    0    12.011   -3.024941    0.000019   -0.717000
   1 C     6.0000    0    12.011   -1.397944    2.372438   -1.205041
   2 C     6.0000    0    12.011    1.143984    2.285132    0.180469
   3 N     7.0000    0    14.007    2.559351    0.000000   -0.475587
   4 C     6.0000    0    12.011    1.143946   -2.285114    0.180393
   5 C     6.0000    0    12.011   -1.397982   -2.372324   -1.205116
   6 C     6.0000    0    12.011    5.070853   -0.000057    0.645776
   7 C     6.0000    0    12.011   -4.246234   -0.000076    1.921587
   8 H     1.0000    0     1.008    2.285548    3.928098   -0.357007
   9 H     1.0000    0     1.008    0.848071   -2.413237    2.253687
  10 H     1.0000    0     1.008    2.285491   -3.928098   -0.357102
  11 H     1.0000    0     1.008   -1.017164    2.525430   -3.237403
  12 H     1.0000    0     1.008   -2.429508   -4.081771   -0.643452
  13 H     1.0000    0     1.008   -1.017183   -2.525260   -3.237479
  14 H     1.0000    0     1.008   -4.572211    0.000076   -2.101451
  15 H     1.0000    0     1.008    5.029336   -0.000076    2.740972
  16 H     1.0000    0     1.008    6.115343   -1.675318    0.026248
  17 H     1.0000    0     1.008    6.115437    1.675186    0.026305
  18 H     1.0000    0     1.008    0.848128    2.413199    2.253782
  19 H     1.0000    0     1.008   -2.429451    4.081865   -0.643301
  20 H     1.0000    0     1.008   -2.845474   -0.000113    3.444139
  21 H     1.0000    0     1.008   -5.440937    1.672918    2.177437
  22 H     1.0000    0     1.008   -5.440937   -1.673069    2.177324

--------------------------------
INTERNAL COORDINATES (ANGSTROEM)
--------------------------------
 C      0   0   0     0.000000000000     0.00000000     0.00000000
 C      1   0   0     1.544044058115     0.00000000     0.00000000
 C      2   1   0     1.532665021882   112.63485401     0.00000000
 N      3   2   1     1.464158265660   111.12595495    55.68684102
 C      4   3   2     1.464150753782   111.35827055   300.57712110
 C      5   4   3     1.532663515518   111.12596181    59.42284422
 C      4   3   2     1.455487650858   111.74307530   174.83200398
 C      1   2   3     1.538595359183   112.70817160    75.44010281
 H      3   2   1     1.096225615875   109.60990035   175.17801340
 H      5   4   3     1.110327512268   110.90613641   296.33544590
 H      5   4   3     1.096230630935   108.15636104   179.77908248
 H      2   1   3     1.097184579731   109.04769079   119.94917691
 H      6   5   4     1.097544544882   109.37594716   181.23517900
 H      6   5   4     1.097184203040   108.05556789    64.83328096
 H      1   2   3     1.098695933232   107.69746902   193.20914743
 H      7   4   3     1.108947651560   112.92514033    62.76613323
 H      7   4   3     1.094933077453   109.80894912   183.38633173
 H      7   4   3     1.094941239976   109.80998229   302.14629722
 H      3   2   1     1.110334151956   110.31002004   292.25723915
 H      2   1   3     1.097542162379   110.33543570   237.46042950
 H      8   1   2     1.094807769839   112.54825516   298.18924183
 H      8   1   2     1.096263532322   110.74992549    58.46652583
 H      8   1   2     1.096256123860   110.75024489   177.91075052

---------------------------
INTERNAL COORDINATES (A.U.)
---------------------------
 C      0   0   0     0.000000000000     0.00000000     0.00000000
 C      1   0   0     2.917820408546     0.00000000     0.00000000
 C      2   1   0     2.896317146397   112.63485401     0.00000000
 N      3   2   1     2.766858138814   111.12595495    55.68684102
 C      4   3   2     2.766843943422   111.35827055   300.57712110
 C      5   4   3     2.896314299782   111.12596181    59.42284422
 C      4   3   2     2.750473051426   111.74307530   174.83200398
 C      1   2   3     2.907523859778   112.70817160    75.44010281
 H      3   2   1     2.071566194992   109.60990035   175.17801340
 H      5   4   3     2.098214917145   110.90613641   296.33544590
 H      5   4   3     2.071575672083   108.15636104   179.77908248
 H      2   1   3     2.073378374054   109.04769079   119.94917691
 H      6   5   4     2.074058609606   109.37594716   181.23517900
 H      6   5   4     2.073377662210   108.05556789    64.83328096
 H      1   2   3     2.076234418261   107.69746902   193.20914743
 H      7   4   3     2.095607358303   112.92514033    62.76613323
 H      7   4   3     2.069123651357   109.80894912   183.38633173
 H      7   4   3     2.069139076291   109.80998229   302.14629722
 H      3   2   1     2.098227464337   110.31002004   292.25723915
 H      2   1   3     2.074054107328   110.33543570   237.46042950
 H      8   1   2     2.068886854285   112.54825516   298.18924183
 H      8   1   2     2.071637846694   110.74992549    58.46652583
 H      8   1   2     2.071623846729   110.75024489   177.91075052

---------------------
BASIS SET INFORMATION
---------------------
There are 3 groups of distinct atoms

 Group   1 Type C   : 18s5p2d1f contracted to 4s3p2d1f pattern {8811/311/11/1}
 Group   2 Type N   : 18s5p2d1f contracted to 4s3p2d1f pattern {8811/311/11/1}
 Group   3 Type H   : 5s2p1d contracted to 3s2p1d pattern {311/11/1}

Atom   0C    basis set group =>   1
Atom   1C    basis set group =>   1
Atom   2C    basis set group =>   1
Atom   3N    basis set group =>   2
Atom   4C    basis set group =>   1
Atom   5C    basis set group =>   1
Atom   6C    basis set group =>   1
Atom   7C    basis set group =>   1
Atom   8H    basis set group =>   3
Atom   9H    basis set group =>   3
Atom  10H    basis set group =>   3
Atom  11H    basis set group =>   3
Atom  12H    basis set group =>   3
Atom  13H    basis set group =>   3
Atom  14H    basis set group =>   3
Atom  15H    basis set group =>   3
Atom  16H    basis set group =>   3
Atom  17H    basis set group =>   3
Atom  18H    basis set group =>   3
Atom  19H    basis set group =>   3
Atom  20H    basis set group =>   3
Atom  21H    basis set group =>   3
Atom  22H    basis set group =>   3
-------------------------------
AUXILIARY BASIS SET INFORMATION
-------------------------------
There are 3 groups of distinct atoms

 Group   1 Type C   : 8s6p5d3f1g contracted to 8s6p5d3f1g pattern {11111111/111111/11111/111/1}
 Group   2 Type N   : 8s6p5d3f1g contracted to 8s6p5d3f1g pattern {11111111/111111/11111/111/1}
 Group   3 Type H   : 4s3p2d1f contracted to 4s3p2d1f pattern {1111/111/11/1}

Atom   0C    basis set group =>   1
Atom   1C    basis set group =>   1
Atom   2C    basis set group =>   1
Atom   3N    basis set group =>   2
Atom   4C    basis set group =>   1
Atom   5C    basis set group =>   1
Atom   6C    basis set group =>   1
Atom   7C    basis set group =>   1
Atom   8H    basis set group =>   3
Atom   9H    basis set group =>   3
Atom  10H    basis set group =>   3
Atom  11H    basis set group =>   3
Atom  12H    basis set group =>   3
Atom  13H    basis set group =>   3
Atom  14H    basis set group =>   3
Atom  15H    basis set group =>   3
Atom  16H    basis set group =>   3
Atom  17H    basis set group =>   3
Atom  18H    basis set group =>   3
Atom  19H    basis set group =>   3
Atom  20H    basis set group =>   3
Atom  21H    basis set group =>   3
Atom  22H    basis set group =>   3
-------------------------------
AUXILIARY BASIS SET INFORMATION
-------------------------------
There are 3 groups of distinct atoms

 Group   1 Type C   : 10s7p5d2f1g contracted to 10s7p5d2f1g pattern {1111111111/1111111/11111/11/1}
 Group   2 Type N   : 10s7p5d2f1g contracted to 10s7p5d2f1g pattern {1111111111/1111111/11111/11/1}
 Group   3 Type H   : 4s3p2d1f contracted to 4s3p2d1f pattern {1111/111/11/1}

Atom   0C    basis set group =>   1
Atom   1C    basis set group =>   1
Atom   2C    basis set group =>   1
Atom   3N    basis set group =>   2
Atom   4C    basis set group =>   1
Atom   5C    basis set group =>   1
Atom   6C    basis set group =>   1
Atom   7C    basis set group =>   1
Atom   8H    basis set group =>   3
Atom   9H    basis set group =>   3
Atom  10H    basis set group =>   3
Atom  11H    basis set group =>   3
Atom  12H    basis set group =>   3
Atom  13H    basis set group =>   3
Atom  14H    basis set group =>   3
Atom  15H    basis set group =>   3
Atom  16H    basis set group =>   3
Atom  17H    basis set group =>   3
Atom  18H    basis set group =>   3
Atom  19H    basis set group =>   3
Atom  20H    basis set group =>   3
Atom  21H    basis set group =>   3
Atom  22H    basis set group =>   3


           ************************************************************
           *        Program running with 8 parallel MPI-processes     *
           *              working on a common directory               *
           ************************************************************
------------------------------------------------------------------------------
                           ORCA GTO INTEGRAL CALCULATION
                           -- RI-GTO INTEGRALS CHOSEN --
------------------------------------------------------------------------------

                         BASIS SET STATISTICS AND STARTUP INFO

Gaussian basis set:
 # of primitive gaussian shells          ...  328
 # of primitive gaussian functions       ...  640
 # of contracted shells                  ...  170
 # of contracted basis functions         ...  450
 Highest angular momentum                ...    3
 Maximum contraction depth               ...    8
Auxiliary gaussian basis set:
 # of primitive gaussian shells          ...  350
 # of primitive gaussian functions       ... 1082
 # of contracted shells                  ...  350
 # of contracted aux-basis functions     ... 1082
 Highest angular momentum                ...    4
 Maximum contraction depth               ...    1
Ratio of auxiliary to basis functions    ...  2.40
Integral package used                  ... LIBINT
 One Electron integrals                  ... done
 Ordering auxiliary basis shells         ... done
 Integral threshhold             Thresh  ...  2.500e-11
 Primitive cut-off               TCut    ...  2.500e-12
 Pre-screening matrix                    ... done
 Shell pair data                         ... 
 Ordering of the shell pairs             ... done (   0.003 sec) 13583 of 14535 pairs
 Determination of significant pairs      ... done (   0.000 sec)
 Creation of shell pair data             ... done (   0.003 sec)
 Storage of shell pair data              ... done (   0.003 sec)
 Shell pair data done in (   0.009 sec)
 Computing two index integrals           ... done
 Cholesky decomposition of the V-matrix  ... done


Timings:
 Total evaluation time                   ...   0.736 sec (  0.012 min)
 One electron matrix time                ...   0.193 sec (  0.003 min) = 26.2%
 Schwartz matrix evaluation time         ...   0.306 sec (  0.005 min) = 41.6%
 Two index repulsion integral time       ...   0.099 sec (  0.002 min) = 13.5%
 Cholesky decomposition of V             ...   0.103 sec (  0.002 min) = 14.0%
 Three index repulsion integral time     ...   0.000 sec (  0.000 min) =  0.0%



           ************************************************************
           *        Program running with 8 parallel MPI-processes     *
           *              working on a common directory               *
           ************************************************************
-------------------------------------------------------------------------------
                                 ORCA SCF
-------------------------------------------------------------------------------

------------
SCF SETTINGS
------------
Hamiltonian:
 Ab initio Hamiltonian  Method          .... Hartree-Fock(GTOs)
 RI-approximation to the Coulomb term is turned on
   Number of auxiliary basis functions  .... 1082
   RI-JK (J+K treated both via RI)      .... on


General Settings:
 Integral files         IntName         .... N_4_dimethylpiperidine_eq_ax
 Hartree-Fock type      HFTyp           .... RHF
 Total Charge           Charge          ....    0
 Multiplicity           Mult            ....    1
 Number of Electrons    NEL             ....   64
 Basis Dimension        Dim             ....  450
 Nuclear Repulsion      ENuc            ....    416.1890714833 Eh

Convergence Acceleration:
 DIIS                   CNVDIIS         .... off
 Newton-Raphson         CNVNR           .... off
 SOSCF                  CNVSOSCF        .... on
   Start iteration      SOSCFMaxIt      ....   150
   Startup grad/error   SOSCFStart      ....  0.003300
 Level Shifting         CNVShift        .... on
   Level shift para.    LevelShift      ....    0.2000
   Turn off err/grad.   ShiftErr        ....    0.1000
 Zerner damping         CNVZerner       .... off
 Static damping         CNVDamp         .... off
 Fernandez-Rico         CNVRico         .... off

SCF Procedure:
 Maximum # iterations   MaxIter         ....   300
 SCF integral mode      SCFMode         .... Direct
   Integral package                     .... LIBINT
 Reset frequency        DirectResetFreq ....    20
 Integral Threshold     Thresh          ....  2.500e-11 Eh
 Primitive CutOff       TCut            ....  2.500e-12 Eh

Convergence Tolerance:
 Convergence Check Mode ConvCheckMode   .... Total+1el-Energy
 Convergence forced     ConvForced      .... 1
 Energy Change          TolE            ....  1.000e-08 Eh
 1-El. energy change                    ....  1.000e-05 Eh
 Orbital Gradient       TolG            ....  1.000e-05
 Orbital Rotation angle TolX            ....  1.000e-05


Diagonalization of the overlap matrix:
Smallest eigenvalue                        ... 2.436e-04
Time for diagonalization                   ...    0.044 sec
Threshold for overlap eigenvalues          ... 1.000e-08
Number of eigenvalues below threshold      ... 0
Time for construction of square roots      ...    0.047 sec
Total time needed                          ...    0.092 sec

-------------------
DFT GRID GENERATION
-------------------

General Integration Accuracy     IntAcc      ...  4.340
Radial Grid Type                 RadialGrid  ... Gauss-Chebyshev
Angular Grid (max. acc.)         AngularGrid ... Lebedev-110
Angular grid pruning method      GridPruning ... 3 (G Style)
Weight generation scheme         WeightScheme... Becke
Basis function cutoff            BFCut       ...    1.0000e-11
Integration weight cutoff        WCut        ...    1.0000e-14
Grids for H and He will be reduced by one unit

# of grid points (after initial pruning)     ...  25204 (   0.0 sec)
# of grid points (after weights+screening)   ...  22766 (   0.0 sec)
nearest neighbour list constructed           ...    0.0 sec
Grid point re-assignment to atoms done       ...    0.0 sec
Grid point division into batches done        ...    0.0 sec
Reduced shell lists constructed in    0.2 sec

Total number of grid points                  ...    22766
Total number of batches                      ...      364
Average number of points per batch           ...       62
Average number of grid points per atom       ...      990
Average number of shells per batch           ...   144.13 (84.78%)
Average number of basis functions per batch  ...   375.28 (83.39%)
Average number of large shells per batch     ...   114.66 (79.55%)
Average number of large basis fcns per batch ...   294.23 (78.40%)
Average number of aux-shells per batch       ...   144.13 (41.18%)
Average number of aux functions per batch    ...   375.28 (34.68%)
Maximum spatial batch extension              ...   2.45,  3.00,  3.15 au
Average spatial batch extension              ...   0.21,  0.20,  0.21 au

Time for grid setup =    0.280 sec

------------------------------
INITIAL GUESS: MODEL POTENTIAL
------------------------------
Loading Hartree-Fock densities                     ... done
Calculating cut-offs                               ... done
Setting up the integral package                    ... done
Initializing the effective Hamiltonian             ... done
Starting the Coulomb interaction                   ... done (   0.1 sec)
Reading the grid                                   ... done
Mapping shells                                     ... done
Starting the XC term evaluation                    ... done (   0.1 sec)
Transforming the Hamiltonian                       ... done (   0.0 sec)
Diagonalizing the Hamiltonian                      ... done (   0.0 sec)
Back transforming the eigenvectors                 ... done (   0.0 sec)
Now organizing SCF variables                       ... done
                      ------------------
                      INITIAL GUESS DONE (   0.7 sec)
                      ------------------
--------------
SCF ITERATIONS
--------------
ITER       Energy         Delta-E        Max-DP      RMS-DP      [F,P]   Gradient Norm
                             ****Turning on KDIIS(Cayley)****
  0   -327.9151556518   0.000000000000 0.01469244  0.00022345  0.1288495   0.147592172
  1   -328.0409955823  -0.125839930454 0.01820529  0.00026070  0.1180577   0.128067473
  2   -328.1463831182  -0.105387535940 0.02986492  0.00045288  0.0948691   0.104014211
  3   -328.2758122785  -0.129429160247 0.04691534  0.00073243  0.0575891   0.064229231
                      *** Initiating the SOSCF procedure ***
                           *** Shutting down KDIIS ***
                      *** Re-Reading the Fockian *** 
                      *** Removing any level shift *** 
ITER      Energy       Delta-E        Grad      Rot      Max-DP    RMS-DP
  4   -328.36052483  -0.0847125515  0.003039  0.003039  0.002235  0.000062
  5   -328.36103476  -0.0005099252  0.001163  0.001893  0.001530  0.000045
  6   -328.36110873  -0.0000739779  0.000497  0.000349  0.000761  0.000018
  7   -328.36113305  -0.0000243193  0.000083  0.000134  0.000352  0.000007
  8   -328.36113374  -0.0000006856  0.000036  0.000052  0.000151  0.000003
  9   -328.36113387  -0.0000001296  0.000009  0.000010  0.000034  0.000001
 10   -328.36113388  -0.0000000087  0.000004  0.000004  0.000015  0.000000
                  ***Gradient check signals convergence***
              ***Rediagonalizing the Fockian in SOSCF/NRSCF***

               *****************************************************
               *                     SUCCESS                       *
               *           SCF CONVERGED AFTER  11 CYCLES          *
               *****************************************************


----------------
TOTAL SCF ENERGY
----------------

Total Energy       :         -328.36113388 Eh           -8935.16071 eV

Components:
Nuclear Repulsion  :          416.18907148 Eh           11325.08039 eV
Electronic Energy  :         -744.55020536 Eh          -20260.24110 eV
One Electron Energy:        -1268.94420343 Eh          -34529.72723 eV
Two Electron Energy:          524.39399807 Eh           14269.48613 eV

Virial components:
Potential Energy   :         -656.12725528 Eh          -17854.13030 eV
Kinetic Energy     :          327.76612140 Eh            8918.96960 eV
Virial Ratio       :            2.00181536


---------------
SCF CONVERGENCE
---------------

  Last Energy change         ...   -1.0126e-09  Tolerance :   1.0000e-08
  Last MAX-Density change    ...    4.3849e-06  Tolerance :   1.0000e-07
  Last RMS-Density change    ...    8.5370e-08  Tolerance :   5.0000e-09
  Last Orbital Gradient      ...    1.2384e-06  Tolerance :   1.0000e-05
  Last Orbital Rotation      ...    2.1668e-06  Tolerance :   1.0000e-05

             **** THE GBW FILE WAS UPDATED (N_4_dimethylpiperidine_eq_ax.gbw) ****
             **** DENSITY FILE WAS UPDATED (N_4_dimethylpiperidine_eq_ax.scfp.tmp) ****
             **** ENERGY FILE WAS UPDATED (N_4_dimethylpiperidine_eq_ax.en.tmp) ****
----------------
ORBITAL ENERGIES
----------------

  NO   OCC          E(Eh)            E(eV) 
   0   2.0000     -15.538823      -422.8329 
   1   2.0000     -11.241910      -305.9079 
   2   2.0000     -11.241896      -305.9075 
   3   2.0000     -11.238366      -305.8115 
   4   2.0000     -11.223957      -305.4194 
   5   2.0000     -11.214033      -305.1494 
   6   2.0000     -11.214007      -305.1486 
   7   2.0000     -11.210212      -305.0454 
   8   2.0000      -1.223965       -33.3058 
   9   2.0000      -1.081174       -29.4202 
  10   2.0000      -1.008107       -27.4320 
  11   2.0000      -0.961258       -26.1572 
  12   2.0000      -0.899518       -24.4771 
  13   2.0000      -0.844126       -22.9698 
  14   2.0000      -0.813842       -22.1458 
  15   2.0000      -0.723993       -19.7009 
  16   2.0000      -0.658586       -17.9210 
  17   2.0000      -0.622020       -16.9260 
  18   2.0000      -0.621179       -16.9032 
  19   2.0000      -0.600209       -16.3325 
  20   2.0000      -0.595463       -16.2034 
  21   2.0000      -0.563965       -15.3463 
  22   2.0000      -0.536323       -14.5941 
  23   2.0000      -0.531138       -14.4530 
  24   2.0000      -0.525163       -14.2904 
  25   2.0000      -0.505854       -13.7650 
  26   2.0000      -0.491949       -13.3866 
  27   2.0000      -0.481233       -13.0950 
  28   2.0000      -0.451415       -12.2836 
  29   2.0000      -0.434434       -11.8216 
  30   2.0000      -0.432059       -11.7569 
  31   2.0000      -0.347949        -9.4682 
  32   0.0000       0.136378         3.7110 
  33   0.0000       0.153582         4.1792 
  34   0.0000       0.165416         4.5012 
  35   0.0000       0.168194         4.5768 
  36   0.0000       0.192441         5.2366 
  37   0.0000       0.198421         5.3993 
  38   0.0000       0.207511         5.6467 
  39   0.0000       0.217544         5.9197 
  40   0.0000       0.219026         5.9600 
  41   0.0000       0.228995         6.2313 
  42   0.0000       0.230480         6.2717 
  43   0.0000       0.255190         6.9441 
  44   0.0000       0.266544         7.2530 
  45   0.0000       0.270126         7.3505 
  46   0.0000       0.274520         7.4701 
  47   0.0000       0.291337         7.9277 
  48   0.0000       0.321013         8.7352 
  49   0.0000       0.338239         9.2040 
  50   0.0000       0.338974         9.2239 
  51   0.0000       0.359922         9.7940 
  52   0.0000       0.365974         9.9587 
  53   0.0000       0.389875        10.6090 
  54   0.0000       0.392375        10.6771 
  55   0.0000       0.406914        11.0727 
  56   0.0000       0.420550        11.4437 
  57   0.0000       0.424779        11.5588 
  58   0.0000       0.465295        12.6613 
  59   0.0000       0.474007        12.8984 
  60   0.0000       0.475421        12.9369 
  61   0.0000       0.478492        13.0204 
  62   0.0000       0.518549        14.1104 
  63   0.0000       0.522022        14.2049 
  64   0.0000       0.522568        14.2198 
  65   0.0000       0.557030        15.1575 
  66   0.0000       0.562039        15.2939 
  67   0.0000       0.571391        15.5483 
  68   0.0000       0.580776        15.8037 
  69   0.0000       0.592426        16.1207 
  70   0.0000       0.594047        16.1649 
  71   0.0000       0.615715        16.7545 
  72   0.0000       0.619620        16.8607 
  73   0.0000       0.626834        17.0570 
  74   0.0000       0.632594        17.2138 
  75   0.0000       0.636884        17.3305 
  76   0.0000       0.637573        17.3492 
  77   0.0000       0.649861        17.6836 
  78   0.0000       0.650526        17.7017 
  79   0.0000       0.661621        18.0036 
  80   0.0000       0.661828        18.0093 
  81   0.0000       0.671381        18.2692 
  82   0.0000       0.690389        18.7864 
  83   0.0000       0.690704        18.7950 
  84   0.0000       0.703757        19.1502 
  85   0.0000       0.706483        19.2244 
  86   0.0000       0.717250        19.5174 
  87   0.0000       0.730158        19.8686 
  88   0.0000       0.736705        20.0468 
  89   0.0000       0.749297        20.3894 
  90   0.0000       0.758815        20.6484 
  91   0.0000       0.789032        21.4706 
  92   0.0000       0.791046        21.5255 
  93   0.0000       0.803620        21.8676 
  94   0.0000       0.854817        23.2608 
  95   0.0000       0.864523        23.5249 
  96   0.0000       0.889111        24.1940 
  97   0.0000       0.926510        25.2116 
  98   0.0000       0.935499        25.4562 
  99   0.0000       0.957133        26.0449 
 100   0.0000       0.982929        26.7468 
 101   0.0000       0.995106        27.0782 
 102   0.0000       1.002042        27.2670 
 103   0.0000       1.008242        27.4357 
 104   0.0000       1.026242        27.9255 
 105   0.0000       1.036860        28.2144 
 106   0.0000       1.067887        29.0587 
 107   0.0000       1.069897        29.1134 
 108   0.0000       1.078510        29.3477 
 109   0.0000       1.085147        29.5284 
 110   0.0000       1.114902        30.3380 
 111   0.0000       1.114905        30.3381 
 112   0.0000       1.134889        30.8819 
 113   0.0000       1.157560        31.4988 
 114   0.0000       1.165373        31.7114 
 115   0.0000       1.168887        31.8070 
 116   0.0000       1.192491        32.4493 
 117   0.0000       1.195090        32.5200 
 118   0.0000       1.204130        32.7661 
 119   0.0000       1.220526        33.2122 
 120   0.0000       1.233524        33.5659 
 121   0.0000       1.242641        33.8140 
 122   0.0000       1.258362        34.2418 
 123   0.0000       1.261776        34.3347 
 124   0.0000       1.272440        34.6248 
 125   0.0000       1.281752        34.8783 
 126   0.0000       1.316339        35.8194 
 127   0.0000       1.326841        36.1052 
 128   0.0000       1.329465        36.1766 
 129   0.0000       1.342376        36.5279 
 130   0.0000       1.373952        37.3871 
 131   0.0000       1.381064        37.5807 
 132   0.0000       1.384944        37.6862 
 133   0.0000       1.387449        37.7544 
 134   0.0000       1.387907        37.7669 
 135   0.0000       1.407831        38.3090 
 136   0.0000       1.413217        38.4556 
 137   0.0000       1.424946        38.7748 
 138   0.0000       1.443798        39.2877 
 139   0.0000       1.447391        39.3855 
 140   0.0000       1.460054        39.7301 
 141   0.0000       1.469042        39.9747 
 142   0.0000       1.481495        40.3135 
 143   0.0000       1.483191        40.3597 
 144   0.0000       1.502746        40.8918 
 145   0.0000       1.507089        41.0100 
 146   0.0000       1.521465        41.4012 
 147   0.0000       1.528412        41.5902 
 148   0.0000       1.533573        41.7306 
 149   0.0000       1.537873        41.8477 
 150   0.0000       1.562745        42.5244 
 151   0.0000       1.569737        42.7147 
 152   0.0000       1.573488        42.8168 
 153   0.0000       1.598426        43.4954 
 154   0.0000       1.598497        43.4973 
 155   0.0000       1.610729        43.8302 
 156   0.0000       1.629979        44.3540 
 157   0.0000       1.630931        44.3799 
 158   0.0000       1.632362        44.4188 
 159   0.0000       1.640916        44.6516 
 160   0.0000       1.652041        44.9543 
 161   0.0000       1.653950        45.0063 
 162   0.0000       1.678802        45.6825 
 163   0.0000       1.691482        46.0276 
 164   0.0000       1.729276        47.0560 
 165   0.0000       1.733806        47.1793 
 166   0.0000       1.736036        47.2399 
 167   0.0000       1.745109        47.4868 
 168   0.0000       1.784478        48.5581 
 169   0.0000       1.785850        48.5954 
 170   0.0000       1.793433        48.8018 
 171   0.0000       1.821192        49.5572 
 172   0.0000       1.830675        49.8152 
 173   0.0000       1.854049        50.4512 
 174   0.0000       1.885340        51.3027 
 175   0.0000       1.936484        52.6944 
 176   0.0000       1.958009        53.2801 
 177   0.0000       1.961548        53.3764 
 178   0.0000       1.982142        53.9368 
 179   0.0000       1.996265        54.3211 
 180   0.0000       2.020959        54.9931 
 181   0.0000       2.078676        56.5636 
 182   0.0000       2.157535        58.7095 
 183   0.0000       2.187648        59.5289 
 184   0.0000       2.200128        59.8685 
 185   0.0000       2.253181        61.3122 
 186   0.0000       2.295746        62.4704 
 187   0.0000       2.542346        69.1807 
 188   0.0000       2.561400        69.6992 
 189   0.0000       2.580676        70.2238 
 190   0.0000       2.616688        71.2037 
 191   0.0000       2.624072        71.4046 
 192   0.0000       2.686735        73.1098 
 193   0.0000       2.695316        73.3433 
 194   0.0000       2.700506        73.4845 
 195   0.0000       2.730710        74.3064 
 196   0.0000       2.757111        75.0248 
 197   0.0000       2.793778        76.0226 
 198   0.0000       2.798625        76.1545 
 199   0.0000       2.811121        76.4945 
 200   0.0000       2.818338        76.6909 
 201   0.0000       2.839896        77.2775 
 202   0.0000       2.875307        78.2411 
 203   0.0000       2.883426        78.4620 
 204   0.0000       2.903556        79.0098 
 205   0.0000       2.918372        79.4129 
 206   0.0000       2.942612        80.0725 
 207   0.0000       2.942752        80.0763 
 208   0.0000       2.948435        80.2310 
 209   0.0000       2.956753        80.4573 
 210   0.0000       2.989320        81.3435 
 211   0.0000       2.991405        81.4003 
 212   0.0000       3.004155        81.7472 
 213   0.0000       3.014138        82.0189 
 214   0.0000       3.018613        82.1406 
 215   0.0000       3.029550        82.4383 
 216   0.0000       3.035322        82.5953 
 217   0.0000       3.047460        82.9256 
 218   0.0000       3.048324        82.9491 
 219   0.0000       3.099700        84.3471 
 220   0.0000       3.108653        84.5907 
 221   0.0000       3.119002        84.8724 
 222   0.0000       3.124758        85.0290 
 223   0.0000       3.131450        85.2111 
 224   0.0000       3.139457        85.4290 
 225   0.0000       3.151030        85.7439 
 226   0.0000       3.171589        86.3033 
 227   0.0000       3.183358        86.6236 
 228   0.0000       3.191430        86.8432 
 229   0.0000       3.228729        87.8582 
 230   0.0000       3.243440        88.2585 
 231   0.0000       3.243802        88.2683 
 232   0.0000       3.266434        88.8842 
 233   0.0000       3.271955        89.0344 
 234   0.0000       3.293455        89.6195 
 235   0.0000       3.296631        89.7059 
 236   0.0000       3.301268        89.8321 
 237   0.0000       3.311587        90.1129 
 238   0.0000       3.329382        90.5971 
 239   0.0000       3.356704        91.3406 
 240   0.0000       3.358904        91.4004 
 241   0.0000       3.367633        91.6379 
 242   0.0000       3.376848        91.8887 
 243   0.0000       3.381346        92.0111 
 244   0.0000       3.395632        92.3999 
 245   0.0000       3.406341        92.6912 
 246   0.0000       3.411613        92.8347 
 247   0.0000       3.425274        93.2064 
 248   0.0000       3.433844        93.4397 
 249   0.0000       3.439076        93.5820 
 250   0.0000       3.446423        93.7819 
 251   0.0000       3.452465        93.9463 
 252   0.0000       3.462613        94.2225 
 253   0.0000       3.477144        94.6179 
 254   0.0000       3.477961        94.6401 
 255   0.0000       3.505831        95.3985 
 256   0.0000       3.509767        95.5056 
 257   0.0000       3.529437        96.0409 
 258   0.0000       3.546839        96.5144 
 259   0.0000       3.559700        96.8644 
 260   0.0000       3.571583        97.1877 
 261   0.0000       3.580936        97.4422 
 262   0.0000       3.591932        97.7414 
 263   0.0000       3.595481        97.8380 
 264   0.0000       3.612963        98.3137 
 265   0.0000       3.616886        98.4205 
 266   0.0000       3.639823        99.0446 
 267   0.0000       3.644380        99.1686 
 268   0.0000       3.663620        99.6922 
 269   0.0000       3.674567        99.9901 
 270   0.0000       3.683499       100.2331 
 271   0.0000       3.704095       100.7936 
 272   0.0000       3.710578       100.9700 
 273   0.0000       3.724646       101.3528 
 274   0.0000       3.725641       101.3799 
 275   0.0000       3.761776       102.3631 
 276   0.0000       3.767252       102.5121 
 277   0.0000       3.778799       102.8264 
 278   0.0000       3.783899       102.9651 
 279   0.0000       3.784297       102.9760 
 280   0.0000       3.808655       103.6388 
 281   0.0000       3.822065       104.0037 
 282   0.0000       3.840420       104.5031 
 283   0.0000       3.846354       104.6646 
 284   0.0000       3.848557       104.7246 
 285   0.0000       3.859461       105.0213 
 286   0.0000       3.868859       105.2770 
 287   0.0000       3.885713       105.7356 
 288   0.0000       3.893038       105.9349 
 289   0.0000       3.910963       106.4227 
 290   0.0000       3.919811       106.6635 
 291   0.0000       3.931220       106.9739 
 292   0.0000       3.962378       107.8218 
 293   0.0000       3.977407       108.2307 
 294   0.0000       3.986779       108.4858 
 295   0.0000       4.000182       108.8505 
 296   0.0000       4.013014       109.1997 
 297   0.0000       4.021524       109.4312 
 298   0.0000       4.022126       109.4476 
 299   0.0000       4.028931       109.6328 
 300   0.0000       4.035453       109.8103 
 301   0.0000       4.057068       110.3984 
 302   0.0000       4.059333       110.4601 
 303   0.0000       4.084692       111.1501 
 304   0.0000       4.098221       111.5183 
 305   0.0000       4.126251       112.2810 
 306   0.0000       4.140270       112.6625 
 307   0.0000       4.145879       112.8151 
 308   0.0000       4.166629       113.3797 
 309   0.0000       4.173204       113.5586 
 310   0.0000       4.186638       113.9242 
 311   0.0000       4.203129       114.3729 
 312   0.0000       4.205530       114.4383 
 313   0.0000       4.220389       114.8426 
 314   0.0000       4.225118       114.9713 
 315   0.0000       4.246229       115.5458 
 316   0.0000       4.267628       116.1280 
 317   0.0000       4.275726       116.3484 
 318   0.0000       4.282037       116.5202 
 319   0.0000       4.298449       116.9667 
 320   0.0000       4.304255       117.1247 
 321   0.0000       4.323546       117.6497 
 322   0.0000       4.332162       117.8841 
 323   0.0000       4.351602       118.4131 
 324   0.0000       4.354346       118.4878 
 325   0.0000       4.367885       118.8562 
 326   0.0000       4.372320       118.9769 
 327   0.0000       4.386002       119.3492 
 328   0.0000       4.392932       119.5378 
 329   0.0000       4.405004       119.8663 
 330   0.0000       4.413483       120.0970 
 331   0.0000       4.418336       120.2290 
 332   0.0000       4.458751       121.3288 
 333   0.0000       4.459500       121.3492 
 334   0.0000       4.463759       121.4650 
 335   0.0000       4.483238       121.9951 
 336   0.0000       4.499434       122.4358 
 337   0.0000       4.507151       122.6458 
 338   0.0000       4.507521       122.6559 
 339   0.0000       4.522639       123.0673 
 340   0.0000       4.539153       123.5166 
 341   0.0000       4.558770       124.0504 
 342   0.0000       4.558842       124.0524 
 343   0.0000       4.566798       124.2689 
 344   0.0000       4.576441       124.5313 
 345   0.0000       4.597250       125.0975 
 346   0.0000       4.607309       125.3713 
 347   0.0000       4.608596       125.4063 
 348   0.0000       4.617570       125.6505 
 349   0.0000       4.635726       126.1445 
 350   0.0000       4.665802       126.9629 
 351   0.0000       4.670069       127.0790 
 352   0.0000       4.684213       127.4639 
 353   0.0000       4.706753       128.0773 
 354   0.0000       4.716007       128.3291 
 355   0.0000       4.723739       128.5395 
 356   0.0000       4.753483       129.3489 
 357   0.0000       4.762579       129.5964 
 358   0.0000       4.777036       129.9898 
 359   0.0000       4.782960       130.1510 
 360   0.0000       4.812427       130.9528 
 361   0.0000       4.844500       131.8256 
 362   0.0000       4.866044       132.4118 
 363   0.0000       4.878563       132.7524 
 364   0.0000       4.888056       133.0108 
 365   0.0000       4.914572       133.7323 
 366   0.0000       4.951729       134.7434 
 367   0.0000       4.978133       135.4619 
 368   0.0000       5.008731       136.2945 
 369   0.0000       5.010814       136.3512 
 370   0.0000       5.065560       137.8409 
 371   0.0000       5.070019       137.9622 
 372   0.0000       5.079124       138.2100 
 373   0.0000       5.121803       139.3713 
 374   0.0000       5.122847       139.3997 
 375   0.0000       5.148729       140.1040 
 376   0.0000       5.152545       140.2079 
 377   0.0000       5.185271       141.0984 
 378   0.0000       5.189731       141.2198 
 379   0.0000       5.206073       141.6645 
 380   0.0000       5.234602       142.4408 
 381   0.0000       5.236431       142.4905 
 382   0.0000       5.260229       143.1381 
 383   0.0000       5.269545       143.3916 
 384   0.0000       5.310448       144.5046 
 385   0.0000       5.314389       144.6119 
 386   0.0000       5.321152       144.7959 
 387   0.0000       5.352008       145.6355 
 388   0.0000       5.362031       145.9083 
 389   0.0000       5.409149       147.1904 
 390   0.0000       5.414577       147.3381 
 391   0.0000       5.423899       147.5918 
 392   0.0000       5.427084       147.6785 
 393   0.0000       5.463572       148.6714 
 394   0.0000       5.477930       149.0621 
 395   0.0000       5.491995       149.4448 
 396   0.0000       5.529037       150.4527 
 397   0.0000       5.537249       150.6762 
 398   0.0000       5.545536       150.9017 
 399   0.0000       5.552162       151.0820 
 400   0.0000       5.580530       151.8539 
 401   0.0000       5.594794       152.2421 
 402   0.0000       5.598632       152.3465 
 403   0.0000       5.621282       152.9629 
 404   0.0000       5.625416       153.0753 
 405   0.0000       5.652694       153.8176 
 406   0.0000       5.664157       154.1296 
 407   0.0000       5.664934       154.1507 
 408   0.0000       5.685189       154.7019 
 409   0.0000       5.706962       155.2943 
 410   0.0000       5.735468       156.0700 
 411   0.0000       5.751634       156.5099 
 412   0.0000       5.758458       156.6956 
 413   0.0000       5.783671       157.3817 
 414   0.0000       5.801952       157.8791 
 415   0.0000       5.814793       158.2286 
 416   0.0000       5.817832       158.3113 
 417   0.0000       5.845470       159.0633 
 418   0.0000       5.866664       159.6400 
 419   0.0000       5.875352       159.8765 
 420   0.0000       5.919713       161.0836 
 421   0.0000       5.934604       161.4888 
 422   0.0000       5.967516       162.3844 
 423   0.0000       6.022754       163.8875 
 424   0.0000       6.029786       164.0788 
 425   0.0000       6.078754       165.4113 
 426   0.0000       6.113886       166.3673 
 427   0.0000       6.137019       166.9968 
 428   0.0000       6.232235       169.5877 
 429   0.0000       6.265483       170.4925 
 430   0.0000       6.298867       171.4009 
 431   0.0000       6.320038       171.9770 
 432   0.0000       6.338968       172.4921 
 433   0.0000       6.342255       172.5815 
 434   0.0000       6.361594       173.1078 
 435   0.0000       6.373141       173.4220 
 436   0.0000       6.412386       174.4899 
 437   0.0000       6.434419       175.0894 
 438   0.0000       6.476284       176.2286 
 439   0.0000       6.486465       176.5057 
 440   0.0000       6.508357       177.1014 
 441   0.0000       6.511606       177.1898 
 442   0.0000      10.897571       296.5380 
 443   0.0000      12.324674       335.3714 
 444   0.0000      13.256635       360.7314 
 445   0.0000      13.352763       363.3472 
 446   0.0000      13.645116       371.3025 
 447   0.0000      13.690287       372.5317 
 448   0.0000      14.213123       386.7587 
 449   0.0000      14.316101       389.5609 

                    ********************************
                    * MULLIKEN POPULATION ANALYSIS *
                    ********************************

-----------------------
MULLIKEN ATOMIC CHARGES
-----------------------
   0 C :   -0.089087
   1 C :   -0.186246
   2 C :   -0.088766
   3 N :   -0.234758
   4 C :   -0.088769
   5 C :   -0.186238
   6 C :   -0.184231
   7 C :   -0.310654
   8 H :    0.101405
   9 H :    0.063504
  10 H :    0.101402
  11 H :    0.099467
  12 H :    0.097880
  13 H :    0.099465
  14 H :    0.109316
  15 H :    0.054824
  16 H :    0.093249
  17 H :    0.093246
  18 H :    0.063503
  19 H :    0.097884
  20 H :    0.093243
  21 H :    0.100178
  22 H :    0.100182
Sum of atomic charges:    0.0000000

--------------------------------
MULLIKEN REDUCED ORBITAL CHARGES
--------------------------------
  0 C s       :     3.175915  s :     3.175915
      pz      :     0.938618  p :     2.768881
      px      :     0.944628
      py      :     0.885634
      dz2     :     0.026548  d :     0.135948
      dxz     :     0.036518
      dyz     :     0.018035
      dx2y2   :     0.026133
      dxy     :     0.028714
      f0      :     0.001275  f :     0.008343
      f+1     :     0.001659
      f-1     :     0.001002
      f+2     :     0.000500
      f-2     :     0.001098
      f+3     :     0.001471
      f-3     :     0.001338
  1 C s       :     3.208423  s :     3.208423
      pz      :     0.999123  p :     2.859759
      px      :     0.904043
      py      :     0.956592
      dz2     :     0.032225  d :     0.111387
      dxz     :     0.019072
      dyz     :     0.011107
      dx2y2   :     0.022521
      dxy     :     0.026462
      f0      :     0.001311  f :     0.006677
      f+1     :     0.000913
      f-1     :     0.000406
      f+2     :     0.000715
      f-2     :     0.000735
      f+3     :     0.001479
      f-3     :     0.001119
  2 C s       :     3.191573  s :     3.191573
      pz      :     0.957851  p :     2.742879
      px      :     0.903217
      py      :     0.881810
      dz2     :     0.040323  d :     0.144859
      dxz     :     0.019862
      dyz     :     0.019106
      dx2y2   :     0.025805
      dxy     :     0.039764
      f0      :     0.001768  f :     0.009456
      f+1     :     0.001080
      f-1     :     0.000943
      f+2     :     0.000973
      f-2     :     0.001314
      f+3     :     0.001763
      f-3     :     0.001615
  3 N s       :     3.441495  s :     3.441495
      pz      :     1.643158  p :     3.711340
      px      :     1.030749
      py      :     1.037433
      dz2     :     0.006164  d :     0.077341
      dxz     :     0.015867
      dyz     :     0.012794
      dx2y2   :     0.019703
      dxy     :     0.022814
      f0      :     0.000715  f :     0.004581
      f+1     :     0.000597
      f-1     :     0.000592
      f+2     :     0.000575
      f-2     :     0.000511
      f+3     :     0.000779
      f-3     :     0.000813
  4 C s       :     3.191574  s :     3.191574
      pz      :     0.957857  p :     2.742880
      px      :     0.903212
      py      :     0.881810
      dz2     :     0.040322  d :     0.144859
      dxz     :     0.019862
      dyz     :     0.019107
      dx2y2   :     0.025805
      dxy     :     0.039763
      f0      :     0.001768  f :     0.009456
      f+1     :     0.001080
      f-1     :     0.000943
      f+2     :     0.000973
      f-2     :     0.001314
      f+3     :     0.001763
      f-3     :     0.001616
  5 C s       :     3.208417  s :     3.208417
      pz      :     0.999123  p :     2.859754
      px      :     0.904044
      py      :     0.956587
      dz2     :     0.032226  d :     0.111389
      dxz     :     0.019072
      dyz     :     0.011106
      dx2y2   :     0.022522
      dxy     :     0.026462
      f0      :     0.001311  f :     0.006678
      f+1     :     0.000913
      f-1     :     0.000406
      f+2     :     0.000715
      f-2     :     0.000735
      f+3     :     0.001479
      f-3     :     0.001120
  6 C s       :     3.239171  s :     3.239171
      pz      :     0.951637  p :     2.833392
      px      :     0.842902
      py      :     1.038854
      dz2     :     0.029003  d :     0.104199
      dxz     :     0.020099
      dyz     :     0.006766
      dx2y2   :     0.019106
      dxy     :     0.029225
      f0      :     0.001600  f :     0.007468
      f+1     :     0.001830
      f-1     :     0.000088
      f+2     :     0.001114
      f-2     :     0.000401
      f+3     :     0.001505
      f-3     :     0.000931
  7 C s       :     3.267023  s :     3.267023
      pz      :     0.939301  p :     2.952277
      px      :     0.989166
      py      :     1.023810
      dz2     :     0.021158  d :     0.086452
      dxz     :     0.025007
      dyz     :     0.009932
      dx2y2   :     0.005629
      dxy     :     0.024728
      f0      :     0.000882  f :     0.004901
      f+1     :     0.001686
      f-1     :     0.000458
      f+2     :     0.000332
      f-2     :     0.000419
      f+3     :     0.001048
      f-3     :     0.000076
  8 H s       :     0.869120  s :     0.869120
      pz      :     0.007393  p :     0.026975
      px      :     0.009396
      py      :     0.010187
      dz2     :     0.000401  d :     0.002500
      dxz     :     0.000199
      dyz     :     0.000386
      dx2y2   :     0.000878
      dxy     :     0.000635
  9 H s       :     0.909502  s :     0.909502
      pz      :     0.011321  p :     0.024610
      px      :     0.007371
      py      :     0.005917
      dz2     :     0.000749  d :     0.002385
      dxz     :     0.000866
      dyz     :     0.000694
      dx2y2   :     0.000014
      dxy     :     0.000061
 10 H s       :     0.869123  s :     0.869123
      pz      :     0.007393  p :     0.026975
      px      :     0.009395
      py      :     0.010187
      dz2     :     0.000401  d :     0.002500
      dxz     :     0.000199
      dyz     :     0.000386
      dx2y2   :     0.000878
      dxy     :     0.000635
 11 H s       :     0.869656  s :     0.869656
      pz      :     0.011913  p :     0.028397
      px      :     0.008212
      py      :     0.008272
      dz2     :     0.000760  d :     0.002481
      dxz     :     0.000868
      dyz     :     0.000741
      dx2y2   :     0.000018
      dxy     :     0.000095
 12 H s       :     0.870015  s :     0.870015
      pz      :     0.007340  p :     0.029635
      px      :     0.009580
      py      :     0.012716
      dz2     :     0.000341  d :     0.002469
      dxz     :     0.000199
      dyz     :     0.000419
      dx2y2   :     0.000874
      dxy     :     0.000637
 13 H s       :     0.869657  s :     0.869657
      pz      :     0.011913  p :     0.028397
      px      :     0.008212
      py      :     0.008272
      dz2     :     0.000760  d :     0.002481
      dxz     :     0.000868
      dyz     :     0.000741
      dx2y2   :     0.000018
      dxy     :     0.000095
 14 H s       :     0.856397  s :     0.856397
      pz      :     0.010295  p :     0.031445
      px      :     0.011765
      py      :     0.009385
      dz2     :     0.000882  d :     0.002842
      dxz     :     0.000525
      dyz     :     0.000353
      dx2y2   :     0.000351
      dxy     :     0.000731
 15 H s       :     0.921767  s :     0.921767
      pz      :     0.009057  p :     0.021315
      px      :     0.005634
      py      :     0.006624
      dz2     :     0.000810  d :     0.002095
      dxz     :     0.000725
      dyz     :     0.000545
      dx2y2   :     0.000004
      dxy     :     0.000010
 16 H s       :     0.879512  s :     0.879512
      pz      :     0.007556  p :     0.025028
      px      :     0.007697
      py      :     0.009775
      dz2     :     0.000398  d :     0.002210
      dxz     :     0.000190
      dyz     :     0.000375
      dx2y2   :     0.000589
      dxy     :     0.000658
 17 H s       :     0.879515  s :     0.879515
      pz      :     0.007556  p :     0.025028
      px      :     0.007697
      py      :     0.009775
      dz2     :     0.000398  d :     0.002210
      dxz     :     0.000190
      dyz     :     0.000375
      dx2y2   :     0.000589
      dxy     :     0.000658
 18 H s       :     0.909503  s :     0.909503
      pz      :     0.011322  p :     0.024609
      px      :     0.007370
      py      :     0.005917
      dz2     :     0.000749  d :     0.002385
      dxz     :     0.000866
      dyz     :     0.000694
      dx2y2   :     0.000014
      dxy     :     0.000061
 19 H s       :     0.870011  s :     0.870011
      pz      :     0.007340  p :     0.029635
      px      :     0.009580
      py      :     0.012716
      dz2     :     0.000341  d :     0.002469
      dxz     :     0.000199
      dyz     :     0.000419
      dx2y2   :     0.000874
      dxy     :     0.000637
 20 H s       :     0.877555  s :     0.877555
      pz      :     0.011465  p :     0.027030
      px      :     0.007787
      py      :     0.007777
      dz2     :     0.000845  d :     0.002172
      dxz     :     0.000513
      dyz     :     0.000283
      dx2y2   :     0.000229
      dxy     :     0.000302
 21 H s       :     0.871241  s :     0.871241
      pz      :     0.008953  p :     0.026416
      px      :     0.008913
      py      :     0.008550
      dz2     :     0.000203  d :     0.002165
      dxz     :     0.000386
      dyz     :     0.000468
      dx2y2   :     0.000568
      dxy     :     0.000540
 22 H s       :     0.871236  s :     0.871236
      pz      :     0.008953  p :     0.026417
      px      :     0.008913
      py      :     0.008550
      dz2     :     0.000203  d :     0.002165
      dxz     :     0.000386
      dyz     :     0.000468
      dx2y2   :     0.000568
      dxy     :     0.000540


                     *******************************
                     * LOEWDIN POPULATION ANALYSIS *
                     *******************************

----------------------
LOEWDIN ATOMIC CHARGES
----------------------
   0 C :   -0.016153
   1 C :    0.063092
   2 C :   -0.016282
   3 N :    0.240434
   4 C :   -0.016285
   5 C :    0.063079
   6 C :    0.033504
   7 C :    0.110429
   8 H :   -0.027242
   9 H :   -0.042538
  10 H :   -0.027239
  11 H :   -0.022886
  12 H :   -0.025595
  13 H :   -0.022884
  14 H :   -0.023252
  15 H :   -0.046087
  16 H :   -0.031682
  17 H :   -0.031678
  18 H :   -0.042535
  19 H :   -0.025599
  20 H :   -0.035142
  21 H :   -0.028728
  22 H :   -0.028731

-------------------------------
LOEWDIN REDUCED ORBITAL CHARGES
-------------------------------
  0 C s       :     2.660719  s :     2.660719
      pz      :     0.936696  p :     2.789367
      px      :     0.933092
      py      :     0.919579
      dz2     :     0.098503  d :     0.515845
      dxz     :     0.130737
      dyz     :     0.078423
      dx2y2   :     0.096633
      dxy     :     0.111549
      f0      :     0.007082  f :     0.050223
      f+1     :     0.006006
      f-1     :     0.007806
      f+2     :     0.006076
      f-2     :     0.007774
      f+3     :     0.006348
      f-3     :     0.009131
  1 C s       :     2.660276  s :     2.660276
      pz      :     0.960369  p :     2.819963
      px      :     0.924636
      py      :     0.934958
      dz2     :     0.112133  d :     0.417174
      dxz     :     0.070947
      dyz     :     0.039074
      dx2y2   :     0.085283
      dxy     :     0.109736
      f0      :     0.005641  f :     0.039496
      f+1     :     0.005615
      f-1     :     0.003019
      f+2     :     0.005623
      f-2     :     0.005932
      f+3     :     0.006568
      f-3     :     0.007098
  2 C s       :     2.668946  s :     2.668946
      pz      :     0.963233  p :     2.766627
      px      :     0.921604
      py      :     0.881790
      dz2     :     0.139917  d :     0.522651
      dxz     :     0.081079
      dyz     :     0.072286
      dx2y2   :     0.092844
      dxy     :     0.136524
      f0      :     0.007836  f :     0.058058
      f+1     :     0.006592
      f-1     :     0.005831
      f+2     :     0.007148
      f-2     :     0.010568
      f+3     :     0.009926
      f-3     :     0.010157
  3 N s       :     2.908371  s :     2.908371
      pz      :     1.462196  p :     3.562653
      px      :     1.049683
      py      :     1.050773
      dz2     :     0.035926  d :     0.270029
      dxz     :     0.042641
      dyz     :     0.035126
      dx2y2   :     0.074359
      dxy     :     0.081976
      f0      :     0.000991  f :     0.018515
      f+1     :     0.002253
      f-1     :     0.001738
      f+2     :     0.002587
      f-2     :     0.003274
      f+3     :     0.002481
      f-3     :     0.005190
  4 C s       :     2.668943  s :     2.668943
      pz      :     0.963236  p :     2.766627
      px      :     0.921599
      py      :     0.881791
      dz2     :     0.139915  d :     0.522656
      dxz     :     0.081081
      dyz     :     0.072288
      dx2y2   :     0.092847
      dxy     :     0.136525
      f0      :     0.007836  f :     0.058059
      f+1     :     0.006592
      f-1     :     0.005831
      f+2     :     0.007147
      f-2     :     0.010568
      f+3     :     0.009927
      f-3     :     0.010157
  5 C s       :     2.660270  s :     2.660270
      pz      :     0.960364  p :     2.819964
      px      :     0.924637
      py      :     0.934963
      dz2     :     0.112138  d :     0.417190
      dxz     :     0.070950
      dyz     :     0.039074
      dx2y2   :     0.085288
      dxy     :     0.109740
      f0      :     0.005641  f :     0.039498
      f+1     :     0.005615
      f-1     :     0.003019
      f+2     :     0.005624
      f-2     :     0.005932
      f+3     :     0.006568
      f-3     :     0.007099
  6 C s       :     2.673252  s :     2.673252
      pz      :     0.967957  p :     2.827820
      px      :     0.862303
      py      :     0.997559
      dz2     :     0.133402  d :     0.417807
      dxz     :     0.088527
      dyz     :     0.020997
      dx2y2   :     0.063686
      dxy     :     0.111194
      f0      :     0.006060  f :     0.047618
      f+1     :     0.010195
      f-1     :     0.001117
      f+2     :     0.009819
      f-2     :     0.005929
      f+3     :     0.008730
      f-3     :     0.005767
  7 C s       :     2.661769  s :     2.661769
      pz      :     0.938554  p :     2.883789
      px      :     0.965723
      py      :     0.979511
      dz2     :     0.084254  d :     0.315058
      dxz     :     0.092959
      dyz     :     0.034397
      dx2y2   :     0.019751
      dxy     :     0.083697
      f0      :     0.004655  f :     0.028956
      f+1     :     0.005561
      f-1     :     0.005563
      f+2     :     0.005040
      f-2     :     0.002568
      f+3     :     0.004696
      f-3     :     0.000872
  8 H s       :     0.852344  s :     0.852344
      pz      :     0.041024  p :     0.146927
      px      :     0.048416
      py      :     0.057487
      dz2     :     0.003982  d :     0.027971
      dxz     :     0.003066
      dyz     :     0.005574
      dx2y2   :     0.008086
      dxy     :     0.007263
  9 H s       :     0.868435  s :     0.868435
      pz      :     0.077546  p :     0.147277
      px      :     0.037414
      py      :     0.032317
      dz2     :     0.009367  d :     0.026826
      dxz     :     0.008860
      dyz     :     0.007984
      dx2y2   :     0.000129
      dxy     :     0.000486
 10 H s       :     0.852344  s :     0.852344
      pz      :     0.041024  p :     0.146924
      px      :     0.048414
      py      :     0.057487
      dz2     :     0.003982  d :     0.027970
      dxz     :     0.003066
      dyz     :     0.005574
      dx2y2   :     0.008085
      dxy     :     0.007263
 11 H s       :     0.842468  s :     0.842468
      pz      :     0.073716  p :     0.152051
      px      :     0.039803
      py      :     0.038533
      dz2     :     0.009622  d :     0.028367
      dxz     :     0.009155
      dyz     :     0.008681
      dx2y2   :     0.000176
      dxy     :     0.000734
 12 H s       :     0.845629  s :     0.845629
      pz      :     0.041254  p :     0.151872
      px      :     0.047589
      py      :     0.063029
      dz2     :     0.003967  d :     0.028093
      dxz     :     0.002854
      dyz     :     0.005769
      dx2y2   :     0.008254
      dxy     :     0.007249
 13 H s       :     0.842467  s :     0.842467
      pz      :     0.073715  p :     0.152051
      px      :     0.039803
      py      :     0.038532
      dz2     :     0.009622  d :     0.028367
      dxz     :     0.009155
      dyz     :     0.008681
      dx2y2   :     0.000176
      dxy     :     0.000734
 14 H s       :     0.838672  s :     0.838672
      pz      :     0.055864  p :     0.155759
      px      :     0.059239
      py      :     0.040656
      dz2     :     0.007905  d :     0.028820
      dxz     :     0.007440
      dyz     :     0.003405
      dx2y2   :     0.004008
      dxy     :     0.006062
 15 H s       :     0.875354  s :     0.875354
      pz      :     0.076469  p :     0.144530
      px      :     0.029612
      py      :     0.038450
      dz2     :     0.009164  d :     0.026202
      dxz     :     0.007798
      dyz     :     0.009070
      dx2y2   :     0.000046
      dxy     :     0.000124
 16 H s       :     0.858869  s :     0.858869
      pz      :     0.040962  p :     0.145451
      px      :     0.041558
      py      :     0.062931
      dz2     :     0.004117  d :     0.027363
      dxz     :     0.002834
      dyz     :     0.005567
      dx2y2   :     0.007732
      dxy     :     0.007113
 17 H s       :     0.858869  s :     0.858869
      pz      :     0.040960  p :     0.145447
      px      :     0.041559
      py      :     0.062928
      dz2     :     0.004116  d :     0.027362
      dxz     :     0.002834
      dyz     :     0.005567
      dx2y2   :     0.007732
      dxy     :     0.007112
 18 H s       :     0.868436  s :     0.868436
      pz      :     0.077545  p :     0.147274
      px      :     0.037413
      py      :     0.032316
      dz2     :     0.009367  d :     0.026825
      dxz     :     0.008859
      dyz     :     0.007983
      dx2y2   :     0.000129
      dxy     :     0.000486
 19 H s       :     0.845632  s :     0.845632
      pz      :     0.041255  p :     0.151874
      px      :     0.047589
      py      :     0.063029
      dz2     :     0.003968  d :     0.028093
      dxz     :     0.002854
      dyz     :     0.005769
      dx2y2   :     0.008253
      dxy     :     0.007249
 20 H s       :     0.852573  s :     0.852573
      pz      :     0.058137  p :     0.154812
      px      :     0.055848
      py      :     0.040827
      dz2     :     0.008332  d :     0.027757
      dxz     :     0.006887
      dyz     :     0.004369
      dx2y2   :     0.003074
      dxy     :     0.005095
 21 H s       :     0.849871  s :     0.849871
      pz      :     0.040084  p :     0.151186
      px      :     0.050383
      py      :     0.060720
      dz2     :     0.002573  d :     0.027671
      dxz     :     0.003633
      dyz     :     0.005622
      dx2y2   :     0.008627
      dxy     :     0.007217
 22 H s       :     0.849870  s :     0.849870
      pz      :     0.040084  p :     0.151189
      px      :     0.050384
      py      :     0.060721
      dz2     :     0.002573  d :     0.027672
      dxz     :     0.003633
      dyz     :     0.005622
      dx2y2   :     0.008627
      dxy     :     0.007217


                      *****************************
                      * MAYER POPULATION ANALYSIS *
                      *****************************

  NA   - Mulliken gross atomic population
  ZA   - Total nuclear charge
  QA   - Mulliken gross atomic charge
  VA   - Mayer's total valence
  BVA  - Mayer's bonded valence
  FA   - Mayer's free valence

  ATOM       NA         ZA         QA         VA         BVA        FA
  0 C      6.0891     6.0000    -0.0891     3.8351     3.8351     0.0000
  1 C      6.1862     6.0000    -0.1862     3.8759     3.8759     0.0000
  2 C      6.0888     6.0000    -0.0888     3.9098     3.9098     0.0000
  3 N      7.2348     7.0000    -0.2348     2.9298     2.9298     0.0000
  4 C      6.0888     6.0000    -0.0888     3.9098     3.9098     0.0000
  5 C      6.1862     6.0000    -0.1862     3.8759     3.8759     0.0000
  6 C      6.1842     6.0000    -0.1842     3.9226     3.9226     0.0000
  7 C      6.3107     6.0000    -0.3107     3.8813     3.8813     0.0000
  8 H      0.8986     1.0000     0.1014     0.9792     0.9792    -0.0000
  9 H      0.9365     1.0000     0.0635     0.9799     0.9799     0.0000
 10 H      0.8986     1.0000     0.1014     0.9792     0.9792    -0.0000
 11 H      0.9005     1.0000     0.0995     0.9907     0.9907     0.0000
 12 H      0.9021     1.0000     0.0979     0.9866     0.9866     0.0000
 13 H      0.9005     1.0000     0.0995     0.9907     0.9907    -0.0000
 14 H      0.8907     1.0000     0.1093     0.9765     0.9765     0.0000
 15 H      0.9452     1.0000     0.0548     0.9724     0.9724     0.0000
 16 H      0.9068     1.0000     0.0932     0.9772     0.9772     0.0000
 17 H      0.9068     1.0000     0.0932     0.9772     0.9772    -0.0000
 18 H      0.9365     1.0000     0.0635     0.9799     0.9799     0.0000
 19 H      0.9021     1.0000     0.0979     0.9866     0.9866     0.0000
 20 H      0.9068     1.0000     0.0932     0.9761     0.9761     0.0000
 21 H      0.8998     1.0000     0.1002     0.9814     0.9814     0.0000
 22 H      0.8998     1.0000     0.1002     0.9814     0.9814    -0.0000

  Mayer bond orders larger than 0.1
B(  0-C ,  1-C ) :   0.9516 B(  0-C ,  5-C ) :   0.9516 B(  0-C ,  7-C ) :   0.9475 
B(  0-C , 14-H ) :   0.9957 B(  1-C ,  2-C ) :   0.9633 B(  1-C , 11-H ) :   0.9867 
B(  1-C , 19-H ) :   0.9935 B(  2-C ,  3-N ) :   0.9746 B(  2-C ,  8-H ) :   0.9895 
B(  2-C , 18-H ) :   0.9731 B(  3-N ,  4-C ) :   0.9746 B(  3-N ,  6-C ) :   0.9904 
B(  4-C ,  5-C ) :   0.9633 B(  4-C ,  9-H ) :   0.9731 B(  4-C , 10-H ) :   0.9895 
B(  5-C , 12-H ) :   0.9935 B(  5-C , 13-H ) :   0.9867 B(  6-C , 15-H ) :   0.9655 
B(  6-C , 16-H ) :   0.9852 B(  6-C , 17-H ) :   0.9852 B(  7-C , 20-H ) :   0.9783 
B(  7-C , 21-H ) :   0.9862 B(  7-C , 22-H ) :   0.9862 

-------
TIMINGS
-------

Total SCF time: 0 days 0 hours 0 min 31 sec 

Total time                  ....      31.024 sec
Sum of individual times     ....      30.621 sec  ( 98.7%)

Fock matrix formation       ....      29.373 sec  ( 94.7%)
Diagonalization             ....       0.206 sec  (  0.7%)
Density matrix formation    ....       0.024 sec  (  0.1%)
Population analysis         ....       0.087 sec  (  0.3%)
Initial guess               ....       0.402 sec  (  1.3%)
Orbital Transformation      ....       0.000 sec  (  0.0%)
Orbital Orthonormalization  ....       0.000 sec  (  0.0%)
DIIS solution               ....       0.000 sec  (  0.0%)
SOSCF solution              ....       0.249 sec  (  0.8%)


           ************************************************************
           *        Program running with 8 parallel MPI-processes     *
           *              working on a common directory               *
           ************************************************************


------------------------------------------------------------------------------- 
                              ORCA-MATRIX DRIVEN CI                            
------------------------------------------------------------------------------- 


Wavefunction type
-----------------
Correlation treatment                      ...      CCSD     
Single excitations                         ... ON
Orbital optimization                       ... OFF
Calculation of Z vector                    ... OFF
Calculation of Brueckner orbitals          ... OFF
Perturbative triple excitations            ... ON
Calculation of F12 correction              ... OFF
Frozen core treatment                      ... chemical core (16 el)
Reference Wavefunction                     ... RHF
  Internal Orbitals:     8 ...   31 ( 24 MO's/ 48 electrons)
  Virtual  Orbitals:    32 ...  449 (418 MO's              )
Number of AO's                             ...    450
Number of electrons                        ...     64
Number of correlated electrons             ...     48

Algorithmic settings
--------------------
Integral transformation                    ... All integrals via the RI transformation
K(C) Formation                             ... RI-DLPNO
   PNO-Integral Storage                    ... ON DISK
   PNO occupation number cut-off           ... 1.000e-07
   Singles PNO occupation number cut-off   ... 3.000e-09
   PNO Mulliken prescreening cut-off       ... 1.000e-03
   Domain cut-off (Mulliken population)    ... 1.000e-03
   PNO Normalization                       ...    1
Maximum number of iterations               ...        50
Convergence tolerance (max. residuum)      ... 1.000e-05
Level shift for amplitude update           ... 2.000e-01
Maximum number of DIIS vectors             ...         7
DIIS turned on at iteration                ...         0
Damping before turning on DIIS             ...     0.500
Damping after turning on DIIS              ...     0.000
Pair specific amplitude update             ... OFF
Natural orbital iterations                 ... OFF
Perturbative natural orbital generation    ... OFF
Printlevel                                 ... 2

Singles Fock matrix elements calculated using PNOs.

Memory handling:
----------------
Maximum memory for working arrays          ...   8000 MB
Data storage in matrix containers          ... UNCOMPRESSED
Data type for integral storage             ... DOUBLE
In-Core Storage of quantities:
   Amplitudes+Sigma Vector      ... NO
   J+K operators                ... NO
   DIIS vectors                 ... NO
   3-external integrals         ... NO
   4-external integrals         ... NO

Localization treatment:
-----------------------
Localization option                        ...    6
Localization threshhold                    ... -1.0e+00
Using relative localization threshhold     ... 1.0e-08
Neglect threshold for strong pairs         ... 1.000e-05 Eh
Prescreening threshold for very weak pairs ... 1.000e-07 Eh

Initializing the integral package          ... done
Localizing the valence orbitals
------------------------------------------------------------------------------
                           ORCA ORBITAL LOCALIZATION
------------------------------------------------------------------------------

Input orbitals are from                  ... N_4_dimethylpiperidine_eq_ax.proc0.gbw
Output orbitals are to                   ... N_4_dimethylpiperidine_eq_ax.proc0.loc
Max. number of iterations                ... 128
Localizations seeded randomly            ... off
Convergence tolerance                    ... 1.000e-06
Using relative localization threshhold   ... 1.000e-08
Treshold for strong local MOs            ... 9.500e-01
Treshold for bond MOs                    ... 8.500e-01
Operator                                 ... 0
Orbital range for localization           ... 8 to 31
Localization criterion                   ... FOSTER-BOYS (AUGMENTED HESSIAN)
Doing the dipole integrals     ... o.k.
Initial value of the localization sum :   299.548871
ITERATION   0 : L=  374.9658495351 DL=  7.54e+01 (AVERGE_DL)=    0.5227331277 
ITERATION   1 : L=  382.9877692837 DL=  8.02e+00 (AVERGE_DL)=    0.1704843882 
ITERATION   2 : L=  383.1146047635 DL=  1.27e-01 (AVERGE_DL)=    0.0214370903 
ITERATION   3 : L=  383.1147692287 DL=  1.64e-04 (AVERGE_DL)=    0.0007719381 
ITERATION   4 : L=  383.1147699041 DL=  6.75e-07 (AVERGE_DL)=    0.0000494664 
LOCALIZATION SUM CONVERGED

------------------------------------------------------
AUGMENTED HESSIAN OPTIMIZATION OF FOSTER-BOYS ORBITALS
------------------------------------------------------

Spin operator:           0
Orbital window:          8 to 31
Number of iterations:    128
Gradient tolerance:      1.000e-06
Number of pairs:         276
Davidson threshold:      2000
Diagonalization method:  LAPACK
Iter:    0   L: 383.1147699041   Grad. norm: 1.342020e-03
   *** Likely close to a maximum now. ***
       Augmented Hessian eigenvalues:  1.91e-08 -6.44e+00 -6.54e+00 -9.32e+00 ... 
Iter:    1   L: 383.1147699136   Grad. norm: 3.226001e-09
LOCALIZATION HAS CONVERGED.

Eigenvalues of the Hessian:
  0 -6.444e+00
  1 -6.539e+00
  2 -9.324e+00
  3 -1.260e+01
  4 -1.632e+01
  5 -1.647e+01
  6 -1.716e+01
  7 -1.763e+01
  8 -1.796e+01
[...]

Processing maps (0.0 sec)
Average map sizes:
   Aux shells -> MOs              24.0
   Aux shells -> PAOs            450.0
   MOs        -> AO shells       160.4
   PAOs       -> AO shells       168.9

Calculating integrals (1.2 sec, 90.485 MB)
Sorting integrals (0.2 sec, 90.473 MB)
Total time for the integral transformation: 1.4 sec
--------------------------------
INITIAL GUESS AND PNO GENERATION
--------------------------------

PNO truncation parameters                   .... 
    ScaleTCutPNO       =        1.000e-02
    PAOOverlapThresh   =        1.000e-08

    TCutPairs          =        1.000e-05
    TCutPNO            =        1.000e-07
    TCutPNOSingles     =        3.000e-09
    TCutMP2Pairs       =        1.000e-06
    TCutMKN            =        1.000e-03
    TCutDO             =        5.000e-03

Pair selection                          .... not used
Type of local MP2 treatment                 .... full local PMP2
Strategy for PNO selection                  .... occupation number selection
Pair density normalization                  .... MP2 norm
Spin component scaling                      .... not used

PASS-1: Formation of initial guess LMP2 amplitudes
Initial amplitudes guess done. Entering LMP2 iteration loop:
   Max. no of iterations          ...  50
   Energy convergence tolerance   ...    1.0e-07
   Residual convergence tolerance ...    5.0e-07
   Fock matrix cutoff             ...    1.0e-05 Eh
   DIIS convergence acceleration parameters:
        Max # vectors in DIIS     ... 7
        Start iteration of DIIS   ... 0
        Levelshift                ... 2.000e-01
        Damping factor 1          ... 5.000e-01
        Damping factor 2          ... 1.000e+00
   L-MP2 PNO cut-off              ...   1.0e-09
   L-MP2 PNO cut-off (core)       ...   1.0e-11
                           *** Turning on DIIS ***
LMP2-Iter=   0:  ELMP2= -1.415518121437  DE=   2.5e-02 RMAX=   3.5e-03
LMP2-Iter=   1:  ELMP2= -1.428218546825  DE=   1.3e-02 RMAX=   1.4e-03
LMP2-Iter=   2:  ELMP2= -1.430114176343  DE=   1.9e-03 RMAX=   2.7e-04
LMP2-Iter=   3:  ELMP2= -1.430278759932  DE=   1.6e-04 RMAX=   9.7e-05
LMP2-Iter=   4:  ELMP2= -1.430282905049  DE=   4.1e-06 RMAX=   2.9e-05
LMP2-Iter=   5:  ELMP2= -1.430281317179  DE=   1.6e-06 RMAX=   9.8e-06
LMP2-Iter=   6:  ELMP2= -1.430281194803  DE=   1.2e-07 RMAX=   2.2e-06
LMP2-Iter=   7:  ELMP2= -1.430281206879  DE=   1.2e-08 RMAX=   5.5e-07
LMP2-Iter=   8:  ELMP2= -1.430281212292  DE=   5.4e-09 RMAX=   7.1e-08 => CONVERGED
PASS-2: Formation of Pair natural orbitals
   .... Finished loop over pairs

 PNO Occupation Number Statistics: 
  | Av. % of trace(Dij) retained        ...  99.388987977731
  | sigma^2 in % of trace(Dij) retained ...   5.18e-01
  | Av. % of trace(Di) retained         ...  99.999687671469
  | sigma^2 in % of trace(Di) retained  ...   1.15e-08
 Distributions of % trace(Dij) recovered:
  |       >= 99.9  ...    75 ( 25.0 % of all pairs)
  |   [90.0, 99.0) ...    61 ( 20.3 % of all pairs)
  |   [99.0, 99.9) ...   164 ( 54.7 % of all pairs)
 Distributions of % trace(Di) recovered :
  |       >= 99.9  ...    24 (100.0 % of all I-pairs )

Making pair pair interaction lists          ... done

                       ===========================
                        294 OF  300 PAIRS ARE KEPT
                       ===========================

Total time spent in the initial guess                 ...    36.896 sec
L-MP2 correlation energy (all non-screened pairs)     ...      -1.430281212292 Eh
L-MP2 PNO error correction                            ...      -0.000041915576 Eh
                                                          --------------------
Initial total L-MP2 energy (non-screened pairs)       ...      -1.430323127869 Eh

Initial PNO correlation energy                        ...      -1.428648654639 Eh
sum of pair energies estimated for screened out pairs ...       0.000000000000 Eh
sum of MP2 pair energies for pairs that were not kept ...      -0.000041028735 Eh
sum of PNO error estimates for the kept pairs         ...      -0.001633444495 Eh
                                                          --------------------
sum of all corrections                                         -0.001674473230
Initial total correlation energy                               -1.430323127869
Thresholds for map construction and integral transformation for fine MP2 and CCSD(T) calculation:
   TCutMKN   ...     1.0e-03
   TCutDO    ...     5.0e-03
   TCutPairs ...     1.0e-05
   TCutCMO   ...     1.0e-03
   TCutCPAO  ...     1.0e-03

Time for aux screen maps:            0.008
Time for maps after fine MP2:            0.026
-----------------------------
LOCAL RI TRANSFORMATION (IJV)
-----------------------------

Orbital window:       8 to 31
Basis functions:    450 (170 shells)
Aux. functions:    1098 (334 shells)

Processing maps (0.0 sec)
Average map sizes:
   Aux shells -> MOs(i)           24.0
   Aux shells -> MOs(j)           24.0
   MOs        -> AO shells       160.4

Calculating integrals (1.1 sec, 4.838 MB)
Sorting integrals (0.0 sec, 4.825 MB)
Total time for the integral transformation: 1.1 sec
--------------------------------
LOCAL RI TRANSFORMATION (VABPAO)
--------------------------------

Number of PAOs:     450
Basis functions:    450 (170 shells)
Aux. functions:    1098 (334 shells)

Processing maps (0.0 sec)
Average map sizes:
   Aux shells -> PAOs            450.0
   PAOs       -> AO shells       168.9

Calculating integrals (4.5 sec, 3188.805 MB)
Finished


-------------------------------------
Pair Pair Term precalculation with     
RI-(ij|mn) and (im|jn) transformation  
ON THE FLY                             
-------------------------------------

   IBatch   1 (of   3)              ... done (   87.344 sec)
   IBatch   2 (of   3)              ... done (  121.629 sec)
   IBatch   3 (of   3)              ... done (   14.111 sec)
Total EXT                           ...         223.447 sec

---------------------
RI-PNO TRANSFORMATION
---------------------

Total Number of PNOs                   ... 11781
Average number of PNOs per pair        ...    40
Maximal number of PNOs per pair        ...    71
   #pairs with  1 -  5 PNOs   :    0
   #pairs with  6 - 10 PNOs   :   14
   #pairs with 11 - 15 PNOs   :   21
   #pairs with 16 - 20 PNOs   :   21
   #pairs with 21 - 25 PNOs   :   15
   #pairs with 26 - 30 PNOs   :   37
   #pairs with 31 - 35 PNOs   :   30
   #pairs with 36 - 40 PNOs   :   12
   #pairs with 41 - 45 PNOs   :    4
   #pairs with 46 - 50 PNOs   :   40
   #pairs with 51 - 55 PNOs   :   34
   #pairs with 56 - 60 PNOs   :    6
   #pairs with 61 - 65 PNOs   :   23
   #pairs with 66 - 70 PNOs   :   30
   #pairs with 71 - 75 PNOs   :    7

Generation of (ij|ab)[P] integrals            ... on
Generation of (ia|bc)[P],(ja|bc)[P] integrals ... on
Storage of 3 and 4 external integrals         ... on
Generation of ALL (ka|bc)[P] integrals        ... on
Keep RI integrals in memory                   ... off

Ibatch:  1 (of  1)
Starting 2-4 index PNO integral generation ... done

Timings:
Total PNO integral transformation time     ...        101.025 sec
Size of the 3-external file                ...       242 MB
Size of the 4-external file                ...      1779 MB
Size of the IKJL file                      ...         0 MB
Size of the all 3-external file            ...      2908 MB
Size of the 1-external file                ...         6 MB

Making pair/pair overlap matrices          ... done (    8.816 sec)
Size of the pair overlap file              ... 753 MB
Redoing the guess amplitudes               ... done (    0.155 sec)

-------------------------
FINAL STARTUP INFORMATION
-------------------------

E(0)                                       ...   -328.361133877
E(L-MP2)                                   ...     -1.430323128
E(L-MP2) including corrections             ...     -1.430323128
Initial E(tot)                             ...   -329.791457005
<T|T>                                      ...      0.405192550
Number of pairs included                   ... 294
Total number of pairs                      ... 300

------------------------------------------------
                  RHF COUPLED CLUSTER ITERATIONS
------------------------------------------------

Number of PNO amplitudes to be optimized   ...       574777
Number of non-PNO amplitudes               ...     51368856
Untruncated number of regular amplitudes   ...     52417200

Iter       E(tot)           E(Corr)          Delta-E          Residual     Time
  0   -329.751668220     -1.388859869      0.041463259      0.011793409   38.13
                           *** Turning on DIIS ***
  1   -329.819123664     -1.456315314     -0.067455445      0.005089951   22.60
  2   -329.856623535     -1.493815185     -0.037499871      0.002026787   20.95
  3   -329.863302719     -1.500494369     -0.006679184      0.000694828   20.82
  4   -329.864576885     -1.501768535     -0.001274166      0.000501252   20.88
  5   -329.864797053     -1.501988702     -0.000220168      0.000177153   20.99
  6   -329.864847587     -1.502039236     -0.000050534      0.000117344   21.00
  7   -329.864856360     -1.502048009     -0.000008773      0.000046155   20.94
  8   -329.864858704     -1.502050353     -0.000002343      0.000017676   20.97
  9   -329.864858412     -1.502050062      0.000000291      0.000003823   20.99
               --- The Coupled-Cluster iterations have converged ---

----------------------
COUPLED CLUSTER ENERGY
----------------------

E(0)                                       ...   -328.361133877
E(CORR)(strong-pairs)                      ...     -1.502050062
E(CORR)(weak-pairs)                        ...     -0.001674473
E(CORR)(corrected)                         ...     -1.503724535
E(TOT)                                     ...   -329.864858412
Singles Norm <S|S>**1/2                    ...      0.061432823  
T1 diagnostic                              ...      0.008867064  

------------------
LARGEST AMPLITUDES
------------------
  27-> 38  27-> 38       0.031535
  18-> 38  18-> 38       0.031534
  23-> 37  23-> 37       0.030357
  27-> 32  27-> 32       0.029317
  18-> 32  18-> 32       0.029316
  24-> 39  24-> 39       0.029138
  24-> 32  24-> 32       0.028361
  29-> 32  29-> 32       0.028162
  21-> 32  21-> 32       0.027749
  28-> 32  28-> 32       0.027748
  22-> 32  22-> 32       0.027602
  20-> 32  20-> 32       0.027602
  20-> 38  20-> 38       0.027592
  22-> 38  22-> 38       0.027588
  23-> 32  23-> 32       0.027157
  30-> 32  30-> 32       0.026958


-------------------------------------------
DLPNO BASED TRIPLES CORRECTION
-------------------------------------------

Singles multiplier          ...  1.000000
TCutTNO                     ... 1.000e-09
TCutMP2Pairs                ... 1.000e-06
TCutDOStrong                ... 1.000e-02
TCutMKNStrong               ... 1.000e-02
TCutDOWeak                  ... 2.000e-02
TCutMKNWeak                 ... 1.000e-01

Fragment selection                          .... not used
Number of Triples that are to be computed   ...      2555

 . . . . . . . . .
10% done  
20% done  
30% done  
40% done  
50% done  
60% done  
70% done  
80% done  
90% done               (    608.414 sec)
Triples timings:
Total time for T0               ...   647.136 sec
Total time for Iterative (T)    ...     0.000 sec
Total time of overall (T)       ...   655.048 sec

Triples List generation         ...     0.007 sec
TNO generation                  ...    38.665 sec
Pair density generation         ...     0.006 sec
Look up tables                  ...     0.009 sec
Generating 3-index integrals    ...   492.001 sec
  Make 4-ind.int. from 3-ind.int...    30.894 sec
  Projecting amplitudes (D + S) ...    44.328 sec
  Downprojecting integrals      ...     0.006 sec
  Energy contr. (sum over a,b,c)...    11.455 sec
Fitting ET(->0)                 ...     0.000 sec

Everything after 3-index        ...   116.413 sec

Timing details:
 TNO integrals                  ...   520.004 sec
   Reading 3-index integrals    ...     0.928 sec
   Sorting integrals            ...    42.764 sec
       Sorting integrals 1      ...     0.003 sec
       Sorting integrals 2      ...    30.564 sec
       Sorting integrals 3      ...     0.993 sec
       Sorting integrals 4      ...     0.078 sec
       Sorting integrals 5      ...     0.441 sec
       Sorting integrals 6      ...    10.684 sec
   Calculating local VM**-1/2   ...     1.048 sec
   Orthogonal. integrals        ...     1.656 sec
   Multipl. 3-index integrals   ...   473.608 sec
   All concerning IRIab (w/TNO) ...    16.607 sec

 Calculate W0/W1                ...    29.716 sec
 W 3-ext contribution           ...    15.982 sec
 W 3-int contribution           ...     4.725 sec
 Sorting W                      ...     8.587 sec

 V exchange contribution        ...     3.855 sec

 Timings for Triples without generation
     of 3-index integrals       ...   116.408 sec
       0 weak pairs             ...   114.707 sec
       1 weak pair              ...     1.701 sec
       2 weak pairs             ...     0.000 sec
       3 weak pairs             ...     0.000 sec
  Extra time for extrapolation  ...     0.000 sec

Number of Triples   (0, 1, 2, 3 weak pairs; overall):   2441     114       0       0  (  2555)
Number of Atoms     (0, 1, 2, 3 weak pairs; overall):   21.5    19.5     0.0     0.0  (    23)
Number of PAOs      (0, 1, 2, 3 weak pairs; overall):  426.4   399.4     0.0     0.0  (   450)
Number of AuxFcns   (0, 1, 2, 3 weak pairs; overall):  436.3   340.1     0.0     0.0  (  1098)
Number of TNOs      (0, 1, 2, 3 weak pairs         ):  101.0    64.2     0.0     0.0
Aver. Number of NTNO, Atoms, PAOs, AuxFcns / Triples:   2555    99.4    21.4   425.2   432.0

Triples Correction (T)                     ...     -0.060555026
Final correlation energy                   ...     -1.564279561
E(CCSD)                                    ...   -329.864858412
E(CCSD(T))                                 ...   -329.925413438


Maximum memory used throughout the entire calculation: 7934.2 MB


------------------------------------------------------------------------------- 
                                     TIMINGS                                   
------------------------------------------------------------------------------- 


Total execution time                   ...     1280.835 sec

Localization of occupied MO's          ...        0.740 sec (  0.1%)
Fock Matrix Formation                  ...        5.605 sec (  0.4%)
Global overlap, Fock, MKN matrices     ...        0.277 sec (  0.0%)
Differential overlap integrals         ...        0.201 sec (  0.0%)
Organizing maps                        ...        0.076 sec (  0.0%)
RI 3-index integral generations        ...        8.494 sec (  0.7%)
RI-PNO integral transformation         ...      337.416 sec ( 26.3%)
Initial Guess                          ...       42.432 sec (  3.3%)
DIIS Solver                            ...        2.503 sec (  0.2%)
State Vector Update                    ...        1.844 sec (  0.1%)
Sigma-vector construction              ...      226.028 sec ( 17.6%)
  <0|H|D>                              ...        0.001 sec (  0.0% of sigma)
  <D|H|D>(0-ext)                       ...        5.498 sec (  2.4% of sigma)
  <D|H|D>(2-ext Fock)                  ...        0.020 sec (  0.0% of sigma)
  <D|H|D>(2-ext)                       ...       51.853 sec ( 22.9% of sigma)
  <D|H|D>(4-ext)                       ...       22.743 sec ( 10.1% of sigma)
  <D|H|D>(4-ext-corr)                  ...       99.029 sec ( 43.8% of sigma)
  CCSD doubles correction              ...        0.329 sec (  0.1% of sigma)
  <S|H|S>                              ...        1.216 sec (  0.5% of sigma)
  <S|H|D>(1-ext)                       ...        0.621 sec (  0.3% of sigma)
  <D|H|S>(1-ext)                       ...        0.018 sec (  0.0% of sigma)
  <S|H|D>(3-ext)                       ...        0.712 sec (  0.3% of sigma)
  Fock-dressing                        ...       28.237 sec ( 12.5% of sigma)
  Singles amplitudes                   ...        0.883 sec (  0.4% of sigma)
  (ik|jl)-dressing                     ...        4.065 sec (  1.8% of sigma)
  (ij|ab),(ia|jb)-dressing             ...        3.393 sec (  1.5% of sigma)
  Pair energies                        ...        0.011 sec (  0.0% of sigma)
Total Time for computing (T)           ...      655.151 sec ( 51.2% of ALL)


-------------------------   --------------------
FINAL SINGLE POINT ENERGY      -329.925413438097
-------------------------   --------------------


                            ***************************************
                            *     ORCA property calculations      *
                            ***************************************

                                    ---------------------
                                    Active property flags
                                    ---------------------
   (+) Dipole Moment


------------------------------------------------------------------------------
                       ORCA ELECTRIC PROPERTIES CALCULATION
------------------------------------------------------------------------------

Dipole Moment Calculation                       ... on
Quadrupole Moment Calculation                   ... off
Polarizability Calculation                      ... off
GBWName                                         ... N_4_dimethylpiperidine_eq_ax.gbw
Electron density file                           ... N_4_dimethylpiperidine_eq_ax.scfp.tmp
The origin for moment calculation is the CENTER OF MASS  = ( 0.014491,  0.000000 -0.039681)

-------------
DIPOLE MOMENT
-------------
                                X             Y             Z
Electronic contribution:      0.85078       0.00009      -2.35703
Nuclear contribution   :     -0.92736      -0.00009       2.53958
                        -----------------------------------------
Total Dipole Moment    :     -0.07657       0.00000       0.18255
                        -----------------------------------------
Magnitude (a.u.)       :      0.19796
Magnitude (Debye)      :      0.50317



--------------------
Rotational spectrum 
--------------------
 
Rotational constants in cm-1:     0.115453     0.050957     0.043546 
Rotational constants in MHz :  3461.208328  1527.647131  1305.485233 

 Dipole components along the rotational axes: 
x,y,z [a.u.] :     0.077005     0.000002     0.182366 
x,y,z [Debye]:     0.195732     0.000005     0.463538 

 

Timings for individual modules:

Sum of individual times         ...     1321.060 sec (=  22.018 min)
GTO integral calculation        ...        1.585 sec (=   0.026 min)   0.1 %
SCF iterations                  ...       31.154 sec (=   0.519 min)   2.4 %
MDCI module                     ...     1288.321 sec (=  21.472 min)  97.5 %
                             ****ORCA TERMINATED NORMALLY****
TOTAL RUN TIME: 0 days 0 hours 22 minutes 2 seconds 371 msec
N_4_dimethylpiperidine_eq_ax.gbw -> /home1/pantazis/klk/xyz/Nitrogen_compounds/N_4_dimethylpiperidine_eq_ax.gbw
N_4_dimethylpiperidine_eq_ax.job -> /home1/pantazis/klk/xyz/Nitrogen_compounds/N_4_dimethylpiperidine_eq_ax.job
N_4_dimethylpiperidine_eq_ax.loc -> /home1/pantazis/klk/xyz/Nitrogen_compounds/N_4_dimethylpiperidine_eq_ax.loc
N_4_dimethylpiperidine_eq_ax.nodes -> /home1/pantazis/klk/xyz/Nitrogen_compounds/N_4_dimethylpiperidine_eq_ax.nodes
N_4_dimethylpiperidine_eq_ax.prop -> /home1/pantazis/klk/xyz/Nitrogen_compounds/N_4_dimethylpiperidine_eq_ax.prop
N_4_dimethylpiperidine_eq_ax_property.txt -> /home1/pantazis/klk/xyz/Nitrogen_compounds/N_4_dimethylpiperidine_eq_ax_property.txt
N_4_dimethylpiperidine_eq_ax.xyz -> /home1/pantazis/klk/xyz/Nitrogen_compounds/N_4_dimethylpiperidine_eq_ax.xyz
cp: cannot stat N_4_dimethylpiperidine_eq_ax.asa.inp: No such file or directory
