! Job execution by suborca V 6.07 on ZEUS !
Job started from zeus1, running /scratch/pantazis/N_methylacetamide_Z__Zq69rU/orca/orca copied from /opt/orca on zeussn143 in /scratch/pantazis/N_methylacetamide_Z__Zq69rU
Job execution start: Fri Jun 28 00:53:56 CEST 2019
Shared library path: /scratch/pantazis/N_methylacetamide_Z__Zq69rU/orca:/opt/openmpi_1.10.2/lib:/opt/intel/mkl/lib/intel64:/opt/intel/lib/intel64:
PBS Job ID is: 158272.icqc
izeussn143
izeussn143
izeussn143
izeussn143
izeussn143
izeussn143
izeussn143
izeussn143

                                 *****************
                                 * O   R   C   A *
                                 *****************

           --- An Ab Initio, DFT and Semiempirical electronic structure package ---

                  #######################################################
                  #                        -***-                        #
                  #          Department of theory and spectroscopy      #
                  #               Directorship: Frank Neese             #
                  #        Max Planck Institute fuer Kohlenforschung    #
                  #                Kaiser Wilhelm Platz 1               #
                  #                 D-45470 Muelheim/Ruhr               #
                  #                      Germany                        #
                  #                                                     #
                  #                  All rights reserved                #
                  #                        -***-                        #
                  #######################################################


                         Program Version 4.1.x  -  STABLE  -
                                (SVN: $Rev: 14094$)
                ($Date: 2019-06-14 15:01:15 +0200 (Fri, 14 Jun 2019) $)

                         (BUILD: $Sun Jun 23 06:18:31 CEST 2019$)


 With contributions from (in alphabetic order):
   Daniel Aravena         : Magnetic Properties
   Michael Atanasov       : Ab Initio Ligand Field Theory
   Alexander A. Auer      : GIAO ZORA
   Ute Becker             : Parallelization
   Giovanni Bistoni       : ED, Open-shell LED
   Martin Brehm           : Molecular dynamics
   Dmytro Bykov           : SCF Hessian
   Vijay G. Chilkuri      : MRCI spin determinant printing
   Dipayan Datta          : RHF DLPNO-CCSD density
   Achintya Kumar Dutta   : EOM-CC, STEOM-CC
   Dmitry Ganyushin       : Spin-Orbit,Spin-Spin,Magnetic field MRCI
   Miquel Garcia          : C-PCM Hessian
   Yang Guo               : DLPNO-NEVPT2, CIM, IAO-localization
   Andreas Hansen         : Spin unrestricted coupled pair/coupled cluster methods
   Benjamin Helmich-Paris : CASSCF linear response (MC-RPA)
   Lee Huntington         : MR-EOM, pCC
   Robert Izsak           : Overlap fitted RIJCOSX, COSX-SCS-MP3, EOM
   Christian Kollmar      : KDIIS, OOCD, Brueckner-CCSD(T), CCSD density
   Simone Kossmann        : Meta GGA functionals, TD-DFT gradient, OOMP2, MP2 Hessian
   Martin Krupicka        : AUTO-CI
   Lucas Lang             : DCDCAS
   Dagmar Lenk            : GEPOL surface, SMD
   Dimitrios Liakos       : Extrapolation schemes; parallel MDCI
   Dimitrios Manganas     : ROCIS; embedding schemes
   Dimitrios Pantazis     : SARC Basis sets
   Taras Petrenko         : DFT Hessian,TD-DFT gradient, ASA, ECA, R-Raman, ABS, FL, XAS/XES, NRVS
   Peter Pinski           : DLPNO-MP2, DLPNO-MP2 Gradient
   Christoph Reimann      : Effective Core Potentials
   Marius Retegan         : Local ZFS, SOC
   Christoph Riplinger    : Optimizer, TS searches, QM/MM, DLPNO-CCSD(T), (RO)-DLPNO pert. Triples
   Tobias Risthaus        : Range-separated hybrids, TD-DFT gradient, RPA, STAB
   Michael Roemelt        : Restricted open shell CIS
   Masaaki Saitow         : Open-shell DLPNO
   Barbara Sandhoefer     : DKH picture change effects
   Avijit Sen             : IP-ROCIS
   Kantharuban Sivalingam : CASSCF convergence, NEVPT2, FIC-MRCI
   Bernardo de Souza      : ESD, SOC TD-DFT
   Georgi Stoychev        : AutoAux, RI-MP2 NMR
   Willem Van den Heuvel  : Paramagnetic NMR
   Boris Wezisla          : Elementary symmetry handling
   Frank Wennmohs         : Technical directorship


 We gratefully acknowledge several colleagues who have allowed us to
 interface, adapt or use parts of their codes:
   Stefan Grimme, W. Hujo, H. Kruse,             : VdW corrections, initial TS optimization,
                  C. Bannwarth                     DFT functionals, gCP, sTDA/sTD-DF
   Ed Valeev                                     : LibInt (2-el integral package), F12 methods
   Garnet Chan, S. Sharma, J. Yang, R. Olivares  : DMRG
   Ulf Ekstrom                                   : XCFun DFT Library
   Mihaly Kallay                                 : mrcc  (arbitrary order and MRCC methods)
   Andreas Klamt, Michael Diedenhofen            : otool_cosmo (COSMO solvation model)
   Jiri Pittner, Ondrej Demel                    : Mk-CCSD
   Frank Weinhold                                : gennbo (NPA and NBO analysis)
   Christopher J. Cramer and Donald G. Truhlar   : smd solvation model
   Lars Goerigk                                  : TD-DFT with DH, B97 family of functionals
   V. Asgeirsson, H. Jonsson                     : NEB implementation
   FAccTs GmbH                                   : IRC, NEB, NEB-TS, Multilevel


 Your calculation uses the libint2 library for the computation of 2-el integrals
 For citations please refer to: http://libint.valeyev.net

 This ORCA versions uses:
   CBLAS   interface :  Fast vector & matrix operations
   LAPACKE interface :  Fast linear algebra routines
   SCALAPACK package :  Parallel linear algebra routines




***************************************
The coordinates will be read from file: N_methylacetamide_Z.xyz
***************************************


----- Orbital basis set information -----
Your calculation utilizes the basis: cc-pVTZ 
       H, B-Ne : Obtained from the ccRepo (grant-hill.group.shef.ac.uk/ccrepo) Feb. 2017
                 T. H. Dunning, Jr., J. Chem. Phys. 90, 1007 (1989)
            He : Obtained from the ccRepo (grant-hill.group.shef.ac.uk/ccrepo) Feb. 2017
                 D. E. Woon, T. H. Dunning, Jr., J. Chem. Phys. 100, 2975 (1994)
  Li-Be, Na-Mg : Obtained from the ccRepo (grant-hill.group.shef.ac.uk/ccrepo) Feb. 2017
                 B. P. Prascher, D. E. Woon, K. A. Peterson, T. H. Dunning, Jr., A. K. Wilson, Theor. Chem. Acc. 128, 69 (2011)
         Al-Ar : Obtained from the ccRepo (grant-hill.group.shef.ac.uk/ccrepo) Feb. 2017
                 D. E. Woon, T. H. Dunning, Jr., J. Chem. Phys. 98, 1358 (1993)
            Ca : Obtained from the Peterson Research Group Website (tyr0.chem.wsu.edu/~kipeters) Feb. 2017
                 J. Koput, K. A. Peterson, J. Phys. Chem. 106, 9595 (2002)
         Sc-Zn : Obtained from the ccRepo (grant-hill.group.shef.ac.uk/ccrepo) Feb. 2017
                 N. B. Balabanov, K. A. Peterson, J. Chem. Phys. 123, 064107 (2005)
                 N. B. Balabanov, K. A. Peterson, J. Chem. Phys. 125, 074110 (2006)
         Ga-Kr : Obtained from the ccRepo (grant-hill.group.shef.ac.uk/ccrepo) Feb. 2017
                 A. K. Wilson, D. E. Woon, K. A. Peterson, T. H. Dunning, Jr., J. Chem. Phys. 110, 7667 (1999)
             Y : Obtained from the ccRepo (grant-hill.group.shef.ac.uk/ccrepo) Feb. 2017
                 K. A. Peterson, D. Figgen, M. Dolg, H. Stoll, J. Chem. Phys. 126, 124101 (2007)
        Ag, Au : Obtained from the Peterson Research Group Website (tyr0.chem.wsu.edu/~kipeters) Feb. 2017
                 K. A. Peterson, C. Puzzarini, Theor. Chem. Acc. 114, 283 (2005)

----- AuxC basis set information -----
Your calculation utilizes the auxiliary basis: cc-pVTZ/C 
  Obtained from the EMSL Basis Set Exchange (bse.pnl.gov) Feb. 2017
  H-He, B-F, Al-Ar, Ga-Kr : F. Weigend, A. Kohn, C. Hattig, J. Chem. Phys. 116, 3175 (2002)
             Li-Be, Na-Mg : C. Haettig, Phys. Chem. Chem. Phys. 7, 59 (2005)
                       Ne : C. Haettig, Phys. Chem. Chem. Phys. 7, 59 (2005)
                            F. Weigend, A. Kohn, C. Hattig, J. Chem. Phys. 116, 3175 (2002)
                    Sc-Zn : J. G. Hill, J. A. Platts, J. Chem. Phys. 128, 044104 (2008)

----- AuxJK basis set information -----
Your calculation utilizes the auxiliary basis: cc-pVTZ/JK 
  H, B-F, Al-Cl, Ga-Br : Obtained from the TURBOMOLE 7.0 basis set library

================================================================================
                                        WARNINGS
                       Please study these warnings very carefully!
================================================================================


WARNING: MDCI localization with Augmented Hessian Foster-Boys
  ===> : Switching off randomization!

WARNING: Post HF methods need fully converged wavefunctions
  ===> : Setting SCFConvForced true
         You can overwrite this default with %scf ConvForced false 


INFO   : the flag for use of LIBINT has been found!

================================================================================
                                       INPUT FILE
================================================================================
NAME = N_methylacetamide_Z.inp
|  1> ! RHF DLPNO-CCSD(T) cc-pVTZ RIJK cc-pVTZ/JK cc-pVTZ/C
|  2> ! KDIIS SOSCF TightSCF TightPNO
|  3> 
|  4> %pal nprocs 8 end
|  5> 
|  6> %maxcore 8000
|  7> 
|  8> %scf maxiter 300
|  9>      shift shift 0.2 erroff 0.1 end
| 10> end
| 11> 
| 12> * xyzfile 0 1 N_methylacetamide_Z.xyz 
| 13> 
| 14> 
| 15>                          ****END OF INPUT****
================================================================================

                       ****************************
                       * Single Point Calculation *
                       ****************************

---------------------------------
CARTESIAN COORDINATES (ANGSTROEM)
---------------------------------
  C      1.833630   -0.538520    0.000060
  C      0.486150    0.169440   -0.000050
  N     -0.607980   -0.648890   -0.000220
  C     -1.962190   -0.112910    0.000100
  O      0.376830    1.393170   -0.000010
  H     -0.475800   -1.648740    0.000280
  H      1.945240   -1.173360   -0.886070
  H      2.621590    0.214540   -0.000310
  H      1.945430   -1.172610    0.886710
  H     -2.669190   -0.944890   -0.001790
  H     -2.136330    0.505440    0.886220
  H     -2.135230    0.508490   -0.884070

----------------------------
CARTESIAN COORDINATES (A.U.)
----------------------------
  NO LB      ZA    FRAG     MASS         X           Y           Z
   0 C     6.0000    0    12.011    3.465059   -1.017655    0.000113
   1 C     6.0000    0    12.011    0.918690    0.320195   -0.000094
   2 N     7.0000    0    14.007   -1.148916   -1.226224   -0.000416
   3 C     6.0000    0    12.011   -3.708002   -0.213369    0.000189
   4 O     8.0000    0    15.999    0.712105    2.632710   -0.000019
   5 H     1.0000    0     1.008   -0.899132   -3.115667    0.000529
   6 H     1.0000    0     1.008    3.675971   -2.217329   -1.674430
   7 H     1.0000    0     1.008    4.954087    0.405422   -0.000586
   8 H     1.0000    0     1.008    3.676330   -2.215912    1.675639
   9 H     1.0000    0     1.008   -5.044038   -1.785583   -0.003383
  10 H     1.0000    0     1.008   -4.037079    0.955143    1.674713
  11 H     1.0000    0     1.008   -4.035000    0.960907   -1.670650

--------------------------------
INTERNAL COORDINATES (ANGSTROEM)
--------------------------------
 C      0   0   0     0.000000000000     0.00000000     0.00000000
 C      1   0   0     1.522139850375     0.00000000     0.00000000
 N      2   1   0     1.366303214773   115.48893604     0.00000000
 C      3   2   1     1.456420058534   121.61310693   179.97964114
 O      2   1   3     1.228603262612   122.82211385   180.00103320
 H      3   2   1     1.008549366615   119.26299611     0.03536633
 H      1   2   3     1.095766852300   111.07399511    60.06881518
 H      1   2   3     1.089945164722   108.58013591   179.97216499
 H      1   2   3     1.095772599858   111.07093632   299.86985800
 H      4   3   2     1.091807351367   108.76410428   179.90709230
 H      4   3   2     1.094481665676   110.85689861   299.98298599
 H      4   3   2     1.094457578209   110.84117113    59.84221566

---------------------------
INTERNAL COORDINATES (A.U.)
---------------------------
 C      0   0   0     0.000000000000     0.00000000     0.00000000
 C      1   0   0     2.876427454737     0.00000000     0.00000000
 N      2   1   0     2.581938891818   115.48893604     0.00000000
 C      3   2   1     2.752235046579   121.61310693   179.97964114
 O      2   1   3     2.321723693578   122.82211385   180.00103320
 H      3   2   1     1.905882095443   119.26299611     0.03536633
 H      1   2   3     2.070699257476   111.07399511    60.06881518
 H      1   2   3     2.059697862316   108.58013591   179.97216499
 H      1   2   3     2.070710118787   111.07093632   299.86985800
 H      4   3   2     2.063216885086   108.76410428   179.90709230
 H      4   3   2     2.068270606725   110.85689861   299.98298599
 H      4   3   2     2.068225088010   110.84117113    59.84221566

---------------------
BASIS SET INFORMATION
---------------------
There are 4 groups of distinct atoms

 Group   1 Type C   : 18s5p2d1f contracted to 4s3p2d1f pattern {8811/311/11/1}
 Group   2 Type N   : 18s5p2d1f contracted to 4s3p2d1f pattern {8811/311/11/1}
 Group   3 Type O   : 18s5p2d1f contracted to 4s3p2d1f pattern {8811/311/11/1}
 Group   4 Type H   : 5s2p1d contracted to 3s2p1d pattern {311/11/1}

Atom   0C    basis set group =>   1
Atom   1C    basis set group =>   1
Atom   2N    basis set group =>   2
Atom   3C    basis set group =>   1
Atom   4O    basis set group =>   3
Atom   5H    basis set group =>   4
Atom   6H    basis set group =>   4
Atom   7H    basis set group =>   4
Atom   8H    basis set group =>   4
Atom   9H    basis set group =>   4
Atom  10H    basis set group =>   4
Atom  11H    basis set group =>   4
-------------------------------
AUXILIARY BASIS SET INFORMATION
-------------------------------
There are 4 groups of distinct atoms

 Group   1 Type C   : 8s6p5d3f1g contracted to 8s6p5d3f1g pattern {11111111/111111/11111/111/1}
 Group   2 Type N   : 8s6p5d3f1g contracted to 8s6p5d3f1g pattern {11111111/111111/11111/111/1}
 Group   3 Type O   : 8s6p5d3f1g contracted to 8s6p5d3f1g pattern {11111111/111111/11111/111/1}
 Group   4 Type H   : 4s3p2d1f contracted to 4s3p2d1f pattern {1111/111/11/1}

Atom   0C    basis set group =>   1
Atom   1C    basis set group =>   1
Atom   2N    basis set group =>   2
Atom   3C    basis set group =>   1
Atom   4O    basis set group =>   3
Atom   5H    basis set group =>   4
Atom   6H    basis set group =>   4
Atom   7H    basis set group =>   4
Atom   8H    basis set group =>   4
Atom   9H    basis set group =>   4
Atom  10H    basis set group =>   4
Atom  11H    basis set group =>   4
-------------------------------
AUXILIARY BASIS SET INFORMATION
-------------------------------
There are 4 groups of distinct atoms

 Group   1 Type C   : 10s7p5d2f1g contracted to 10s7p5d2f1g pattern {1111111111/1111111/11111/11/1}
 Group   2 Type N   : 10s7p5d2f1g contracted to 10s7p5d2f1g pattern {1111111111/1111111/11111/11/1}
 Group   3 Type O   : 10s7p5d2f1g contracted to 10s7p5d2f1g pattern {1111111111/1111111/11111/11/1}
 Group   4 Type H   : 4s3p2d1f contracted to 4s3p2d1f pattern {1111/111/11/1}

Atom   0C    basis set group =>   1
Atom   1C    basis set group =>   1
Atom   2N    basis set group =>   2
Atom   3C    basis set group =>   1
Atom   4O    basis set group =>   3
Atom   5H    basis set group =>   4
Atom   6H    basis set group =>   4
Atom   7H    basis set group =>   4
Atom   8H    basis set group =>   4
Atom   9H    basis set group =>   4
Atom  10H    basis set group =>   4
Atom  11H    basis set group =>   4


           ************************************************************
           *        Program running with 8 parallel MPI-processes     *
           *              working on a common directory               *
           ************************************************************
------------------------------------------------------------------------------
                           ORCA GTO INTEGRAL CALCULATION
                           -- RI-GTO INTEGRALS CHOSEN --
------------------------------------------------------------------------------

                         BASIS SET STATISTICS AND STARTUP INFO

Gaussian basis set:
 # of primitive gaussian shells          ...  186
 # of primitive gaussian functions       ...  362
 # of contracted shells                  ...   92
 # of contracted basis functions         ...  248
 Highest angular momentum                ...    3
 Maximum contraction depth               ...    8
Auxiliary gaussian basis set:
 # of primitive gaussian shells          ...  195
 # of primitive gaussian functions       ...  605
 # of contracted shells                  ...  195
 # of contracted aux-basis functions     ...  605
 Highest angular momentum                ...    4
 Maximum contraction depth               ...    1
Ratio of auxiliary to basis functions    ...  2.44
Integral package used                  ... LIBINT
 One Electron integrals                  ... done
 Ordering auxiliary basis shells         ... done
 Integral threshhold             Thresh  ...  2.500e-11
 Primitive cut-off               TCut    ...  2.500e-12
 Pre-screening matrix                    ... done
 Shell pair data                         ... 
 Ordering of the shell pairs             ... done (   0.001 sec) 4127 of 4278 pairs
 Determination of significant pairs      ... done (   0.000 sec)
 Creation of shell pair data             ... done (   0.001 sec)
 Storage of shell pair data              ... done (   0.001 sec)
 Shell pair data done in (   0.003 sec)
 Computing two index integrals           ... done
 Cholesky decomposition of the V-matrix  ... done


Timings:
 Total evaluation time                   ...   0.408 sec (  0.007 min)
 One electron matrix time                ...   0.088 sec (  0.001 min) = 21.4%
 Schwartz matrix evaluation time         ...   0.207 sec (  0.003 min) = 50.8%
 Two index repulsion integral time       ...   0.036 sec (  0.001 min) =  8.9%
 Cholesky decomposition of V             ...   0.040 sec (  0.001 min) =  9.8%
 Three index repulsion integral time     ...   0.000 sec (  0.000 min) =  0.0%



           ************************************************************
           *        Program running with 8 parallel MPI-processes     *
           *              working on a common directory               *
           ************************************************************
-------------------------------------------------------------------------------
                                 ORCA SCF
-------------------------------------------------------------------------------

------------
SCF SETTINGS
------------
Hamiltonian:
 Ab initio Hamiltonian  Method          .... Hartree-Fock(GTOs)
 RI-approximation to the Coulomb term is turned on
   Number of auxiliary basis functions  .... 605
   RI-JK (J+K treated both via RI)      .... on


General Settings:
 Integral files         IntName         .... N_methylacetamide_Z
 Hartree-Fock type      HFTyp           .... RHF
 Total Charge           Charge          ....    0
 Multiplicity           Mult            ....    1
 Number of Electrons    NEL             ....   40
 Basis Dimension        Dim             ....  248
 Nuclear Repulsion      ENuc            ....    179.5173296471 Eh

Convergence Acceleration:
 DIIS                   CNVDIIS         .... off
 Newton-Raphson         CNVNR           .... off
 SOSCF                  CNVSOSCF        .... on
   Start iteration      SOSCFMaxIt      ....   150
   Startup grad/error   SOSCFStart      ....  0.003300
 Level Shifting         CNVShift        .... on
   Level shift para.    LevelShift      ....    0.2000
   Turn off err/grad.   ShiftErr        ....    0.1000
 Zerner damping         CNVZerner       .... off
 Static damping         CNVDamp         .... off
 Fernandez-Rico         CNVRico         .... off

SCF Procedure:
 Maximum # iterations   MaxIter         ....   300
 SCF integral mode      SCFMode         .... Direct
   Integral package                     .... LIBINT
 Reset frequency        DirectResetFreq ....    20
 Integral Threshold     Thresh          ....  2.500e-11 Eh
 Primitive CutOff       TCut            ....  2.500e-12 Eh

Convergence Tolerance:
 Convergence Check Mode ConvCheckMode   .... Total+1el-Energy
 Convergence forced     ConvForced      .... 1
 Energy Change          TolE            ....  1.000e-08 Eh
 1-El. energy change                    ....  1.000e-05 Eh
 Orbital Gradient       TolG            ....  1.000e-05
 Orbital Rotation angle TolX            ....  1.000e-05


Diagonalization of the overlap matrix:
Smallest eigenvalue                        ... 6.172e-04
Time for diagonalization                   ...    0.018 sec
Threshold for overlap eigenvalues          ... 1.000e-08
Number of eigenvalues below threshold      ... 0
Time for construction of square roots      ...    0.009 sec
Total time needed                          ...    0.027 sec

-------------------
DFT GRID GENERATION
-------------------

General Integration Accuracy     IntAcc      ...  4.340
Radial Grid Type                 RadialGrid  ... Gauss-Chebyshev
Angular Grid (max. acc.)         AngularGrid ... Lebedev-110
Angular grid pruning method      GridPruning ... 3 (G Style)
Weight generation scheme         WeightScheme... Becke
Basis function cutoff            BFCut       ...    1.0000e-11
Integration weight cutoff        WCut        ...    1.0000e-14
Grids for H and He will be reduced by one unit

# of grid points (after initial pruning)     ...  13944 (   0.0 sec)
# of grid points (after weights+screening)   ...  13192 (   0.0 sec)
nearest neighbour list constructed           ...    0.0 sec
Grid point re-assignment to atoms done       ...    0.0 sec
Grid point division into batches done        ...    0.0 sec
Reduced shell lists constructed in    0.1 sec

Total number of grid points                  ...    13192
Total number of batches                      ...      211
Average number of points per batch           ...       62
Average number of grid points per atom       ...     1099
Average number of shells per batch           ...    80.07 (87.03%)
Average number of basis functions per batch  ...   213.14 (85.94%)
Average number of large shells per batch     ...    67.96 (84.88%)
Average number of large basis fcns per batch ...   180.89 (84.87%)
Average number of aux-shells per batch       ...    80.07 (41.06%)
Average number of aux functions per batch    ...   213.14 (35.23%)
Maximum spatial batch extension              ...   2.90,  2.31,  5.99 au
Average spatial batch extension              ...   0.21,  0.19,  0.25 au

Time for grid setup =    0.088 sec

------------------------------
INITIAL GUESS: MODEL POTENTIAL
------------------------------
Loading Hartree-Fock densities                     ... done
Calculating cut-offs                               ... done
Setting up the integral package                    ... done
Initializing the effective Hamiltonian             ... done
Starting the Coulomb interaction                   ... done (   0.0 sec)
Reading the grid                                   ... done
Mapping shells                                     ... done
Starting the XC term evaluation                    ... done (   0.0 sec)
Transforming the Hamiltonian                       ... done (   0.0 sec)
Diagonalizing the Hamiltonian                      ... done (   0.0 sec)
Back transforming the eigenvectors                 ... done (   0.0 sec)
Now organizing SCF variables                       ... done
                      ------------------
                      INITIAL GUESS DONE (   0.3 sec)
                      ------------------
--------------
SCF ITERATIONS
--------------
ITER       Energy         Delta-E        Max-DP      RMS-DP      [F,P]   Gradient Norm
                             ****Turning on KDIIS(Cayley)****
  0   -246.8134100351   0.000000000000 0.01332104  0.00033374  0.1070634   0.163298686
  1   -246.8947577057  -0.081347670624 0.01778991  0.00037064  0.0993692   0.140447274
  2   -246.9619850017  -0.067227295968 0.03086591  0.00061310  0.0792707   0.114277332
  3   -247.0437757828  -0.081790781152 0.05901540  0.00099699  0.0482001   0.070420925
                      *** Initiating the SOSCF procedure ***
                           *** Shutting down KDIIS ***
                      *** Re-Reading the Fockian *** 
                      *** Removing any level shift *** 
ITER      Energy       Delta-E        Grad      Rot      Max-DP    RMS-DP
  4   -247.09755829  -0.0537825077  0.003297  0.003297  0.002910  0.000084
  5   -247.09783926  -0.0002809714  0.001480  0.002235  0.003022  0.000063
  6   -247.09787721  -0.0000379510  0.001057  0.000741  0.000888  0.000023
  7   -247.09789766  -0.0000204460  0.000315  0.000626  0.000660  0.000012
  8   -247.09789873  -0.0000010721  0.000099  0.000166  0.000186  0.000005
  9   -247.09789909  -0.0000003549  0.000054  0.000105  0.000072  0.000002
 10   -247.09789912  -0.0000000373  0.000015  0.000038  0.000075  0.000001
 11   -247.09789913  -0.0000000103  0.000004  0.000009  0.000024  0.000000
                  ***Gradient check signals convergence***
              ***Rediagonalizing the Fockian in SOSCF/NRSCF***

               *****************************************************
               *                     SUCCESS                       *
               *           SCF CONVERGED AFTER  12 CYCLES          *
               *****************************************************


----------------
TOTAL SCF ENERGY
----------------

Total Energy       :         -247.09789913 Eh           -6723.87567 eV

Components:
Nuclear Repulsion  :          179.51732965 Eh            4884.91488 eV
Electronic Energy  :         -426.61522878 Eh          -11608.79055 eV
One Electron Energy:         -691.69062817 Eh          -18821.85888 eV
Two Electron Energy:          265.07539939 Eh            7213.06832 eV

Virial components:
Potential Energy   :         -493.72935769 Eh          -13435.05885 eV
Kinetic Energy     :          246.63145856 Eh            6711.18318 eV
Virial Ratio       :            2.00189125


---------------
SCF CONVERGENCE
---------------

  Last Energy change         ...   -7.8199e-10  Tolerance :   1.0000e-08
  Last MAX-Density change    ...    6.8594e-06  Tolerance :   1.0000e-07
  Last RMS-Density change    ...    1.3568e-07  Tolerance :   5.0000e-09
  Last Orbital Gradient      ...    9.5092e-07  Tolerance :   1.0000e-05
  Last Orbital Rotation      ...    2.6744e-06  Tolerance :   1.0000e-05

             **** THE GBW FILE WAS UPDATED (N_methylacetamide_Z.gbw) ****
             **** DENSITY FILE WAS UPDATED (N_methylacetamide_Z.scfp.tmp) ****
             **** ENERGY FILE WAS UPDATED (N_methylacetamide_Z.en.tmp) ****
----------------
ORBITAL ENERGIES
----------------

  NO   OCC          E(Eh)            E(eV) 
   0   2.0000     -20.509636      -558.0956 
   1   2.0000     -15.581096      -423.9832 
   2   2.0000     -11.345368      -308.7232 
   3   2.0000     -11.260213      -306.4060 
   4   2.0000     -11.236952      -305.7730 
   5   2.0000      -1.367984       -37.2247 
   6   2.0000      -1.221269       -33.2324 
   7   2.0000      -1.012611       -27.5545 
   8   2.0000      -0.928265       -25.2594 
   9   2.0000      -0.783886       -21.3306 
  10   2.0000      -0.685557       -18.6550 
  11   2.0000      -0.644680       -17.5426 
  12   2.0000      -0.629222       -17.1220 
  13   2.0000      -0.581092       -15.8123 
  14   2.0000      -0.576068       -15.6756 
  15   2.0000      -0.555686       -15.1210 
  16   2.0000      -0.543806       -14.7977 
  17   2.0000      -0.499318       -13.5871 
  18   2.0000      -0.418310       -11.3828 
  19   2.0000      -0.388873       -10.5818 
  20   0.0000       0.124628         3.3913 
  21   0.0000       0.156923         4.2701 
  22   0.0000       0.176392         4.7999 
  23   0.0000       0.178589         4.8597 
  24   0.0000       0.217402         5.9158 
  25   0.0000       0.217740         5.9250 
  26   0.0000       0.226844         6.1727 
  27   0.0000       0.252721         6.8769 
  28   0.0000       0.280121         7.6225 
  29   0.0000       0.303036         8.2460 
  30   0.0000       0.372351        10.1322 
  31   0.0000       0.380544        10.3551 
  32   0.0000       0.381846        10.3906 
  33   0.0000       0.412083        11.2134 
  34   0.0000       0.441689        12.0190 
  35   0.0000       0.475416        12.9367 
  36   0.0000       0.500410        13.6169 
  37   0.0000       0.511816        13.9272 
  38   0.0000       0.534432        14.5426 
  39   0.0000       0.576360        15.6835 
  40   0.0000       0.591342        16.0912 
  41   0.0000       0.606727        16.5099 
  42   0.0000       0.621997        16.9254 
  43   0.0000       0.622130        16.9290 
  44   0.0000       0.634491        17.2654 
  45   0.0000       0.645661        17.5693 
  46   0.0000       0.667433        18.1618 
  47   0.0000       0.679247        18.4833 
  48   0.0000       0.713540        19.4164 
  49   0.0000       0.717303        19.5188 
  50   0.0000       0.738916        20.1069 
  51   0.0000       0.741245        20.1703 
  52   0.0000       0.793702        21.5977 
  53   0.0000       0.824562        22.4375 
  54   0.0000       0.861666        23.4471 
  55   0.0000       0.861792        23.4505 
  56   0.0000       0.907355        24.6904 
  57   0.0000       0.909144        24.7391 
  58   0.0000       0.955893        26.0112 
  59   0.0000       0.988521        26.8990 
  60   0.0000       1.024632        27.8816 
  61   0.0000       1.055773        28.7290 
  62   0.0000       1.056626        28.7523 
  63   0.0000       1.068070        29.0637 
  64   0.0000       1.101018        29.9602 
  65   0.0000       1.132365        30.8132 
  66   0.0000       1.158500        31.5244 
  67   0.0000       1.165102        31.7040 
  68   0.0000       1.199432        32.6382 
  69   0.0000       1.199611        32.6431 
  70   0.0000       1.212523        32.9944 
  71   0.0000       1.235325        33.6149 
  72   0.0000       1.246442        33.9174 
  73   0.0000       1.284465        34.9521 
  74   0.0000       1.315463        35.7956 
  75   0.0000       1.340726        36.4830 
  76   0.0000       1.367311        37.2064 
  77   0.0000       1.396046        37.9883 
  78   0.0000       1.416852        38.5545 
  79   0.0000       1.428785        38.8792 
  80   0.0000       1.453753        39.5586 
  81   0.0000       1.500566        40.8325 
  82   0.0000       1.503155        40.9029 
  83   0.0000       1.524322        41.4789 
  84   0.0000       1.524993        41.4972 
  85   0.0000       1.529593        41.6223 
  86   0.0000       1.567921        42.6653 
  87   0.0000       1.608635        43.7732 
  88   0.0000       1.619374        44.0654 
  89   0.0000       1.681016        45.7428 
  90   0.0000       1.713136        46.6168 
  91   0.0000       1.749674        47.6110 
  92   0.0000       1.761903        47.9438 
  93   0.0000       1.772630        48.2357 
  94   0.0000       1.836763        49.9809 
  95   0.0000       1.867560        50.8189 
  96   0.0000       1.896355        51.6024 
  97   0.0000       1.992325        54.2139 
  98   0.0000       2.051243        55.8171 
  99   0.0000       2.128877        57.9297 
 100   0.0000       2.132464        58.0273 
 101   0.0000       2.233871        60.7867 
 102   0.0000       2.307432        62.7884 
 103   0.0000       2.449309        66.6491 
 104   0.0000       2.453826        66.7720 
 105   0.0000       2.518180        68.5232 
 106   0.0000       2.521096        68.6025 
 107   0.0000       2.589122        70.4536 
 108   0.0000       2.604258        70.8655 
 109   0.0000       2.634704        71.6939 
 110   0.0000       2.716780        73.9273 
 111   0.0000       2.724513        74.1378 
 112   0.0000       2.827853        76.9498 
 113   0.0000       2.847362        77.4807 
 114   0.0000       2.880923        78.3939 
 115   0.0000       2.901455        78.9526 
 116   0.0000       2.935066        79.8672 
 117   0.0000       2.985218        81.2319 
 118   0.0000       3.024621        82.3041 
 119   0.0000       3.040869        82.7462 
 120   0.0000       3.067595        83.4735 
 121   0.0000       3.090860        84.1066 
 122   0.0000       3.098389        84.3114 
 123   0.0000       3.113392        84.7197 
 124   0.0000       3.131155        85.2030 
 125   0.0000       3.161963        86.0414 
 126   0.0000       3.172148        86.3185 
 127   0.0000       3.189063        86.7788 
 128   0.0000       3.234924        88.0268 
 129   0.0000       3.236983        88.0828 
 130   0.0000       3.270376        88.9915 
 131   0.0000       3.280895        89.2777 
 132   0.0000       3.307044        89.9892 
 133   0.0000       3.311210        90.1026 
 134   0.0000       3.342079        90.9426 
 135   0.0000       3.360336        91.4394 
 136   0.0000       3.390437        92.2585 
 137   0.0000       3.416704        92.9732 
 138   0.0000       3.432615        93.4062 
 139   0.0000       3.462229        94.2120 
 140   0.0000       3.482694        94.7689 
 141   0.0000       3.566325        97.0446 
 142   0.0000       3.570155        97.1489 
 143   0.0000       3.599420        97.9452 
 144   0.0000       3.613436        98.3266 
 145   0.0000       3.628234        98.7293 
 146   0.0000       3.653504        99.4169 
 147   0.0000       3.663726        99.6950 
 148   0.0000       3.671720        99.9126 
 149   0.0000       3.687189       100.3335 
 150   0.0000       3.727016       101.4172 
 151   0.0000       3.735673       101.6528 
 152   0.0000       3.764855       102.4469 
 153   0.0000       3.778937       102.8301 
 154   0.0000       3.804529       103.5265 
 155   0.0000       3.820942       103.9731 
 156   0.0000       3.851047       104.7923 
 157   0.0000       3.852629       104.8354 
 158   0.0000       3.899464       106.1098 
 159   0.0000       3.909084       106.3716 
 160   0.0000       3.914290       106.5132 
 161   0.0000       4.017073       109.3101 
 162   0.0000       4.032261       109.7234 
 163   0.0000       4.071750       110.7980 
 164   0.0000       4.092354       111.3586 
 165   0.0000       4.093604       111.3926 
 166   0.0000       4.108723       111.8040 
 167   0.0000       4.128316       112.3372 
 168   0.0000       4.159190       113.1773 
 169   0.0000       4.159502       113.1858 
 170   0.0000       4.203009       114.3697 
 171   0.0000       4.223715       114.9331 
 172   0.0000       4.277673       116.4014 
 173   0.0000       4.296754       116.9206 
 174   0.0000       4.316428       117.4560 
 175   0.0000       4.343331       118.1881 
 176   0.0000       4.378175       119.1362 
 177   0.0000       4.391366       119.4952 
 178   0.0000       4.393144       119.5435 
 179   0.0000       4.430880       120.5704 
 180   0.0000       4.432679       120.6193 
 181   0.0000       4.474867       121.7673 
 182   0.0000       4.508295       122.6769 
 183   0.0000       4.537650       123.4757 
 184   0.0000       4.547919       123.7552 
 185   0.0000       4.566525       124.2615 
 186   0.0000       4.608254       125.3970 
 187   0.0000       4.635848       126.1478 
 188   0.0000       4.676884       127.2645 
 189   0.0000       4.693534       127.7176 
 190   0.0000       4.771968       129.8519 
 191   0.0000       4.815969       131.0492 
 192   0.0000       4.896180       133.2318 
 193   0.0000       4.907262       133.5334 
 194   0.0000       4.938847       134.3929 
 195   0.0000       5.038859       137.1143 
 196   0.0000       5.107471       138.9814 
 197   0.0000       5.110592       139.0663 
 198   0.0000       5.121399       139.3604 
 199   0.0000       5.183638       141.0540 
 200   0.0000       5.235917       142.4765 
 201   0.0000       5.238438       142.5451 
 202   0.0000       5.267627       143.3394 
 203   0.0000       5.312250       144.5537 
 204   0.0000       5.315046       144.6298 
 205   0.0000       5.413725       147.3149 
 206   0.0000       5.433991       147.8664 
 207   0.0000       5.460535       148.5887 
 208   0.0000       5.473143       148.9318 
 209   0.0000       5.517501       150.1388 
 210   0.0000       5.551271       151.0578 
 211   0.0000       5.568099       151.5157 
 212   0.0000       5.582606       151.9104 
 213   0.0000       5.620418       152.9394 
 214   0.0000       5.638324       153.4266 
 215   0.0000       5.643235       153.5602 
 216   0.0000       5.654055       153.8547 
 217   0.0000       5.670819       154.3108 
 218   0.0000       5.705928       155.2662 
 219   0.0000       5.754213       156.5801 
 220   0.0000       5.784438       157.4026 
 221   0.0000       5.800953       157.8519 
 222   0.0000       5.903754       160.6493 
 223   0.0000       5.967933       162.3957 
 224   0.0000       6.037713       164.2945 
 225   0.0000       6.171553       167.9365 
 226   0.0000       6.190150       168.4426 
 227   0.0000       6.210786       169.0041 
 228   0.0000       6.223805       169.3583 
 229   0.0000       6.248519       170.0308 
 230   0.0000       6.285395       171.0343 
 231   0.0000       6.356344       172.9649 
 232   0.0000       6.432387       175.0341 
 233   0.0000       6.526086       177.5838 
 234   0.0000       6.718095       182.8087 
 235   0.0000       6.832855       185.9314 
 236   0.0000       6.930017       188.5754 
 237   0.0000       6.948037       189.0657 
 238   0.0000       7.092335       192.9923 
 239   0.0000       7.340892       199.7558 
 240   0.0000       7.395726       201.2479 
 241   0.0000       7.597901       206.7494 
 242   0.0000       7.612786       207.1544 
 243   0.0000       9.873328       268.6669 
 244   0.0000      12.691957       345.3657 
 245   0.0000      13.695792       372.6814 
 246   0.0000      14.098438       383.6380 
 247   0.0000      14.374146       391.1404 

                    ********************************
                    * MULLIKEN POPULATION ANALYSIS *
                    ********************************

-----------------------
MULLIKEN ATOMIC CHARGES
-----------------------
   0 C :   -0.295982
   1 C :    0.333818
   2 N :   -0.246155
   3 C :   -0.143293
   4 O :   -0.449450
   5 H :    0.179165
   6 H :    0.100643
   7 H :    0.132494
   8 H :    0.100650
   9 H :    0.086838
  10 H :    0.100539
  11 H :    0.100732
Sum of atomic charges:   -0.0000000

--------------------------------
MULLIKEN REDUCED ORBITAL CHARGES
--------------------------------
  0 C s       :     3.279176  s :     3.279176
      pz      :     0.998643  p :     2.957542
      px      :     0.928581
      py      :     1.030318
      dz2     :     0.011681  d :     0.054941
      dxz     :     0.002790
      dyz     :     0.015296
      dx2y2   :     0.008452
      dxy     :     0.016723
      f0      :     0.000101  f :     0.004323
      f+1     :     0.000426
      f-1     :     0.001580
      f+2     :    -0.000011
      f-2     :     0.000215
      f+3     :     0.000604
      f-3     :     0.001408
  1 C s       :     3.125499  s :     3.125499
      pz      :     0.642032  p :     2.248538
      px      :     0.830398
      py      :     0.776108
      dz2     :     0.010573  d :     0.269822
      dxz     :     0.022364
      dyz     :     0.080805
      dx2y2   :     0.051895
      dxy     :     0.104185
      f0      :     0.002975  f :     0.022322
      f+1     :     0.001152
      f-1     :     0.001058
      f+2     :     0.002827
      f-2     :     0.002244
      f+3     :     0.006969
      f-3     :     0.005098
  2 N s       :     3.372662  s :     3.372662
      pz      :     1.694549  p :     3.819618
      px      :     1.050728
      py      :     1.074341
      dz2     :     0.002533  d :     0.049389
      dxz     :     0.009616
      dyz     :     0.001942
      dx2y2   :     0.018993
      dxy     :     0.016305
      f0      :     0.000635  f :     0.004486
      f+1     :     0.000875
      f-1     :     0.000647
      f+2     :     0.000088
      f-2     :     0.000338
      f+3     :     0.000843
      f-3     :     0.001061
  3 C s       :     3.234497  s :     3.234497
      pz      :     1.034299  p :     2.809751
      px      :     0.791288
      py      :     0.984164
      dz2     :     0.015041  d :     0.091862
      dxz     :     0.016851
      dyz     :     0.016133
      dx2y2   :     0.018683
      dxy     :     0.025154
      f0      :     0.000779  f :     0.007183
      f+1     :     0.000799
      f-1     :     0.001546
      f+2     :     0.000582
      f-2     :     0.000687
      f+3     :     0.001350
      f-3     :     0.001440
  4 O s       :     3.751921  s :     3.751921
      pz      :     1.474299  p :     4.660361
      px      :     1.831396
      py      :     1.354666
      dz2     :     0.003521  d :     0.034794
      dxz     :     0.000110
      dyz     :     0.011692
      dx2y2   :     0.012569
      dxy     :     0.006902
      f0      :     0.000195  f :     0.002374
      f+1     :     0.000024
      f-1     :     0.000348
      f+2     :     0.000461
      f-2     :     0.000022
      f+3     :     0.000547
      f-3     :     0.000777
  5 H s       :     0.750500  s :     0.750500
      pz      :     0.030088  p :     0.065072
      px      :     0.013429
      py      :     0.021556
      dz2     :     0.000370  d :     0.005263
      dxz     :     0.000029
      dyz     :     0.002142
      dx2y2   :     0.001206
      dxy     :     0.001515
  6 H s       :     0.868343  s :     0.868343
      pz      :     0.008973  p :     0.028794
      px      :     0.009141
      py      :     0.010680
      dz2     :     0.000586  d :     0.002220
      dxz     :     0.000435
      dyz     :     0.000653
      dx2y2   :     0.000176
      dxy     :     0.000370
  7 H s       :     0.838563  s :     0.838563
      pz      :     0.008373  p :     0.026615
      px      :     0.009217
      py      :     0.009025
      dz2     :     0.000194  d :     0.002329
      dxz     :     0.000284
      dyz     :     0.000389
      dx2y2   :     0.000854
      dxy     :     0.000608
  8 H s       :     0.868336  s :     0.868336
      pz      :     0.008975  p :     0.028794
      px      :     0.009141
      py      :     0.010678
      dz2     :     0.000586  d :     0.002220
      dxz     :     0.000436
      dyz     :     0.000653
      dx2y2   :     0.000175
      dxy     :     0.000369
  9 H s       :     0.882412  s :     0.882412
      pz      :     0.009785  p :     0.028484
      px      :     0.010401
      py      :     0.008297
      dz2     :     0.000264  d :     0.002266
      dxz     :     0.000213
      dyz     :     0.000470
      dx2y2   :     0.000666
      dxy     :     0.000654
 10 H s       :     0.873569  s :     0.873569
      pz      :     0.009132  p :     0.023621
      px      :     0.005249
      py      :     0.009240
      dz2     :     0.000619  d :     0.002271
      dxz     :     0.000431
      dyz     :     0.000690
      dx2y2   :     0.000222
      dxy     :     0.000310
 11 H s       :     0.873364  s :     0.873364
      pz      :     0.009119  p :     0.023632
      px      :     0.005252
      py      :     0.009262
      dz2     :     0.000617  d :     0.002272
      dxz     :     0.000428
      dyz     :     0.000690
      dx2y2   :     0.000224
      dxy     :     0.000312


                     *******************************
                     * LOEWDIN POPULATION ANALYSIS *
                     *******************************

----------------------
LOEWDIN ATOMIC CHARGES
----------------------
   0 C :    0.113043
   1 C :   -0.377183
   2 N :    0.359698
   3 C :    0.076198
   4 O :    0.057290
   5 H :   -0.087463
   6 H :   -0.021557
   7 H :   -0.012765
   8 H :   -0.021549
   9 H :   -0.031445
  10 H :   -0.027168
  11 H :   -0.027100

-------------------------------
LOEWDIN REDUCED ORBITAL CHARGES
-------------------------------
  0 C s       :     2.669549  s :     2.669549
      pz      :     0.985674  p :     2.915334
      px      :     0.943814
      py      :     0.985845
      dz2     :     0.051100  d :     0.274441
      dxz     :     0.019575
      dyz     :     0.072586
      dx2y2   :     0.046696
      dxy     :     0.084484
      f0      :     0.001199  f :     0.027633
      f+1     :     0.004483
      f-1     :     0.005282
      f+2     :     0.003733
      f-2     :     0.001899
      f+3     :     0.004761
      f-3     :     0.006278
  1 C s       :     2.742678  s :     2.742678
      pz      :     0.651120  p :     2.572599
      px      :     0.936618
      py      :     0.984861
      dz2     :     0.054805  d :     0.924415
      dxz     :     0.092666
      dyz     :     0.206182
      dx2y2   :     0.231766
      dxy     :     0.338997
      f0      :     0.009450  f :     0.137491
      f+1     :     0.005141
      f-1     :     0.010366
      f+2     :     0.019248
      f-2     :     0.015538
      f+3     :     0.052706
      f-3     :     0.025042
  2 N s       :     2.836517  s :     2.836517
      pz      :     1.396906  p :     3.573649
      px      :     1.081861
      py      :     1.094882
      dz2     :     0.014161  d :     0.216922
      dxz     :     0.032267
      dyz     :     0.009502
      dx2y2   :     0.088622
      dxy     :     0.072370
      f0      :     0.001374  f :     0.013213
      f+1     :     0.001354
      f-1     :     0.001303
      f+2     :     0.000649
      f-2     :     0.001834
      f+3     :     0.004023
      f-3     :     0.002677
  3 C s       :     2.668772  s :     2.668772
      pz      :     1.012997  p :     2.819765
      px      :     0.825337
      py      :     0.981431
      dz2     :     0.058755  d :     0.388711
      dxz     :     0.076774
      dyz     :     0.087006
      dx2y2   :     0.064489
      dxy     :     0.101687
      f0      :     0.004977  f :     0.046554
      f+1     :     0.006407
      f-1     :     0.005111
      f+2     :     0.007974
      f-2     :     0.004433
      f+3     :     0.009317
      f-3     :     0.008336
  4 O s       :     3.383153  s :     3.383153
      pz      :     1.369745  p :     4.490145
      px      :     1.658828
      py      :     1.461572
      dz2     :     0.007853  d :     0.064452
      dxz     :     0.000107
      dyz     :     0.011781
      dx2y2   :     0.026326
      dxy     :     0.018386
      f0      :     0.000294  f :     0.004959
      f+1     :     0.000114
      f-1     :     0.000736
      f+2     :     0.000578
      f-2     :     0.000026
      f+3     :     0.001675
      f-3     :     0.001536
  5 H s       :     0.762103  s :     0.762103
      pz      :     0.104325  p :     0.264018
      px      :     0.045175
      py      :     0.114518
      dz2     :     0.004636  d :     0.061342
      dxz     :     0.000379
      dyz     :     0.025136
      dx2y2   :     0.015487
      dxy     :     0.015704
  6 H s       :     0.840339  s :     0.840339
      pz      :     0.061716  p :     0.153498
      px      :     0.039124
      py      :     0.052658
      dz2     :     0.008672  d :     0.027720
      dxz     :     0.005449
      dyz     :     0.007226
      dx2y2   :     0.002667
      dxy     :     0.003704
  7 H s       :     0.834437  s :     0.834437
      pz      :     0.039376  p :     0.149949
      px      :     0.055878
      py      :     0.054695
      dz2     :     0.002353  d :     0.028379
      dxz     :     0.004298
      dyz     :     0.005115
      dx2y2   :     0.009269
      dxy     :     0.007345
  8 H s       :     0.840329  s :     0.840329
      pz      :     0.061740  p :     0.153501
      px      :     0.039129
      py      :     0.052632
      dz2     :     0.008674  d :     0.027719
      dxz     :     0.005457
      dyz     :     0.007230
      dx2y2   :     0.002662
      dxy     :     0.003697
  9 H s       :     0.856825  s :     0.856825
      pz      :     0.042164  p :     0.147193
      px      :     0.047527
      py      :     0.057502
      dz2     :     0.002397  d :     0.027428
      dxz     :     0.003512
      dyz     :     0.006414
      dx2y2   :     0.007978
      dxy     :     0.007127
 10 H s       :     0.853640  s :     0.853640
      pz      :     0.064095  p :     0.146355
      px      :     0.030801
      py      :     0.051459
      dz2     :     0.008783  d :     0.027173
      dxz     :     0.004836
      dyz     :     0.007466
      dx2y2   :     0.002922
      dxy     :     0.003165
 11 H s       :     0.853560  s :     0.853560
      pz      :     0.063995  p :     0.146363
      px      :     0.030787
      py      :     0.051581
      dz2     :     0.008776  d :     0.027177
      dxz     :     0.004811
      dyz     :     0.007456
      dx2y2   :     0.002944
      dxy     :     0.003190


                      *****************************
                      * MAYER POPULATION ANALYSIS *
                      *****************************

  NA   - Mulliken gross atomic population
  ZA   - Total nuclear charge
  QA   - Mulliken gross atomic charge
  VA   - Mayer's total valence
  BVA  - Mayer's bonded valence
  FA   - Mayer's free valence

  ATOM       NA         ZA         QA         VA         BVA        FA
  0 C      6.2960     6.0000    -0.2960     3.8247     3.8247     0.0000
  1 C      5.6662     6.0000     0.3338     4.1552     4.1552     0.0000
  2 N      7.2462     7.0000    -0.2462     3.0914     3.0914     0.0000
  3 C      6.1433     6.0000    -0.1433     3.8977     3.8977    -0.0000
  4 O      8.4494     8.0000    -0.4494     2.0634     2.0634    -0.0000
  5 H      0.8208     1.0000     0.1792     1.0089     1.0089    -0.0000
  6 H      0.8994     1.0000     0.1006     0.9854     0.9854     0.0000
  7 H      0.8675     1.0000     0.1325     0.9919     0.9919     0.0000
  8 H      0.8994     1.0000     0.1006     0.9854     0.9854     0.0000
  9 H      0.9132     1.0000     0.0868     0.9810     0.9810    -0.0000
 10 H      0.8995     1.0000     0.1005     0.9693     0.9693    -0.0000
 11 H      0.8993     1.0000     0.1007     0.9694     0.9694    -0.0000

  Mayer bond orders larger than 0.1
B(  0-C ,  1-C ) :   0.9358 B(  0-C ,  6-H ) :   0.9693 B(  0-C ,  7-H ) :   0.9806 
B(  0-C ,  8-H ) :   0.9693 B(  1-C ,  2-N ) :   1.2146 B(  1-C ,  4-O ) :   1.9929 
B(  2-N ,  3-C ) :   0.9401 B(  2-N ,  5-H ) :   0.9749 B(  3-C ,  9-H ) :   0.9847 
B(  3-C , 10-H ) :   0.9698 B(  3-C , 11-H ) :   0.9698 

-------
TIMINGS
-------

Total SCF time: 0 days 0 hours 0 min 6 sec 

Total time                  ....       6.350 sec
Sum of individual times     ....       6.148 sec  ( 96.8%)

Fock matrix formation       ....       5.765 sec  ( 90.8%)
Diagonalization             ....       0.039 sec  (  0.6%)
Density matrix formation    ....       0.008 sec  (  0.1%)
Population analysis         ....       0.019 sec  (  0.3%)
Initial guess               ....       0.180 sec  (  2.8%)
Orbital Transformation      ....       0.000 sec  (  0.0%)
Orbital Orthonormalization  ....       0.000 sec  (  0.0%)
DIIS solution               ....       0.000 sec  (  0.0%)
SOSCF solution              ....       0.051 sec  (  0.8%)


           ************************************************************
           *        Program running with 8 parallel MPI-processes     *
           *              working on a common directory               *
           ************************************************************


------------------------------------------------------------------------------- 
                              ORCA-MATRIX DRIVEN CI                            
------------------------------------------------------------------------------- 


Wavefunction type
-----------------
Correlation treatment                      ...      CCSD     
Single excitations                         ... ON
Orbital optimization                       ... OFF
Calculation of Z vector                    ... OFF
Calculation of Brueckner orbitals          ... OFF
Perturbative triple excitations            ... ON
Calculation of F12 correction              ... OFF
Frozen core treatment                      ... chemical core (10 el)
Reference Wavefunction                     ... RHF
  Internal Orbitals:     5 ...   19 ( 15 MO's/ 30 electrons)
  Virtual  Orbitals:    20 ...  247 (228 MO's              )
Number of AO's                             ...    248
Number of electrons                        ...     40
Number of correlated electrons             ...     30

Algorithmic settings
--------------------
Integral transformation                    ... All integrals via the RI transformation
K(C) Formation                             ... RI-DLPNO
   PNO-Integral Storage                    ... ON DISK
   PNO occupation number cut-off           ... 1.000e-07
   Singles PNO occupation number cut-off   ... 3.000e-09
   PNO Mulliken prescreening cut-off       ... 1.000e-03
   Domain cut-off (Mulliken population)    ... 1.000e-03
   PNO Normalization                       ...    1
Maximum number of iterations               ...        50
Convergence tolerance (max. residuum)      ... 1.000e-05
Level shift for amplitude update           ... 2.000e-01
Maximum number of DIIS vectors             ...         7
DIIS turned on at iteration                ...         0
Damping before turning on DIIS             ...     0.500
Damping after turning on DIIS              ...     0.000
Pair specific amplitude update             ... OFF
Natural orbital iterations                 ... OFF
Perturbative natural orbital generation    ... OFF
Printlevel                                 ... 2

Singles Fock matrix elements calculated using PNOs.

Memory handling:
----------------
Maximum memory for working arrays          ...   8000 MB
Data storage in matrix containers          ... UNCOMPRESSED
Data type for integral storage             ... DOUBLE
In-Core Storage of quantities:
   Amplitudes+Sigma Vector      ... NO
   J+K operators                ... NO
   DIIS vectors                 ... NO
   3-external integrals         ... NO
   4-external integrals         ... NO

Localization treatment:
-----------------------
Localization option                        ...    6
Localization threshhold                    ... -1.0e+00
Using relative localization threshhold     ... 1.0e-08
Neglect threshold for strong pairs         ... 1.000e-05 Eh
Prescreening threshold for very weak pairs ... 1.000e-07 Eh

Initializing the integral package          ... done
Localizing the valence orbitals
------------------------------------------------------------------------------
                           ORCA ORBITAL LOCALIZATION
------------------------------------------------------------------------------

Input orbitals are from                  ... N_methylacetamide_Z.proc0.gbw
Output orbitals are to                   ... N_methylacetamide_Z.proc0.loc
Max. number of iterations                ... 128
Localizations seeded randomly            ... off
Convergence tolerance                    ... 1.000e-06
Using relative localization threshhold   ... 1.000e-08
Treshold for strong local MOs            ... 9.500e-01
Treshold for bond MOs                    ... 8.500e-01
Operator                                 ... 0
Orbital range for localization           ... 5 to 19
Localization criterion                   ... FOSTER-BOYS (AUGMENTED HESSIAN)
Doing the dipole integrals     ... o.k.
Initial value of the localization sum :   117.263564
ITERATION   0 : L=  148.9174728928 DL=  3.17e+01 (AVERGE_DL)=    0.5490590122 
ITERATION   1 : L=  157.4702692247 DL=  8.55e+00 (AVERGE_DL)=    0.2854035794 
ITERATION   2 : L=  157.6272319436 DL=  1.57e-01 (AVERGE_DL)=    0.0386637173 
ITERATION   3 : L=  157.6287660978 DL=  1.53e-03 (AVERGE_DL)=    0.0038224328 
ITERATION   4 : L=  157.6288884952 DL=  1.22e-04 (AVERGE_DL)=    0.0010796713 
ITERATION   5 : L=  157.6289346185 DL=  4.61e-05 (AVERGE_DL)=    0.0006627735 
ITERATION   6 : L=  157.6289553114 DL=  2.07e-05 (AVERGE_DL)=    0.0004439323 
ITERATION   7 : L=  157.6289648064 DL=  9.49e-06 (AVERGE_DL)=    0.0003007134 
ITERATION   8 : L=  157.6289691767 DL=  4.37e-06 (AVERGE_DL)=    0.0002040150 
ITERATION   9 : L=  157.6289711894 DL=  2.01e-06 (AVERGE_DL)=    0.0001384488 
ITERATION  10 : L=  157.6289721170 DL=  9.28e-07 (AVERGE_DL)=    0.0000939908 
LOCALIZATION SUM CONVERGED

------------------------------------------------------
AUGMENTED HESSIAN OPTIMIZATION OF FOSTER-BOYS ORBITALS
------------------------------------------------------

Spin operator:           0
Orbital window:          5 to 19
Number of iterations:    128
Gradient tolerance:      1.000e-06
Number of pairs:         105
Davidson threshold:      2000
Diagonalization method:  LAPACK
Iter:    0   L: 157.6289721170   Grad. norm: 2.234240e-03
   *** Likely close to a maximum now. ***
       Augmented Hessian eigenvalues:  1.59e-06 -3.14e-01 -1.59e+00 -1.69e+00 ... 
Iter:    1   L: 157.6289729112   Grad. norm: 6.046390e-06
Iter:    2   L: 157.6289729112   Grad. norm: 1.277007e-13
LOCALIZATION HAS CONVERGED.

Eigenvalues of the Hessian:
  0 -3.144e-01
  1 -1.588e+00
  2 -1.690e+00
  3 -2.213e+00
  4 -5.400e+00
  5 -5.789e+00
  6 -6.753e+00
  7 -6.808e+00
  8 -8.473e+00
  9 -1.099e+01
    ...


------------------------------------------------------------------------------- 
                    LOCALIZED MOLECULAR ORBITAL COMPOSITIONS                   
------------------------------------------------------------------------------- 

The Mulliken populations for each LMO on each atom are computed
The LMO`s will be ordered according to atom index and type
  (A) Strongly localized MO`s have populations of >=0.950 on one atom
  (B) Two center bond orbitals have populations of >=0.850 on two atoms
  (C) Other MO`s are considered to be `delocalized`

FOUND  -   1 strongly local MO`s
       -  14 two center bond MO`s
       -   0 significantly delocalized MO`s

Rather strongly localized orbitals:
MO   5:   4O  -   0.953743
Bond-like localized orbitals:
MO  19:  11H  -   0.471210  and   3C  -   0.560453
MO  18:  10H  -   0.471346  and   3C  -   0.560348
MO  17:   9H  -   0.475898  and   3C  -   0.551087
MO  16:   8H  -   0.467417  and   0C  -   0.552189
MO  15:   7H  -   0.444413  and   0C  -   0.583513
MO  14:   6H  -   0.467417  and   0C  -   0.552209
MO  13:   5H  -   0.412793  and   2N  -   0.593303
MO  12:   4O  -   0.672886  and   1C  -   0.339633
MO  11:   4O  -   0.672887  and   1C  -   0.339639
MO  10:   4O  -   0.947746  and   1C  -   0.054785
MO   9:   3C  -   0.391098  and   2N  -   0.622847
MO   8:   2N  -   0.747364  and   1C  -   0.263848
MO   7:   2N  -   0.745488  and   1C  -   0.266155
MO   6:   1C  -   0.555779  and   0C  -   0.487984
Localized MO's were stored in: N_methylacetamide_Z.proc0.loc

Localizing the core orbitals
------------------------------------------------------------------------------
                           ORCA ORBITAL LOCALIZATION
------------------------------------------------------------------------------

Input orbitals are from                  ... N_methylacetamide_Z.proc0.loc
Output orbitals are to                   ... N_methylacetamide_Z.proc0.loc
Max. number of iterations                ... 128
Localizations seeded randomly            ... off
Convergence tolerance                    ... 1.000e-06
Using relative localization threshhold   ... 1.000e-08
Treshold for strong local MOs            ... 9.500e-01
Treshold for bond MOs                    ... 8.500e-01
Operator                                 ... 0
Orbital range for localization           ... 0 to 4
Localization criterion                   ... FOSTER-BOYS (AUGMENTED HESSIAN)
Doing the dipole integrals     ... o.k.
Initial value of the localization sum :    38.042128
ITERATION   0 : L=   38.0421339287 DL=  5.98e-06 (AVERGE_DL)=    0.0007734098 
ITERATION   1 : L=   38.0421339287 DL=  0.00e+00 (AVERGE_DL)=    0.0000000000 
LOCALIZATION SUM CONVERGED

------------------------------------------------------
AUGMENTED HESSIAN OPTIMIZATION OF FOSTER-BOYS ORBITALS
------------------------------------------------------

Spin operator:           0
Orbital window:          0 to 4
Number of iterations:    128
Gradient tolerance:      1.000e-06
Number of pairs:         10
Davidson threshold:      2000
Diagonalization method:  LAPACK
Iter:    0   L: 38.0421339287   Grad. norm: 5.085846e-06
   *** Likely close to a maximum now. ***
       Augmented Hessian eigenvalues:  8.11e-13 -2.16e+01 -2.67e+01 -3.03e+01 ... 
Iter:    1   L: 38.0421339287   Grad. norm: 6.954238e-19
LOCALIZATION HAS CONVERGED.

Eigenvalues of the Hessian:
  0 -2.156e+01
  1 -2.666e+01
  2 -3.030e+01
  3 -3.310e+01
  4 -7.341e+01
  5 -8.361e+01
  6 -8.533e+01
  7 -8.675e+01
  8 -1.105e+02
  9 -2.084e+02


------------------------------------------------------------------------------- 
                    LOCALIZED MOLECULAR ORBITAL COMPOSITIONS                   
------------------------------------------------------------------------------- 

The Mulliken populations for each LMO on each atom are computed
The LMO`s will be ordered according to atom index and type
  (A) Strongly localized MO`s have populations of >=0.950 on one atom
  (B) Two center bond orbitals have populations of >=0.850 on two atoms
  (C) Other MO`s are considered to be `delocalized`

FOUND  -   5 strongly local MO`s
       -   0 two center bond MO`s
       -   0 significantly delocalized MO`s

Rather strongly localized orbitals:
MO   4:   4O  -   0.999592
MO   3:   3C  -   1.000695
MO   2:   2N  -   1.000142
MO   1:   1C  -   1.000170
MO   0:   0C  -   1.001197
Localized MO's were stored in: N_methylacetamide_Z.proc0.loc

Warning: internal orbitals are localized - no re-canonicalization of internal orbitals

--------------------------
CLOSED-SHELL FOCK OPERATOR
--------------------------

RI-JK section for the Fock operator:
  RHF full Fock operator         ... done
  RHF frozen core Fock operator  ... done
Time needed for Fock operator              ...            0.937 sec
Reference energy                           ...   -247.097899134

--------------
DLPNO SETTINGS (2015 fully linear scaling implementation)
--------------

TCutMKN:           1.000e-03
TCutPAO:           1.000e-03
TCutPNO:           1.000e-07
TCutPNOSingles:    3.000e-09
TCutEN:            9.700e-01
TCutPAOExt:        1.000e-01
TCutPairs:         1.000e-05
TCutPre:           1.000e-07
TCutOSV:           1.000e-06
TCutDOij:          1.000e-05
TCutDO:            5.000e-03
TCutC:             1.000e-04
TCutCPAO:          1.000e-03
TCutCMO:           1.000e-03
TScaleDOMP2PreScr: 2.000e+00
TScaleMKNMP2PreScr:1.000e+01
TScalePNOMP2PreScr:1.000e+00
PAO overlap thresh 1.000e-08
Using PNOs for Singles Fock computation
Use new domains
Use fully linear algorithm
TCutTNO:           1.000e-09
TCutMP2Pairs:      1.000e-06
TCutDOStrong:      2.000e-03
TCutMKNStrong:     1.000e-02
TCutMKNWeak:       1.000e-01
TCutDOWeak:        4.000e-03
NTCutTNO:          1

--------------------------
Calculating differential overlap integrals ... ok
--------------------------
ELECTRON PAIR PRESCREENING
--------------------------

Dipole-based pair screening          .... used

   TCutDOij = 1.000000e-05
   TCutPre  = 1.000000e-07
   .... Finished loop over pairs
Total time spent in the prescreening                  ...     0.000 sec
sum of pair energies estimated for screened out pairs ...       0.000000000000 Eh
Thresholds for map construction and integral transformation for crude MP2:
   TCutMKN                    ...     1.0e-02
   TCutDO                     ...     1.0e-02
   TCutPairs                  ...     1.0e-05
   TCutPNO_CrudeMP2           ...     1.0e-07
   TCutPNOSingles_CrudeMP2    ...     3.0e-09
--------------------------------
LOCAL RI TRANSFORMATION (IAVPAO)
--------------------------------

Orbital window:       5 to 19
Number of PAOs:     248
Basis functions:    248 (92 shells)
Aux. functions:     615 (185 shells)

Processing maps (0.0 sec)
Average map sizes:
   Aux shells -> MOs              15.0
   Aux shells -> PAOs            248.0
   MOs        -> AO shells        91.2
   PAOs       -> AO shells        92.0

Calculating integrals (0.4 sec, 17.462 MB)
Sorting integrals (0.0 sec, 17.455 MB)
Total time for the integral transformation: 0.4 sec
--------------------------------
INITIAL GUESS AND PNO GENERATION
--------------------------------

PNO truncation parameters                   .... 
    PAOOverlapThresh   =        1.000e-08

    TCutPairs          =        1.000e-05
    TCutPNO            =        1.000e-07
    TCutPNOSingles     =        3.000e-09
    TCutMP2Pairs       =        1.000e-06
    TCutMKN            =        1.000e-02
    TCutDO             =        1.000e-02

Pair selection                          .... not used
Type of local MP2 treatment                 .... semi-local MP2
Strategy for PNO selection                  .... occupation number selection
Pair density normalization                  .... MP2 norm
Spin component scaling                      .... not used

   .... Finished loop over pairs
Making pair pair interaction lists          ... done

                       ===========================
                        120 OF  120 PAIRS ARE KEPT CCSD PAIRS
                          0 OF  120 PAIRS ARE KEPT MP2 PAIRS FOR (T)
                          0 OF  120 PAIRS ARE SKIPPED
                       ===========================

Total time spent in the initial guess                 ...     0.594 sec
SL-MP2 correlation energy (all non-screened pairs)    ...      -0.917978096813 Eh

Initial PNO correlation energy                        ...      -0.917207915606 Eh
sum of pair energies prescreened and skipped MP2 pairs...       0.000000000000 Eh
sum of pair energies of crude MP2 skipped pairs only  ...       0.000000000000 Eh
sum of MP2 pair energies for pairs that were not kept ...       0.000000000000 Eh
sum of PNO error estimates for the kept pairs         ...      -0.000770181208 Eh
                                                          --------------------
sum of all corrections                                         -0.000770181208
Initial total correlation energy                               -0.917978096813
Thresholds for map construction and integral transformation for fine MP2 and CCSD(T) calculation:
   TCutMKN   ...     1.0e-03
   TCutDO    ...     5.0e-03
   TCutPairs ...     1.0e-05
   TCutCMO   ...     1.0e-03
   TCutCPAO  ...     1.0e-03

Thresholds for map construction and integral transformation for strong Triples:
   TCutMKN   ...     1.0e-02
   TCutDO    ...     1.0e-02
   TCutCMO   ...     1.0e-03
   TCutCPAO  ...     1.0e-03

Thresholds for map construction and integral transformation for weak Triples:
   TCutMKN   ...     1.0e-01
   TCutDO    ...     2.0e-02
   TCutCMO   ...     1.0e-03
   TCutCPAO  ...     1.0e-03

--------------------------------
LOCAL RI TRANSFORMATION (IAVPAO)
--------------------------------

Orbital window:       5 to 19
Number of PAOs:     248
Basis functions:    248 (92 shells)
Aux. functions:     615 (185 shells)

Processing maps (0.0 sec)
Average map sizes:
   Aux shells -> MOs              15.0
   Aux shells -> PAOs            248.0
   MOs        -> AO shells        91.2
   PAOs       -> AO shells        92.0

Calculating integrals (0.4 sec, 17.462 MB)
Sorting integrals (0.0 sec, 17.455 MB)
Total time for the integral transformation: 0.4 sec
--------------------------------
INITIAL GUESS AND PNO GENERATION
--------------------------------

PNO truncation parameters                   .... 
    ScaleTCutPNO       =        1.000e-02
    PAOOverlapThresh   =        1.000e-08

    TCutPairs          =        1.000e-05
    TCutPNO            =        1.000e-07
    TCutPNOSingles     =        3.000e-09
    TCutMP2Pairs       =        1.000e-06
    TCutMKN            =        1.000e-03
    TCutDO             =        5.000e-03

Pair selection                          .... not used
Type of local MP2 treatment                 .... full local PMP2
Strategy for PNO selection                  .... occupation number selection
Pair density normalization                  .... MP2 norm
Spin component scaling                      .... not used

PASS-1: Formation of initial guess LMP2 amplitudes
Initial amplitudes guess done. Entering LMP2 iteration loop:
   Max. no of iterations          ...  50
   Energy convergence tolerance   ...    1.0e-07
   Residual convergence tolerance ...    5.0e-07
   Fock matrix cutoff             ...    1.0e-05 Eh
   DIIS convergence acceleration parameters:
        Max # vectors in DIIS     ... 7
        Start iteration of DIIS   ... 0
        Levelshift                ... 2.000e-01
        Damping factor 1          ... 5.000e-01
        Damping factor 2          ... 1.000e+00
   L-MP2 PNO cut-off              ...   1.0e-09
   L-MP2 PNO cut-off (core)       ...   1.0e-11
                           *** Turning on DIIS ***
LMP2-Iter=   0:  ELMP2= -0.937313021756  DE=   1.9e-02 RMAX=   1.7e-02
LMP2-Iter=   1:  ELMP2= -0.947987297490  DE=   1.1e-02 RMAX=   7.9e-03
LMP2-Iter=   2:  ELMP2= -0.950005736600  DE=   2.0e-03 RMAX=   3.3e-03
LMP2-Iter=   3:  ELMP2= -0.950294977797  DE=   2.9e-04 RMAX=   1.2e-03
LMP2-Iter=   4:  ELMP2= -0.950298082633  DE=   3.1e-06 RMAX=   3.4e-04
LMP2-Iter=   5:  ELMP2= -0.950290961610  DE=   7.1e-06 RMAX=   8.3e-05
LMP2-Iter=   6:  ELMP2= -0.950289499579  DE=   1.5e-06 RMAX=   1.3e-05
LMP2-Iter=   7:  ELMP2= -0.950289543236  DE=   4.4e-08 RMAX=   2.5e-06
LMP2-Iter=   8:  ELMP2= -0.950289602733  DE=   5.9e-08 RMAX=   3.7e-07
LMP2-Iter=   9:  ELMP2= -0.950289605239  DE=   2.5e-09 RMAX=   9.5e-08 => CONVERGED
PASS-2: Formation of Pair natural orbitals
   .... Finished loop over pairs

 PNO Occupation Number Statistics: 
  | Av. % of trace(Dij) retained        ...  99.637791319798
  | sigma^2 in % of trace(Dij) retained ...   3.01e-01
  | Av. % of trace(Di) retained         ...  99.999741115634
  | sigma^2 in % of trace(Di) retained  ...   9.87e-09
 Distributions of % trace(Dij) recovered:
  |       >= 99.9  ...    49 ( 40.8 % of all pairs)
  |   [90.0, 99.0) ...    10 (  8.3 % of all pairs)
  |   [99.0, 99.9) ...    61 ( 50.8 % of all pairs)
 Distributions of % trace(Di) recovered :
  |       >= 99.9  ...    15 (100.0 % of all I-pairs )

Making pair pair interaction lists          ... done

                       ===========================
                        120 OF  120 PAIRS ARE KEPT
                       ===========================

Total time spent in the initial guess                 ...     5.430 sec
L-MP2 correlation energy (all non-screened pairs)     ...      -0.950289605239 Eh
L-MP2 PNO error correction                            ...      -0.000013016051 Eh
                                                          --------------------
Initial total L-MP2 energy (non-screened pairs)       ...      -0.950302621289 Eh

Initial PNO correlation energy                        ...      -0.949552581848 Eh
sum of pair energies estimated for screened out pairs ...       0.000000000000 Eh
sum of MP2 pair energies for pairs that were not kept ...       0.000000000000 Eh
sum of PNO error estimates for the kept pairs         ...      -0.000750039441 Eh
                                                          --------------------
sum of all corrections                                         -0.000750039441
Initial total correlation energy                               -0.950302621289
Thresholds for map construction and integral transformation for fine MP2 and CCSD(T) calculation:
   TCutMKN   ...     1.0e-03
   TCutDO    ...     5.0e-03
   TCutPairs ...     1.0e-05
   TCutCMO   ...     1.0e-03
   TCutCPAO  ...     1.0e-03

Time for aux screen maps:            0.002
Time for maps after fine MP2:            0.006
-----------------------------
LOCAL RI TRANSFORMATION (IJV)
-----------------------------

Orbital window:       5 to 19
Basis functions:    248 (92 shells)
Aux. functions:     615 (185 shells)

Processing maps (0.0 sec)
Average map sizes:
   Aux shells -> MOs(i)           15.0
   Aux shells -> MOs(j)           15.0
   MOs        -> AO shells        91.2

Calculating integrals (0.4 sec, 1.063 MB)
Sorting integrals (0.0 sec, 1.056 MB)
Total time for the integral transformation: 0.4 sec
--------------------------------
LOCAL RI TRANSFORMATION (VABPAO)
--------------------------------

Number of PAOs:     248
Basis functions:    248 (92 shells)
Aux. functions:     615 (185 shells)

Processing maps (0.0 sec)
Average map sizes:
   Aux shells -> PAOs            248.0
   PAOs       -> AO shells        92.0

Calculating integrals (0.8 sec, 540.576 MB)
Finished


-------------------------------------
Pair Pair Term precalculation with     
RI-(ij|mn) and (im|jn) transformation  
ON THE FLY                             
-------------------------------------

   IBatch   1 (of   1)              ... done (   16.546 sec)
Total EXT                           ...          16.546 sec

---------------------
RI-PNO TRANSFORMATION
---------------------

Total Number of PNOs                   ...  5514
Average number of PNOs per pair        ...    45
Maximal number of PNOs per pair        ...    72
   #pairs with  1 -  5 PNOs   :    0
   #pairs with  6 - 10 PNOs   :    0
   #pairs with 11 - 15 PNOs   :    6
   #pairs with 16 - 20 PNOs   :    3
   #pairs with 21 - 25 PNOs   :    1
   #pairs with 26 - 30 PNOs   :   10
   #pairs with 31 - 35 PNOs   :   14
   #pairs with 36 - 40 PNOs   :    5
   #pairs with 41 - 45 PNOs   :   15
   #pairs with 46 - 50 PNOs   :   14
   #pairs with 51 - 55 PNOs   :   18
   #pairs with 56 - 60 PNOs   :    4
   #pairs with 61 - 65 PNOs   :   27
   #pairs with 66 - 70 PNOs   :    2
   #pairs with 71 - 75 PNOs   :    1

Generation of (ij|ab)[P] integrals            ... on
Generation of (ia|bc)[P],(ja|bc)[P] integrals ... on
Storage of 3 and 4 external integrals         ... on
Generation of ALL (ka|bc)[P] integrals        ... on
Keep RI integrals in memory                   ... off

Ibatch:  1 (of  1)
Starting 2-4 index PNO integral generation ... done

Timings:
Total PNO integral transformation time     ...          9.904 sec
Size of the 3-external file                ...       118 MB
Size of the 4-external file                ...       850 MB
Size of the IKJL file                      ...         0 MB
Size of the all 3-external file            ...       886 MB
Size of the 1-external file                ...         1 MB

Making pair/pair overlap matrices          ... done (    0.668 sec)
Size of the pair overlap file              ... 173 MB
Redoing the guess amplitudes               ... done (    0.002 sec)

-------------------------
FINAL STARTUP INFORMATION
-------------------------

E(0)                                       ...   -247.097899134
E(L-MP2)                                   ...     -0.950302621
E(L-MP2) including corrections             ...     -0.950302621
Initial E(tot)                             ...   -248.048201756
<T|T>                                      ...      0.243946365
Number of pairs included                   ... 120
Total number of pairs                      ... 120

------------------------------------------------
                  RHF COUPLED CLUSTER ITERATIONS
------------------------------------------------

Number of PNO amplitudes to be optimized   ...       280610
Number of non-PNO amplitudes               ...      6238080
Untruncated number of regular amplitudes   ...      6238080

Iter       E(tot)           E(Corr)          Delta-E          Residual     Time
  0   -248.015883813     -0.917234639      0.033067982      0.015398788    6.82
                           *** Turning on DIIS ***
  1   -248.048243623     -0.949594449     -0.032359810      0.010903596    7.57
  2   -248.072566952     -0.973917778     -0.024323329      0.005524782    7.16
  3   -248.077755489     -0.979106315     -0.005188537      0.003307218    6.33
  4   -248.079254137     -0.980604963     -0.001498648      0.001648682    7.20
  5   -248.079726932     -0.981077758     -0.000472795      0.000738049    7.20
  6   -248.079865884     -0.981216711     -0.000138952      0.000298887    7.23
  7   -248.079891248     -0.981242075     -0.000025364      0.000107638    7.18
  8   -248.079890592     -0.981241419      0.000000656      0.000043865    7.20
  9   -248.079888137     -0.981238963      0.000002455      0.000019976    7.12
 10   -248.079887718     -0.981238544      0.000000419      0.000012349    6.58
 11   -248.079887363     -0.981238189      0.000000355      0.000007511    6.57
               --- The Coupled-Cluster iterations have converged ---

----------------------
COUPLED CLUSTER ENERGY
----------------------

E(0)                                       ...   -247.097899134
E(CORR)(strong-pairs)                      ...     -0.981238189
E(CORR)(weak-pairs)                        ...     -0.000750039
E(CORR)(corrected)                         ...     -0.981988229
E(TOT)                                     ...   -248.079887363
Singles Norm <S|S>**1/2                    ...      0.073116992  
T1 diagnostic                              ...      0.013349275  

------------------
LARGEST AMPLITUDES
------------------
  12-> 20  12-> 20       0.044148
  11-> 20  11-> 20       0.044143
  12-> 20  11-> 20       0.036658
  18-> 27  18-> 27       0.032747
  19-> 27  19-> 27       0.032673
  13-> 23  13-> 23       0.031717
  11-> 20  -1-> -1       0.029939
  12-> 20  -1-> -1       0.029938
  16-> 27  16-> 27       0.029344
  14-> 27  14-> 27       0.029342
  14-> 20  14-> 20       0.026834
  16-> 20  16-> 20       0.026834
  17-> 20  17-> 20       0.026693
   6-> 24   6-> 24       0.026402
  18-> 20  18-> 20       0.026392
  19-> 20  19-> 20       0.026387


-------------------------------------------
DLPNO BASED TRIPLES CORRECTION
-------------------------------------------

Singles multiplier          ...  1.000000
TCutTNO                     ... 1.000e-09
TCutMP2Pairs                ... 1.000e-06
TCutDOStrong                ... 1.000e-02
TCutMKNStrong               ... 1.000e-02
TCutDOWeak                  ... 2.000e-02
TCutMKNWeak                 ... 1.000e-01

Fragment selection                          .... not used
Number of Triples that are to be computed   ...       665

 . . . . . . . . .
10% done  
20% done  
30% done  
40% done  
50% done  
60% done  
70% done  
80% done  
90% done               (     42.412 sec)
Triples timings:
Total time for T0               ...    44.777 sec
Total time for Iterative (T)    ...     0.000 sec
Total time of overall (T)       ...    45.053 sec

Triples List generation         ...     0.000 sec
TNO generation                  ...     2.360 sec
Pair density generation         ...     0.003 sec
Look up tables                  ...     0.000 sec
Generating 3-index integrals    ...    22.328 sec
  Make 4-ind.int. from 3-ind.int...     7.177 sec
  Projecting amplitudes (D + S) ...     2.685 sec
  Downprojecting integrals      ...     0.001 sec
  Energy contr. (sum over a,b,c)...     2.773 sec
Fitting ET(->0)                 ...     0.000 sec

Everything after 3-index        ...    20.084 sec

Timing details:
 TNO integrals                  ...    28.942 sec
   Reading 3-index integrals    ...     0.097 sec
   Sorting integrals            ...     5.011 sec
       Sorting integrals 1      ...     0.000 sec
       Sorting integrals 2      ...     1.556 sec
       Sorting integrals 3      ...     0.163 sec
       Sorting integrals 4      ...     0.007 sec
       Sorting integrals 5      ...     0.043 sec
       Sorting integrals 6      ...     3.243 sec
   Calculating local VM**-1/2   ...     0.117 sec
   Orthogonal. integrals        ...     0.253 sec
   Multipl. 3-index integrals   ...    23.463 sec
   All concerning IRIab (w/TNO) ...     3.381 sec

 Calculate W0/W1                ...     7.444 sec
 W 3-ext contribution           ...     4.075 sec
 W 3-int contribution           ...     0.992 sec
 Sorting W                      ...     2.275 sec

 V exchange contribution        ...     0.932 sec

 Timings for Triples without generation
     of 3-index integrals       ...    20.083 sec
       0 weak pairs             ...    20.083 sec
       1 weak pair              ...     0.000 sec
       2 weak pairs             ...     0.000 sec
       3 weak pairs             ...     0.000 sec
  Extra time for extrapolation  ...     0.000 sec

Number of Triples   (0, 1, 2, 3 weak pairs; overall):    665       0       0       0  (   665)
Number of Atoms     (0, 1, 2, 3 weak pairs; overall):   11.8     0.0     0.0     0.0  (    12)
Number of PAOs      (0, 1, 2, 3 weak pairs; overall):  245.4     0.0     0.0     0.0  (   248)
Number of AuxFcns   (0, 1, 2, 3 weak pairs; overall):  339.2     0.0     0.0     0.0  (   615)
Number of TNOs      (0, 1, 2, 3 weak pairs         ):  101.8     0.0     0.0     0.0
Aver. Number of NTNO, Atoms, PAOs, AuxFcns / Triples:    665   101.8    11.8   245.4   339.2

Triples Correction (T)                     ...     -0.039306890
Final correlation energy                   ...     -1.021295119
E(CCSD)                                    ...   -248.079887363
E(CCSD(T))                                 ...   -248.119194253


Maximum memory used throughout the entire calculation: 3659.6 MB


------------------------------------------------------------------------------- 
                                     TIMINGS                                   
------------------------------------------------------------------------------- 


Total execution time                   ...      182.113 sec

Localization of occupied MO's          ...        0.433 sec (  0.2%)
Fock Matrix Formation                  ...        0.937 sec (  0.5%)
Global overlap, Fock, MKN matrices     ...        0.160 sec (  0.1%)
Differential overlap integrals         ...        0.079 sec (  0.0%)
Organizing maps                        ...        0.018 sec (  0.0%)
RI 3-index integral generations        ...        2.058 sec (  1.1%)
RI-PNO integral transformation         ...       42.689 sec ( 23.4%)
Initial Guess                          ...        6.058 sec (  3.3%)
DIIS Solver                            ...        1.028 sec (  0.6%)
State Vector Update                    ...        0.025 sec (  0.0%)
Sigma-vector construction              ...       83.894 sec ( 46.1%)
  <D|H|D>(0-ext)                       ...        1.340 sec (  1.6% of sigma)
  <D|H|D>(2-ext Fock)                  ...        0.010 sec (  0.0% of sigma)
  <D|H|D>(2-ext)                       ...        4.935 sec (  5.9% of sigma)
  <D|H|D>(4-ext)                       ...       13.160 sec ( 15.7% of sigma)
  <D|H|D>(4-ext-corr)                  ...       51.563 sec ( 61.5% of sigma)
  CCSD doubles correction              ...        0.104 sec (  0.1% of sigma)
  <S|H|S>                              ...        0.309 sec (  0.4% of sigma)
  <S|H|D>(1-ext)                       ...        0.200 sec (  0.2% of sigma)
  <D|H|S>(1-ext)                       ...        0.006 sec (  0.0% of sigma)
  <S|H|D>(3-ext)                       ...        0.412 sec (  0.5% of sigma)
  Fock-dressing                        ...        8.375 sec ( 10.0% of sigma)
  Singles amplitudes                   ...        0.250 sec (  0.3% of sigma)
  (ik|jl)-dressing                     ...        1.350 sec (  1.6% of sigma)
  (ij|ab),(ia|jb)-dressing             ...        1.626 sec (  1.9% of sigma)
  Pair energies                        ...        0.006 sec (  0.0% of sigma)
Total Time for computing (T)           ...       45.077 sec ( 24.8% of ALL)


-------------------------   --------------------
FINAL SINGLE POINT ENERGY      -248.119194253117
-------------------------   --------------------


                            ***************************************
                            *     ORCA property calculations      *
                            ***************************************

                                    ---------------------
                                    Active property flags
                                    ---------------------
   (+) Dipole Moment


------------------------------------------------------------------------------
                       ORCA ELECTRIC PROPERTIES CALCULATION
------------------------------------------------------------------------------

Dipole Moment Calculation                       ... on
Quadrupole Moment Calculation                   ... off
Polarizability Calculation                      ... off
GBWName                                         ... N_methylacetamide_Z.gbw
Electron density file                           ... N_methylacetamide_Z.scfp.tmp
The origin for moment calculation is the CENTER OF MASS  = ( 0.023175,  0.094889 -0.000024)

-------------
DIPOLE MOMENT
-------------
                                X             Y             Z
Electronic contribution:      0.74167       2.16146      -0.00068
Nuclear contribution   :     -0.92695      -3.79544       0.00099
                        -----------------------------------------
Total Dipole Moment    :     -0.18527      -1.63399       0.00031
                        -----------------------------------------
Magnitude (a.u.)       :      1.64446
Magnitude (Debye)      :      4.17988



--------------------
Rotational spectrum 
--------------------
 
Rotational constants in cm-1:     0.331891     0.128363     0.095894 
Rotational constants in MHz :  9949.837024  3848.224970  2874.842742 

 Dipole components along the rotational axes: 
x,y,z [a.u.] :    -0.241749    -1.626593     0.000333 
x,y,z [Debye]:    -0.614478    -4.134470     0.000848 

 

Timings for individual modules:

Sum of individual times         ...      189.444 sec (=   3.157 min)
GTO integral calculation        ...        0.570 sec (=   0.009 min)   0.3 %
SCF iterations                  ...        6.495 sec (=   0.108 min)   3.4 %
MDCI module                     ...      182.379 sec (=   3.040 min)  96.3 %
                             ****ORCA TERMINATED NORMALLY****
TOTAL RUN TIME: 0 days 0 hours 3 minutes 9 seconds 804 msec
N_methylacetamide_Z.gbw -> /home1/pantazis/klk/xyz/Nitrogen_compounds/N_methylacetamide_Z.gbw
N_methylacetamide_Z.job -> /home1/pantazis/klk/xyz/Nitrogen_compounds/N_methylacetamide_Z.job
N_methylacetamide_Z.loc -> /home1/pantazis/klk/xyz/Nitrogen_compounds/N_methylacetamide_Z.loc
N_methylacetamide_Z.nodes -> /home1/pantazis/klk/xyz/Nitrogen_compounds/N_methylacetamide_Z.nodes
N_methylacetamide_Z.prop -> /home1/pantazis/klk/xyz/Nitrogen_compounds/N_methylacetamide_Z.prop
N_methylacetamide_Z_property.txt -> /home1/pantazis/klk/xyz/Nitrogen_compounds/N_methylacetamide_Z_property.txt
N_methylacetamide_Z.xyz -> /home1/pantazis/klk/xyz/Nitrogen_compounds/N_methylacetamide_Z.xyz
cp: cannot stat N_methylacetamide_Z.asa.inp: No such file or directory
