! Job execution by suborca V 6.07 on ZEUS !
Job started from zeus1, running /scratch/pantazis/N_Me_piperidine_ax__mvkuNG/orca/orca copied from /opt/orca on zeussn127 in /scratch/pantazis/N_Me_piperidine_ax__mvkuNG
Job execution start: Fri Jun 28 00:50:39 CEST 2019
Shared library path: /scratch/pantazis/N_Me_piperidine_ax__mvkuNG/orca:/opt/openmpi_1.10.2/lib:/opt/intel/mkl/lib/intel64:/opt/intel/lib/intel64:
PBS Job ID is: 158267.icqc
izeussn127
izeussn127
izeussn127
izeussn127
izeussn127
izeussn127
izeussn127
izeussn127

                                 *****************
                                 * O   R   C   A *
                                 *****************

           --- An Ab Initio, DFT and Semiempirical electronic structure package ---

                  #######################################################
                  #                        -***-                        #
                  #          Department of theory and spectroscopy      #
                  #               Directorship: Frank Neese             #
                  #        Max Planck Institute fuer Kohlenforschung    #
                  #                Kaiser Wilhelm Platz 1               #
                  #                 D-45470 Muelheim/Ruhr               #
                  #                      Germany                        #
                  #                                                     #
                  #                  All rights reserved                #
                  #                        -***-                        #
                  #######################################################


                         Program Version 4.1.x  -  STABLE  -
                                (SVN: $Rev: 14094$)
                ($Date: 2019-06-14 15:01:15 +0200 (Fri, 14 Jun 2019) $)

                         (BUILD: $Sun Jun 23 06:18:31 CEST 2019$)


 With contributions from (in alphabetic order):
   Daniel Aravena         : Magnetic Properties
   Michael Atanasov       : Ab Initio Ligand Field Theory
   Alexander A. Auer      : GIAO ZORA
   Ute Becker             : Parallelization
   Giovanni Bistoni       : ED, Open-shell LED
   Martin Brehm           : Molecular dynamics
   Dmytro Bykov           : SCF Hessian
   Vijay G. Chilkuri      : MRCI spin determinant printing
   Dipayan Datta          : RHF DLPNO-CCSD density
   Achintya Kumar Dutta   : EOM-CC, STEOM-CC
   Dmitry Ganyushin       : Spin-Orbit,Spin-Spin,Magnetic field MRCI
   Miquel Garcia          : C-PCM Hessian
   Yang Guo               : DLPNO-NEVPT2, CIM, IAO-localization
   Andreas Hansen         : Spin unrestricted coupled pair/coupled cluster methods
   Benjamin Helmich-Paris : CASSCF linear response (MC-RPA)
   Lee Huntington         : MR-EOM, pCC
   Robert Izsak           : Overlap fitted RIJCOSX, COSX-SCS-MP3, EOM
   Christian Kollmar      : KDIIS, OOCD, Brueckner-CCSD(T), CCSD density
   Simone Kossmann        : Meta GGA functionals, TD-DFT gradient, OOMP2, MP2 Hessian
   Martin Krupicka        : AUTO-CI
   Lucas Lang             : DCDCAS
   Dagmar Lenk            : GEPOL surface, SMD
   Dimitrios Liakos       : Extrapolation schemes; parallel MDCI
   Dimitrios Manganas     : ROCIS; embedding schemes
   Dimitrios Pantazis     : SARC Basis sets
   Taras Petrenko         : DFT Hessian,TD-DFT gradient, ASA, ECA, R-Raman, ABS, FL, XAS/XES, NRVS
   Peter Pinski           : DLPNO-MP2, DLPNO-MP2 Gradient
   Christoph Reimann      : Effective Core Potentials
   Marius Retegan         : Local ZFS, SOC
   Christoph Riplinger    : Optimizer, TS searches, QM/MM, DLPNO-CCSD(T), (RO)-DLPNO pert. Triples
   Tobias Risthaus        : Range-separated hybrids, TD-DFT gradient, RPA, STAB
   Michael Roemelt        : Restricted open shell CIS
   Masaaki Saitow         : Open-shell DLPNO
   Barbara Sandhoefer     : DKH picture change effects
   Avijit Sen             : IP-ROCIS
   Kantharuban Sivalingam : CASSCF convergence, NEVPT2, FIC-MRCI
   Bernardo de Souza      : ESD, SOC TD-DFT
   Georgi Stoychev        : AutoAux, RI-MP2 NMR
   Willem Van den Heuvel  : Paramagnetic NMR
   Boris Wezisla          : Elementary symmetry handling
   Frank Wennmohs         : Technical directorship


 We gratefully acknowledge several colleagues who have allowed us to
 interface, adapt or use parts of their codes:
   Stefan Grimme, W. Hujo, H. Kruse,             : VdW corrections, initial TS optimization,
                  C. Bannwarth                     DFT functionals, gCP, sTDA/sTD-DF
   Ed Valeev                                     : LibInt (2-el integral package), F12 methods
   Garnet Chan, S. Sharma, J. Yang, R. Olivares  : DMRG
   Ulf Ekstrom                                   : XCFun DFT Library
   Mihaly Kallay                                 : mrcc  (arbitrary order and MRCC methods)
   Andreas Klamt, Michael Diedenhofen            : otool_cosmo (COSMO solvation model)
   Jiri Pittner, Ondrej Demel                    : Mk-CCSD
   Frank Weinhold                                : gennbo (NPA and NBO analysis)
   Christopher J. Cramer and Donald G. Truhlar   : smd solvation model
   Lars Goerigk                                  : TD-DFT with DH, B97 family of functionals
   V. Asgeirsson, H. Jonsson                     : NEB implementation
   FAccTs GmbH                                   : IRC, NEB, NEB-TS, Multilevel


 Your calculation uses the libint2 library for the computation of 2-el integrals
 For citations please refer to: http://libint.valeyev.net

 This ORCA versions uses:
   CBLAS   interface :  Fast vector & matrix operations
   LAPACKE interface :  Fast linear algebra routines
   SCALAPACK package :  Parallel linear algebra routines




***************************************
The coordinates will be read from file: N_Me_piperidine_ax.xyz
***************************************


----- Orbital basis set information -----
Your calculation utilizes the basis: cc-pVTZ 
       H, B-Ne : Obtained from the ccRepo (grant-hill.group.shef.ac.uk/ccrepo) Feb. 2017
                 T. H. Dunning, Jr., J. Chem. Phys. 90, 1007 (1989)
            He : Obtained from the ccRepo (grant-hill.group.shef.ac.uk/ccrepo) Feb. 2017
                 D. E. Woon, T. H. Dunning, Jr., J. Chem. Phys. 100, 2975 (1994)
  Li-Be, Na-Mg : Obtained from the ccRepo (grant-hill.group.shef.ac.uk/ccrepo) Feb. 2017
                 B. P. Prascher, D. E. Woon, K. A. Peterson, T. H. Dunning, Jr., A. K. Wilson, Theor. Chem. Acc. 128, 69 (2011)
         Al-Ar : Obtained from the ccRepo (grant-hill.group.shef.ac.uk/ccrepo) Feb. 2017
                 D. E. Woon, T. H. Dunning, Jr., J. Chem. Phys. 98, 1358 (1993)
            Ca : Obtained from the Peterson Research Group Website (tyr0.chem.wsu.edu/~kipeters) Feb. 2017
                 J. Koput, K. A. Peterson, J. Phys. Chem. 106, 9595 (2002)
         Sc-Zn : Obtained from the ccRepo (grant-hill.group.shef.ac.uk/ccrepo) Feb. 2017
                 N. B. Balabanov, K. A. Peterson, J. Chem. Phys. 123, 064107 (2005)
                 N. B. Balabanov, K. A. Peterson, J. Chem. Phys. 125, 074110 (2006)
         Ga-Kr : Obtained from the ccRepo (grant-hill.group.shef.ac.uk/ccrepo) Feb. 2017
                 A. K. Wilson, D. E. Woon, K. A. Peterson, T. H. Dunning, Jr., J. Chem. Phys. 110, 7667 (1999)
             Y : Obtained from the ccRepo (grant-hill.group.shef.ac.uk/ccrepo) Feb. 2017
                 K. A. Peterson, D. Figgen, M. Dolg, H. Stoll, J. Chem. Phys. 126, 124101 (2007)
        Ag, Au : Obtained from the Peterson Research Group Website (tyr0.chem.wsu.edu/~kipeters) Feb. 2017
                 K. A. Peterson, C. Puzzarini, Theor. Chem. Acc. 114, 283 (2005)

----- AuxC basis set information -----
Your calculation utilizes the auxiliary basis: cc-pVTZ/C 
  Obtained from the EMSL Basis Set Exchange (bse.pnl.gov) Feb. 2017
  H-He, B-F, Al-Ar, Ga-Kr : F. Weigend, A. Kohn, C. Hattig, J. Chem. Phys. 116, 3175 (2002)
             Li-Be, Na-Mg : C. Haettig, Phys. Chem. Chem. Phys. 7, 59 (2005)
                       Ne : C. Haettig, Phys. Chem. Chem. Phys. 7, 59 (2005)
                            F. Weigend, A. Kohn, C. Hattig, J. Chem. Phys. 116, 3175 (2002)
                    Sc-Zn : J. G. Hill, J. A. Platts, J. Chem. Phys. 128, 044104 (2008)

----- AuxJK basis set information -----
Your calculation utilizes the auxiliary basis: cc-pVTZ/JK 
  H, B-F, Al-Cl, Ga-Br : Obtained from the TURBOMOLE 7.0 basis set library

================================================================================
                                        WARNINGS
                       Please study these warnings very carefully!
================================================================================


WARNING: MDCI localization with Augmented Hessian Foster-Boys
  ===> : Switching off randomization!

WARNING: Post HF methods need fully converged wavefunctions
  ===> : Setting SCFConvForced true
         You can overwrite this default with %scf ConvForced false 


INFO   : the flag for use of LIBINT has been found!

================================================================================
                                       INPUT FILE
================================================================================
NAME = N_Me_piperidine_ax.inp
|  1> ! RHF DLPNO-CCSD(T) cc-pVTZ RIJK cc-pVTZ/JK cc-pVTZ/C
|  2> ! KDIIS SOSCF TightSCF TightPNO
|  3> 
|  4> %pal nprocs 8 end
|  5> 
|  6> %maxcore 8000
|  7> 
|  8> %scf maxiter 300
|  9>      shift shift 0.2 erroff 0.1 end
| 10> end
| 11> 
| 12> * xyzfile 0 1 N_Me_piperidine_ax.xyz 
| 13> 
| 14> 
| 15>                          ****END OF INPUT****
================================================================================

                       ****************************
                       * Single Point Calculation *
                       ****************************

---------------------------------
CARTESIAN COORDINATES (ANGSTROEM)
---------------------------------
  C     -1.797590    0.000020   -0.162700
  C     -0.937390    1.265360   -0.321700
  C      0.281320    1.209930    0.620500
  N      1.100920   -0.000010    0.478230
  C      0.281290   -1.209950    0.620490
  C     -0.937440   -1.265330   -0.321690
  C      1.957960   -0.000010   -0.702920
  H      0.927100    2.083550    0.474380
  H     -0.073660    1.245620    1.661080
  H     -0.073680   -1.245660    1.661070
  H      0.927050   -2.083570    0.474340
  H     -0.600570    1.354250   -1.363490
  H     -1.528020    2.164990   -0.105650
  H     -1.528070   -2.164960   -0.105670
  H     -0.600640   -1.354220   -1.363490
  H     -2.253440    0.000020    0.838980
  H     -2.625160    0.000010   -0.882460
  H      2.603660    0.884500   -0.678360
  H      2.603630   -0.884550   -0.678390
  H      1.426510    0.000010   -1.671790

----------------------------
CARTESIAN COORDINATES (A.U.)
----------------------------
  NO LB      ZA    FRAG     MASS         X           Y           Z
   0 C     6.0000    0    12.011   -3.396953    0.000038   -0.307458
   1 C     6.0000    0    12.011   -1.771410    2.391184   -0.607925
   2 C     6.0000    0    12.011    0.531618    2.286436    1.172575
   3 N     7.0000    0    14.007    2.080437   -0.000019    0.903724
   4 C     6.0000    0    12.011    0.531561   -2.286474    1.172556
   5 C     6.0000    0    12.011   -1.771505   -2.391127   -0.607906
   6 C     6.0000    0    12.011    3.700008   -0.000019   -1.328326
   7 H     1.0000    0     1.008    1.751965    3.937339    0.896448
   8 H     1.0000    0     1.008   -0.139197    2.353881    3.138986
   9 H     1.0000    0     1.008   -0.139235   -2.353956    3.138967
  10 H     1.0000    0     1.008    1.751871   -3.937377    0.896373
  11 H     1.0000    0     1.008   -1.134913    2.559162   -2.576623
  12 H     1.0000    0     1.008   -2.887539    4.091238   -0.199650
  13 H     1.0000    0     1.008   -2.887634   -4.091181   -0.199687
  14 H     1.0000    0     1.008   -1.135045   -2.559105   -2.576623
  15 H     1.0000    0     1.008   -4.258384    0.000038    1.585442
  16 H     1.0000    0     1.008   -4.960833    0.000019   -1.667608
  17 H     1.0000    0     1.008    4.920204    1.671463   -1.281915
  18 H     1.0000    0     1.008    4.920148   -1.671557   -1.281971
  19 H     1.0000    0     1.008    2.695713    0.000019   -3.159225

--------------------------------
INTERNAL COORDINATES (ANGSTROEM)
--------------------------------
 C      0   0   0     0.000000000000     0.00000000     0.00000000
 C      1   0   0     1.538281624281     0.00000000     0.00000000
 C      2   1   0     1.541449768562   110.44791581     0.00000000
 N      3   2   1     1.468311859415   114.31340314    54.19811169
 C      4   3   2     1.468327636497   110.98060803   305.98002749
 C      1   2   3     1.538260857300   110.68699718   307.35894379
 C      4   3   2     1.459326174678   113.96894566    76.26840640
 H      3   2   1     1.096172781636   110.83253912   176.99900196
 H      3   2   1     1.100041505081   108.77808054   294.22460151
 H      5   4   3     1.100038927220   107.36907390   293.26045214
 H      5   4   3     1.096164998757   108.35895592   178.15174020
 H      2   1   3     1.098487846360   109.63645256   121.23219355
 H      2   1   3     1.097659116620   110.66665095   238.51454580
 H      6   1   2     1.097653212176   110.66870763   174.12808309
 H      6   1   2     1.098491198008   109.63515474   291.40843823
 H      1   2   3     1.100528075471   109.00815279    67.24607664
 H      1   2   3     1.096780088532   110.73917996   184.15002533
 H      7   4   3     1.095394734194   109.14974873    56.86872249
 H      7   4   3     1.095400603158   109.15001105   174.34252274
 H      7   4   3     1.105055736060   115.28954277   295.60534692

---------------------------
INTERNAL COORDINATES (A.U.)
---------------------------
 C      0   0   0     0.000000000000     0.00000000     0.00000000
 C      1   0   0     2.906930986734     0.00000000     0.00000000
 C      2   1   0     2.912917911779   110.44791581     0.00000000
 N      3   2   1     2.774707293484   114.31340314    54.19811169
 C      4   3   2     2.774737107847   110.98060803   305.98002749
 C      1   2   3     2.906891742827   110.68699718   307.35894379
 C      4   3   2     2.757726810204   113.96894566    76.26840640
 H      3   2   1     2.071466352751   110.83253912   176.99900196
 H      3   2   1     2.078777180549   108.77808054   294.22460151
 H      5   4   3     2.078772309099   107.36907390   293.26045214
 H      5   4   3     2.071451645241   108.35895592   178.15174020
 H      2   1   3     2.075841191061   109.63645256   121.23219355
 H      2   1   3     2.074275118815   110.66665095   238.51454580
 H      6   1   2     2.074263961031   110.66870763   174.12808309
 H      6   1   2     2.075847524757   109.63515474   291.40843823
 H      1   2   3     2.079696665332   109.00815279    67.24607664
 H      1   2   3     2.072613996463   110.73917996   184.15002533
 H      7   4   3     2.069996056166   109.14974873    56.86872249
 H      7   4   3     2.070007146902   109.15001105   174.34252274
 H      7   4   3     2.088252703873   115.28954277   295.60534692

---------------------
BASIS SET INFORMATION
---------------------
There are 3 groups of distinct atoms

 Group   1 Type C   : 18s5p2d1f contracted to 4s3p2d1f pattern {8811/311/11/1}
 Group   2 Type N   : 18s5p2d1f contracted to 4s3p2d1f pattern {8811/311/11/1}
 Group   3 Type H   : 5s2p1d contracted to 3s2p1d pattern {311/11/1}

Atom   0C    basis set group =>   1
Atom   1C    basis set group =>   1
Atom   2C    basis set group =>   1
Atom   3N    basis set group =>   2
Atom   4C    basis set group =>   1
Atom   5C    basis set group =>   1
Atom   6C    basis set group =>   1
Atom   7H    basis set group =>   3
Atom   8H    basis set group =>   3
Atom   9H    basis set group =>   3
Atom  10H    basis set group =>   3
Atom  11H    basis set group =>   3
Atom  12H    basis set group =>   3
Atom  13H    basis set group =>   3
Atom  14H    basis set group =>   3
Atom  15H    basis set group =>   3
Atom  16H    basis set group =>   3
Atom  17H    basis set group =>   3
Atom  18H    basis set group =>   3
Atom  19H    basis set group =>   3
-------------------------------
AUXILIARY BASIS SET INFORMATION
-------------------------------
There are 3 groups of distinct atoms

 Group   1 Type C   : 8s6p5d3f1g contracted to 8s6p5d3f1g pattern {11111111/111111/11111/111/1}
 Group   2 Type N   : 8s6p5d3f1g contracted to 8s6p5d3f1g pattern {11111111/111111/11111/111/1}
 Group   3 Type H   : 4s3p2d1f contracted to 4s3p2d1f pattern {1111/111/11/1}

Atom   0C    basis set group =>   1
Atom   1C    basis set group =>   1
Atom   2C    basis set group =>   1
Atom   3N    basis set group =>   2
Atom   4C    basis set group =>   1
Atom   5C    basis set group =>   1
Atom   6C    basis set group =>   1
Atom   7H    basis set group =>   3
Atom   8H    basis set group =>   3
Atom   9H    basis set group =>   3
Atom  10H    basis set group =>   3
Atom  11H    basis set group =>   3
Atom  12H    basis set group =>   3
Atom  13H    basis set group =>   3
Atom  14H    basis set group =>   3
Atom  15H    basis set group =>   3
Atom  16H    basis set group =>   3
Atom  17H    basis set group =>   3
Atom  18H    basis set group =>   3
Atom  19H    basis set group =>   3
-------------------------------
AUXILIARY BASIS SET INFORMATION
-------------------------------
There are 3 groups of distinct atoms

 Group   1 Type C   : 10s7p5d2f1g contracted to 10s7p5d2f1g pattern {1111111111/1111111/11111/11/1}
 Group   2 Type N   : 10s7p5d2f1g contracted to 10s7p5d2f1g pattern {1111111111/1111111/11111/11/1}
 Group   3 Type H   : 4s3p2d1f contracted to 4s3p2d1f pattern {1111/111/11/1}

Atom   0C    basis set group =>   1
Atom   1C    basis set group =>   1
Atom   2C    basis set group =>   1
Atom   3N    basis set group =>   2
Atom   4C    basis set group =>   1
Atom   5C    basis set group =>   1
Atom   6C    basis set group =>   1
Atom   7H    basis set group =>   3
Atom   8H    basis set group =>   3
Atom   9H    basis set group =>   3
Atom  10H    basis set group =>   3
Atom  11H    basis set group =>   3
Atom  12H    basis set group =>   3
Atom  13H    basis set group =>   3
Atom  14H    basis set group =>   3
Atom  15H    basis set group =>   3
Atom  16H    basis set group =>   3
Atom  17H    basis set group =>   3
Atom  18H    basis set group =>   3
Atom  19H    basis set group =>   3


           ************************************************************
           *        Program running with 8 parallel MPI-processes     *
           *              working on a common directory               *
           ************************************************************
------------------------------------------------------------------------------
                           ORCA GTO INTEGRAL CALCULATION
                           -- RI-GTO INTEGRALS CHOSEN --
------------------------------------------------------------------------------

                         BASIS SET STATISTICS AND STARTUP INFO

Gaussian basis set:
 # of primitive gaussian shells          ...  286
 # of primitive gaussian functions       ...  558
 # of contracted shells                  ...  148
 # of contracted basis functions         ...  392
 Highest angular momentum                ...    3
 Maximum contraction depth               ...    8
Auxiliary gaussian basis set:
 # of primitive gaussian shells          ...  305
 # of primitive gaussian functions       ...  943
 # of contracted shells                  ...  305
 # of contracted aux-basis functions     ...  943
 Highest angular momentum                ...    4
 Maximum contraction depth               ...    1
Ratio of auxiliary to basis functions    ...  2.41
Integral package used                  ... LIBINT
 One Electron integrals                  ... done
 Ordering auxiliary basis shells         ... done
 Integral threshhold             Thresh  ...  2.500e-11
 Primitive cut-off               TCut    ...  2.500e-12
 Pre-screening matrix                    ... done
 Shell pair data                         ... 
 Ordering of the shell pairs             ... done (   0.002 sec) 10632 of 11026 pairs
 Determination of significant pairs      ... done (   0.000 sec)
 Creation of shell pair data             ... done (   0.002 sec)
 Storage of shell pair data              ... done (   0.004 sec)
 Shell pair data done in (   0.008 sec)
 Computing two index integrals           ... done
 Cholesky decomposition of the V-matrix  ... done


Timings:
 Total evaluation time                   ...   0.585 sec (  0.010 min)
 One electron matrix time                ...   0.147 sec (  0.002 min) = 25.1%
 Schwartz matrix evaluation time         ...   0.262 sec (  0.004 min) = 44.8%
 Two index repulsion integral time       ...   0.074 sec (  0.001 min) = 12.7%
 Cholesky decomposition of V             ...   0.067 sec (  0.001 min) = 11.5%
 Three index repulsion integral time     ...   0.000 sec (  0.000 min) =  0.0%



           ************************************************************
           *        Program running with 8 parallel MPI-processes     *
           *              working on a common directory               *
           ************************************************************
-------------------------------------------------------------------------------
                                 ORCA SCF
-------------------------------------------------------------------------------

------------
SCF SETTINGS
------------
Hamiltonian:
 Ab initio Hamiltonian  Method          .... Hartree-Fock(GTOs)
 RI-approximation to the Coulomb term is turned on
   Number of auxiliary basis functions  .... 943
   RI-JK (J+K treated both via RI)      .... on


General Settings:
 Integral files         IntName         .... N_Me_piperidine_ax
 Hartree-Fock type      HFTyp           .... RHF
 Total Charge           Charge          ....    0
 Multiplicity           Mult            ....    1
 Number of Electrons    NEL             ....   56
 Basis Dimension        Dim             ....  392
 Nuclear Repulsion      ENuc            ....    336.6225593571 Eh

Convergence Acceleration:
 DIIS                   CNVDIIS         .... off
 Newton-Raphson         CNVNR           .... off
 SOSCF                  CNVSOSCF        .... on
   Start iteration      SOSCFMaxIt      ....   150
   Startup grad/error   SOSCFStart      ....  0.003300
 Level Shifting         CNVShift        .... on
   Level shift para.    LevelShift      ....    0.2000
   Turn off err/grad.   ShiftErr        ....    0.1000
 Zerner damping         CNVZerner       .... off
 Static damping         CNVDamp         .... off
 Fernandez-Rico         CNVRico         .... off

SCF Procedure:
 Maximum # iterations   MaxIter         ....   300
 SCF integral mode      SCFMode         .... Direct
   Integral package                     .... LIBINT
 Reset frequency        DirectResetFreq ....    20
 Integral Threshold     Thresh          ....  2.500e-11 Eh
 Primitive CutOff       TCut            ....  2.500e-12 Eh

Convergence Tolerance:
 Convergence Check Mode ConvCheckMode   .... Total+1el-Energy
 Convergence forced     ConvForced      .... 1
 Energy Change          TolE            ....  1.000e-08 Eh
 1-El. energy change                    ....  1.000e-05 Eh
 Orbital Gradient       TolG            ....  1.000e-05
 Orbital Rotation angle TolX            ....  1.000e-05


Diagonalization of the overlap matrix:
Smallest eigenvalue                        ... 2.991e-04
Time for diagonalization                   ...    0.030 sec
Threshold for overlap eigenvalues          ... 1.000e-08
Number of eigenvalues below threshold      ... 0
Time for construction of square roots      ...    0.043 sec
Total time needed                          ...    0.073 sec

-------------------
DFT GRID GENERATION
-------------------

General Integration Accuracy     IntAcc      ...  4.340
Radial Grid Type                 RadialGrid  ... Gauss-Chebyshev
Angular Grid (max. acc.)         AngularGrid ... Lebedev-110
Angular grid pruning method      GridPruning ... 3 (G Style)
Weight generation scheme         WeightScheme... Becke
Basis function cutoff            BFCut       ...    1.0000e-11
Integration weight cutoff        WCut        ...    1.0000e-14
Grids for H and He will be reduced by one unit

# of grid points (after initial pruning)     ...  21960 (   0.0 sec)
# of grid points (after weights+screening)   ...  19928 (   0.0 sec)
nearest neighbour list constructed           ...    0.0 sec
Grid point re-assignment to atoms done       ...    0.0 sec
Grid point division into batches done        ...    0.0 sec
Reduced shell lists constructed in    0.2 sec

Total number of grid points                  ...    19928
Total number of batches                      ...      320
Average number of points per batch           ...       62
Average number of grid points per atom       ...      996
Average number of shells per batch           ...   128.02 (86.50%)
Average number of basis functions per batch  ...   334.85 (85.42%)
Average number of large shells per batch     ...   103.59 (80.91%)
Average number of large basis fcns per batch ...   266.80 (79.68%)
Average number of aux-shells per batch       ...   128.02 (41.98%)
Average number of aux functions per batch    ...   334.85 (35.51%)
Maximum spatial batch extension              ...   2.54,  3.53,  2.45 au
Average spatial batch extension              ...   0.20,  0.20,  0.19 au

Time for grid setup =    0.195 sec

------------------------------
INITIAL GUESS: MODEL POTENTIAL
------------------------------
Loading Hartree-Fock densities                     ... done
Calculating cut-offs                               ... done
Setting up the integral package                    ... done
Initializing the effective Hamiltonian             ... done
Starting the Coulomb interaction                   ... done (   0.1 sec)
Reading the grid                                   ... done
Mapping shells                                     ... done
Starting the XC term evaluation                    ... done (   0.1 sec)
Transforming the Hamiltonian                       ... done (   0.0 sec)
Diagonalizing the Hamiltonian                      ... done (   0.0 sec)
Back transforming the eigenvectors                 ... done (   0.0 sec)
Now organizing SCF variables                       ... done
                      ------------------
                      INITIAL GUESS DONE (   0.5 sec)
                      ------------------
--------------
SCF ITERATIONS
--------------
ITER       Energy         Delta-E        Max-DP      RMS-DP      [F,P]   Gradient Norm
                             ****Turning on KDIIS(Cayley)****
  0   -288.9256556860   0.000000000000 0.01008447  0.00025048  0.1307891   0.147102564
  1   -289.0336572923  -0.108001606267 0.01784241  0.00028155  0.1197337   0.127779300
  2   -289.1247361745  -0.091078882285 0.02924074  0.00048468  0.0963526   0.103756130
  3   -289.2367553706  -0.112019196054 0.04433392  0.00078158  0.0582629   0.063975915
                      *** Initiating the SOSCF procedure ***
                           *** Shutting down KDIIS ***
                      *** Re-Reading the Fockian *** 
                      *** Removing any level shift *** 
ITER      Energy       Delta-E        Grad      Rot      Max-DP    RMS-DP
  4   -289.30956595  -0.0728105797  0.002420  0.002420  0.001899  0.000054
  5   -289.30991321  -0.0003472602  0.001176  0.002068  0.001981  0.000050
  6   -289.30998402  -0.0000708108  0.000645  0.000496  0.000776  0.000021
  7   -289.31000832  -0.0000242984  0.000094  0.000229  0.000419  0.000009
  8   -289.31000908  -0.0000007578  0.000044  0.000116  0.000192  0.000004
  9   -289.31000916  -0.0000000824  0.000010  0.000023  0.000046  0.000001
 10   -289.31000917  -0.0000000088  0.000003  0.000004  0.000015  0.000000
                  ***Gradient check signals convergence***
              ***Rediagonalizing the Fockian in SOSCF/NRSCF***

               *****************************************************
               *                     SUCCESS                       *
               *           SCF CONVERGED AFTER  11 CYCLES          *
               *****************************************************


----------------
TOTAL SCF ENERGY
----------------

Total Energy       :         -289.31000917 Eh           -7872.52558 eV

Components:
Nuclear Repulsion  :          336.62255936 Eh            9159.96552 eV
Electronic Energy  :         -625.93256853 Eh          -17032.49110 eV
One Electron Energy:        -1058.07932375 Eh          -28791.80215 eV
Two Electron Energy:          432.14675522 Eh           11759.31104 eV

Virial components:
Potential Energy   :         -578.08451543 Eh          -15730.47939 eV
Kinetic Energy     :          288.77450626 Eh            7857.95381 eV
Virial Ratio       :            2.00185440


---------------
SCF CONVERGENCE
---------------

  Last Energy change         ...   -1.0857e-09  Tolerance :   1.0000e-08
  Last MAX-Density change    ...    5.1489e-06  Tolerance :   1.0000e-07
  Last RMS-Density change    ...    1.0967e-07  Tolerance :   5.0000e-09
  Last Orbital Gradient      ...    1.4044e-06  Tolerance :   1.0000e-05
  Last Orbital Rotation      ...    3.2973e-06  Tolerance :   1.0000e-05

             **** THE GBW FILE WAS UPDATED (N_Me_piperidine_ax.gbw) ****
             **** DENSITY FILE WAS UPDATED (N_Me_piperidine_ax.scfp.tmp) ****
             **** ENERGY FILE WAS UPDATED (N_Me_piperidine_ax.en.tmp) ****
----------------
ORBITAL ENERGIES
----------------

  NO   OCC          E(Eh)            E(eV) 
   0   2.0000     -15.535728      -422.7486 
   1   2.0000     -11.241532      -305.8976 
   2   2.0000     -11.241517      -305.8972 
   3   2.0000     -11.237999      -305.8015 
   4   2.0000     -11.218104      -305.2601 
   5   2.0000     -11.215340      -305.1849 
   6   2.0000     -11.215268      -305.1830 
   7   2.0000      -1.218574       -33.1591 
   8   2.0000      -1.059338       -28.8261 
   9   2.0000      -1.006132       -27.3782 
  10   2.0000      -0.935416       -25.4540 
  11   2.0000      -0.842417       -22.9233 
  12   2.0000      -0.831504       -22.6264 
  13   2.0000      -0.744856       -20.2685 
  14   2.0000      -0.654326       -17.8051 
  15   2.0000      -0.627876       -17.0854 
  16   2.0000      -0.611347       -16.6356 
  17   2.0000      -0.599745       -16.3199 
  18   2.0000      -0.567053       -15.4303 
  19   2.0000      -0.560390       -15.2490 
  20   2.0000      -0.526625       -14.3302 
  21   2.0000      -0.509372       -13.8607 
  22   2.0000      -0.500475       -13.6186 
  23   2.0000      -0.482654       -13.1337 
  24   2.0000      -0.480096       -13.0641 
  25   2.0000      -0.452170       -12.3042 
  26   2.0000      -0.442287       -12.0352 
  27   2.0000      -0.334773        -9.1096 
  28   0.0000       0.137485         3.7412 
  29   0.0000       0.158847         4.3224 
  30   0.0000       0.168009         4.5718 
  31   0.0000       0.169138         4.6025 
  32   0.0000       0.198433         5.3996 
  33   0.0000       0.198845         5.4108 
  34   0.0000       0.212614         5.7855 
  35   0.0000       0.220893         6.0108 
  36   0.0000       0.221600         6.0300 
  37   0.0000       0.244176         6.6444 
  38   0.0000       0.245276         6.6743 
  39   0.0000       0.270831         7.3697 
  40   0.0000       0.275682         7.5017 
  41   0.0000       0.282055         7.6751 
  42   0.0000       0.321064         8.7366 
  43   0.0000       0.342865         9.3298 
  44   0.0000       0.363576         9.8934 
  45   0.0000       0.375800        10.2260 
  46   0.0000       0.379516        10.3271 
  47   0.0000       0.387873        10.5546 
  48   0.0000       0.395735        10.7685 
  49   0.0000       0.413145        11.2422 
  50   0.0000       0.425764        11.5856 
  51   0.0000       0.432847        11.7784 
  52   0.0000       0.464947        12.6518 
  53   0.0000       0.496401        13.5077 
  54   0.0000       0.501912        13.6577 
  55   0.0000       0.518177        14.1003 
  56   0.0000       0.522094        14.2069 
  57   0.0000       0.551629        15.0106 
  58   0.0000       0.572651        15.5826 
  59   0.0000       0.579476        15.7684 
  60   0.0000       0.594060        16.1652 
  61   0.0000       0.599865        16.3231 
  62   0.0000       0.605327        16.4718 
  63   0.0000       0.614538        16.7224 
  64   0.0000       0.620713        16.8905 
  65   0.0000       0.625879        17.0310 
  66   0.0000       0.634100        17.2547 
  67   0.0000       0.646458        17.5910 
  68   0.0000       0.653573        17.7846 
  69   0.0000       0.655201        17.8289 
  70   0.0000       0.657813        17.9000 
  71   0.0000       0.666091        18.1253 
  72   0.0000       0.670076        18.2337 
  73   0.0000       0.691505        18.8168 
  74   0.0000       0.695445        18.9240 
  75   0.0000       0.697141        18.9702 
  76   0.0000       0.705407        19.1951 
  77   0.0000       0.719000        19.5650 
  78   0.0000       0.780372        21.2350 
  79   0.0000       0.786698        21.4071 
  80   0.0000       0.800047        21.7704 
  81   0.0000       0.819973        22.3126 
  82   0.0000       0.837082        22.7781 
  83   0.0000       0.854043        23.2397 
  84   0.0000       0.910507        24.7762 
  85   0.0000       0.926468        25.2105 
  86   0.0000       0.934488        25.4287 
  87   0.0000       0.950508        25.8646 
  88   0.0000       0.977359        26.5953 
  89   0.0000       0.984397        26.7868 
  90   0.0000       1.001718        27.2581 
  91   0.0000       1.026460        27.9314 
  92   0.0000       1.043629        28.3986 
  93   0.0000       1.074986        29.2519 
  94   0.0000       1.096465        29.8363 
  95   0.0000       1.108058        30.1518 
  96   0.0000       1.122493        30.5446 
  97   0.0000       1.126580        30.6558 
  98   0.0000       1.156192        31.4616 
  99   0.0000       1.180258        32.1164 
 100   0.0000       1.186747        32.2930 
 101   0.0000       1.189804        32.3762 
 102   0.0000       1.207440        32.8561 
 103   0.0000       1.208078        32.8735 
 104   0.0000       1.226467        33.3739 
 105   0.0000       1.249807        34.0090 
 106   0.0000       1.261364        34.3235 
 107   0.0000       1.268060        34.5057 
 108   0.0000       1.280131        34.8341 
 109   0.0000       1.296933        35.2914 
 110   0.0000       1.301271        35.4094 
 111   0.0000       1.321854        35.9695 
 112   0.0000       1.324477        36.0409 
 113   0.0000       1.329829        36.1865 
 114   0.0000       1.341272        36.4979 
 115   0.0000       1.364734        37.1363 
 116   0.0000       1.369128        37.2559 
 117   0.0000       1.372563        37.3494 
 118   0.0000       1.386793        37.7366 
 119   0.0000       1.395225        37.9660 
 120   0.0000       1.433923        39.0190 
 121   0.0000       1.435270        39.0557 
 122   0.0000       1.455544        39.6074 
 123   0.0000       1.465332        39.8737 
 124   0.0000       1.472613        40.0718 
 125   0.0000       1.477023        40.1918 
 126   0.0000       1.496714        40.7277 
 127   0.0000       1.502797        40.8932 
 128   0.0000       1.504137        40.9296 
 129   0.0000       1.540378        41.9158 
 130   0.0000       1.542950        41.9858 
 131   0.0000       1.560058        42.4513 
 132   0.0000       1.566369        42.6231 
 133   0.0000       1.568332        42.6765 
 134   0.0000       1.576354        42.8948 
 135   0.0000       1.587412        43.1957 
 136   0.0000       1.615608        43.9629 
 137   0.0000       1.622052        44.1383 
 138   0.0000       1.626066        44.2475 
 139   0.0000       1.658335        45.1256 
 140   0.0000       1.686348        45.8879 
 141   0.0000       1.704984        46.3950 
 142   0.0000       1.707539        46.4645 
 143   0.0000       1.715618        46.6843 
 144   0.0000       1.716186        46.6998 
 145   0.0000       1.765291        48.0360 
 146   0.0000       1.769298        48.1450 
 147   0.0000       1.780710        48.4556 
 148   0.0000       1.792700        48.7818 
 149   0.0000       1.814389        49.3720 
 150   0.0000       1.840774        50.0900 
 151   0.0000       1.868770        50.8518 
 152   0.0000       1.877940        51.1013 
 153   0.0000       1.900451        51.7139 
 154   0.0000       1.913977        52.0820 
 155   0.0000       1.930916        52.5429 
 156   0.0000       1.997908        54.3658 
 157   0.0000       2.044839        55.6429 
 158   0.0000       2.135584        58.1122 
 159   0.0000       2.159360        58.7592 
 160   0.0000       2.233048        60.7643 
 161   0.0000       2.262836        61.5749 
 162   0.0000       2.314578        62.9829 
 163   0.0000       2.550264        69.3962 
 164   0.0000       2.587097        70.3985 
 165   0.0000       2.626017        71.4576 
 166   0.0000       2.642752        71.9129 
 167   0.0000       2.676160        72.8220 
 168   0.0000       2.679265        72.9065 
 169   0.0000       2.714969        73.8781 
 170   0.0000       2.753687        74.9316 
 171   0.0000       2.769484        75.3615 
 172   0.0000       2.801185        76.2241 
 173   0.0000       2.811538        76.5058 
 174   0.0000       2.816992        76.6542 
 175   0.0000       2.851189        77.5848 
 176   0.0000       2.863849        77.9293 
 177   0.0000       2.869488        78.0827 
 178   0.0000       2.887493        78.5727 
 179   0.0000       2.919515        79.4441 
 180   0.0000       2.921592        79.5006 
 181   0.0000       2.939090        79.9767 
 182   0.0000       2.939197        79.9796 
 183   0.0000       2.954458        80.3949 
 184   0.0000       2.976854        81.0043 
 185   0.0000       3.000019        81.6347 
 186   0.0000       3.013469        82.0007 
 187   0.0000       3.028269        82.4034 
 188   0.0000       3.032356        82.5146 
 189   0.0000       3.051046        83.0232 
 190   0.0000       3.051622        83.0389 
 191   0.0000       3.061359        83.3038 
 192   0.0000       3.080505        83.8248 
 193   0.0000       3.089341        84.0653 
 194   0.0000       3.119282        84.8800 
 195   0.0000       3.128220        85.1232 
 196   0.0000       3.166884        86.1753 
 197   0.0000       3.195647        86.9580 
 198   0.0000       3.212604        87.4194 
 199   0.0000       3.215538        87.4992 
 200   0.0000       3.220457        87.6331 
 201   0.0000       3.244130        88.2773 
 202   0.0000       3.254734        88.5658 
 203   0.0000       3.259525        88.6962 
 204   0.0000       3.278541        89.2136 
 205   0.0000       3.306279        89.9684 
 206   0.0000       3.318635        90.3046 
 207   0.0000       3.326309        90.5135 
 208   0.0000       3.331350        90.6506 
 209   0.0000       3.346994        91.0763 
 210   0.0000       3.354548        91.2819 
 211   0.0000       3.363456        91.5243 
 212   0.0000       3.398285        92.4720 
 213   0.0000       3.401306        92.5542 
 214   0.0000       3.427223        93.2595 
 215   0.0000       3.428433        93.2924 
 216   0.0000       3.444234        93.7224 
 217   0.0000       3.445480        93.7563 
 218   0.0000       3.465825        94.3099 
 219   0.0000       3.470800        94.4453 
 220   0.0000       3.480148        94.6997 
 221   0.0000       3.488077        94.9154 
 222   0.0000       3.504687        95.3674 
 223   0.0000       3.510594        95.5281 
 224   0.0000       3.528523        96.0160 
 225   0.0000       3.529980        96.0556 
 226   0.0000       3.538871        96.2976 
 227   0.0000       3.547148        96.5228 
 228   0.0000       3.570996        97.1717 
 229   0.0000       3.596267        97.8594 
 230   0.0000       3.599912        97.9586 
 231   0.0000       3.618669        98.4690 
 232   0.0000       3.645156        99.1897 
 233   0.0000       3.653081        99.4054 
 234   0.0000       3.663023        99.6759 
 235   0.0000       3.673918        99.9724 
 236   0.0000       3.706026       100.8461 
 237   0.0000       3.717194       101.1500 
 238   0.0000       3.725048       101.3637 
 239   0.0000       3.742371       101.8351 
 240   0.0000       3.746895       101.9582 
 241   0.0000       3.767011       102.5056 
 242   0.0000       3.773240       102.6751 
 243   0.0000       3.800074       103.4053 
 244   0.0000       3.802790       103.4792 
 245   0.0000       3.812663       103.7478 
 246   0.0000       3.814319       103.7929 
 247   0.0000       3.829992       104.2194 
 248   0.0000       3.880309       105.5886 
 249   0.0000       3.903235       106.2124 
 250   0.0000       3.920475       106.6816 
 251   0.0000       3.936079       107.1062 
 252   0.0000       3.937731       107.1511 
 253   0.0000       3.947627       107.4204 
 254   0.0000       3.950118       107.4882 
 255   0.0000       3.973895       108.1352 
 256   0.0000       3.990615       108.5902 
 257   0.0000       4.004953       108.9803 
 258   0.0000       4.007936       109.0615 
 259   0.0000       4.032442       109.7283 
 260   0.0000       4.041096       109.9638 
 261   0.0000       4.072605       110.8212 
 262   0.0000       4.073157       110.8362 
 263   0.0000       4.094757       111.4240 
 264   0.0000       4.095881       111.4546 
 265   0.0000       4.100926       111.5919 
 266   0.0000       4.121971       112.1645 
 267   0.0000       4.132346       112.4469 
 268   0.0000       4.142483       112.7227 
 269   0.0000       4.158041       113.1460 
 270   0.0000       4.170675       113.4898 
 271   0.0000       4.182633       113.8152 
 272   0.0000       4.192035       114.0711 
 273   0.0000       4.241297       115.4115 
 274   0.0000       4.246774       115.5606 
 275   0.0000       4.264743       116.0495 
 276   0.0000       4.267977       116.1375 
 277   0.0000       4.271308       116.2282 
 278   0.0000       4.296280       116.9077 
 279   0.0000       4.302102       117.0661 
 280   0.0000       4.324018       117.6625 
 281   0.0000       4.330410       117.8364 
 282   0.0000       4.341368       118.1346 
 283   0.0000       4.346020       118.2612 
 284   0.0000       4.358457       118.5996 
 285   0.0000       4.367372       118.8422 
 286   0.0000       4.408619       119.9646 
 287   0.0000       4.419933       120.2725 
 288   0.0000       4.435095       120.6851 
 289   0.0000       4.439923       120.8164 
 290   0.0000       4.454600       121.2158 
 291   0.0000       4.461634       121.4072 
 292   0.0000       4.482056       121.9629 
 293   0.0000       4.490888       122.2033 
 294   0.0000       4.513739       122.8251 
 295   0.0000       4.530148       123.2716 
 296   0.0000       4.536061       123.4325 
 297   0.0000       4.543273       123.6288 
 298   0.0000       4.555466       123.9605 
 299   0.0000       4.564021       124.1933 
 300   0.0000       4.576110       124.5223 
 301   0.0000       4.585182       124.7691 
 302   0.0000       4.598359       125.1277 
 303   0.0000       4.642615       126.3320 
 304   0.0000       4.667957       127.0216 
 305   0.0000       4.680096       127.3519 
 306   0.0000       4.681359       127.3862 
 307   0.0000       4.691533       127.6631 
 308   0.0000       4.714463       128.2871 
 309   0.0000       4.738215       128.9334 
 310   0.0000       4.752791       129.3300 
 311   0.0000       4.770568       129.8138 
 312   0.0000       4.772764       129.8735 
 313   0.0000       4.788581       130.3039 
 314   0.0000       4.790344       130.3519 
 315   0.0000       4.814346       131.0050 
 316   0.0000       4.823363       131.2504 
 317   0.0000       4.890009       133.0639 
 318   0.0000       4.934627       134.2780 
 319   0.0000       4.940135       134.4279 
 320   0.0000       4.973753       135.3427 
 321   0.0000       4.999213       136.0355 
 322   0.0000       5.038218       137.0969 
 323   0.0000       5.086604       138.4135 
 324   0.0000       5.109741       139.0431 
 325   0.0000       5.123765       139.4247 
 326   0.0000       5.151116       140.1690 
 327   0.0000       5.175221       140.8249 
 328   0.0000       5.196352       141.3999 
 329   0.0000       5.203169       141.5854 
 330   0.0000       5.213930       141.8783 
 331   0.0000       5.228666       142.2792 
 332   0.0000       5.262272       143.1937 
 333   0.0000       5.277147       143.5985 
 334   0.0000       5.290301       143.9564 
 335   0.0000       5.312023       144.5475 
 336   0.0000       5.322789       144.8405 
 337   0.0000       5.323272       144.8536 
 338   0.0000       5.380241       146.4038 
 339   0.0000       5.385244       146.5399 
 340   0.0000       5.417960       147.4302 
 341   0.0000       5.421149       147.5170 
 342   0.0000       5.421281       147.5206 
 343   0.0000       5.426949       147.6748 
 344   0.0000       5.483668       149.2182 
 345   0.0000       5.484643       149.2447 
 346   0.0000       5.532198       150.5388 
 347   0.0000       5.559528       151.2824 
 348   0.0000       5.560848       151.3184 
 349   0.0000       5.581607       151.8833 
 350   0.0000       5.591965       152.1651 
 351   0.0000       5.609341       152.6379 
 352   0.0000       5.627380       153.1288 
 353   0.0000       5.643181       153.5587 
 354   0.0000       5.681201       154.5933 
 355   0.0000       5.705635       155.2582 
 356   0.0000       5.743954       156.3009 
 357   0.0000       5.753188       156.5522 
 358   0.0000       5.767874       156.9518 
 359   0.0000       5.784634       157.4079 
 360   0.0000       5.803062       157.9093 
 361   0.0000       5.836373       158.8158 
 362   0.0000       5.850607       159.2031 
 363   0.0000       5.887861       160.2168 
 364   0.0000       5.893072       160.3586 
 365   0.0000       5.897036       160.4665 
 366   0.0000       5.940289       161.6435 
 367   0.0000       5.949793       161.9021 
 368   0.0000       5.976008       162.6154 
 369   0.0000       6.034288       164.2013 
 370   0.0000       6.069825       165.1683 
 371   0.0000       6.092458       165.7842 
 372   0.0000       6.145261       167.2211 
 373   0.0000       6.230122       169.5302 
 374   0.0000       6.298824       171.3997 
 375   0.0000       6.325105       172.1149 
 376   0.0000       6.356202       172.9611 
 377   0.0000       6.363056       173.1475 
 378   0.0000       6.375161       173.4769 
 379   0.0000       6.420581       174.7129 
 380   0.0000       6.424545       174.8208 
 381   0.0000       6.447820       175.4541 
 382   0.0000       6.463614       175.8839 
 383   0.0000       6.503838       176.9784 
 384   0.0000       6.560594       178.5228 
 385   0.0000      10.976275       298.6796 
 386   0.0000      12.777437       347.6917 
 387   0.0000      13.174046       358.4840 
 388   0.0000      13.309865       362.1798 
 389   0.0000      13.509102       367.6014 
 390   0.0000      13.598143       370.0243 
 391   0.0000      14.200501       386.4153 

                    ********************************
                    * MULLIKEN POPULATION ANALYSIS *
                    ********************************

-----------------------
MULLIKEN ATOMIC CHARGES
-----------------------
   0 C :   -0.191304
   1 C :   -0.208726
   2 C :   -0.097588
   3 N :   -0.237349
   4 C :   -0.097592
   5 C :   -0.208724
   6 C :   -0.189336
   7 H :    0.101613
   8 H :    0.091994
   9 H :    0.091996
  10 H :    0.101617
  11 H :    0.092207
  12 H :    0.108554
  13 H :    0.108558
  14 H :    0.092200
  15 H :    0.086406
  16 H :    0.108222
  17 H :    0.095900
  18 H :    0.095897
  19 H :    0.055456
Sum of atomic charges:    0.0000000

--------------------------------
MULLIKEN REDUCED ORBITAL CHARGES
--------------------------------
  0 C s       :     3.214993  s :     3.214993
      pz      :     1.010978  p :     2.853784
      px      :     0.959429
      py      :     0.883377
      dz2     :     0.020817  d :     0.115828
      dxz     :     0.032153
      dyz     :     0.013927
      dx2y2   :     0.025175
      dxy     :     0.023756
      f0      :     0.000825  f :     0.006699
      f+1     :     0.001230
      f-1     :     0.000671
      f+2     :     0.000313
      f-2     :     0.000813
      f+3     :     0.001514
      f-3     :     0.001333
  1 C s       :     3.214498  s :     3.214498
      pz      :     0.978234  p :     2.878796
      px      :     0.936457
      py      :     0.964105
      dz2     :     0.030031  d :     0.108891
      dxz     :     0.021998
      dyz     :     0.009602
      dx2y2   :     0.019456
      dxy     :     0.027803
      f0      :     0.001047  f :     0.006542
      f+1     :     0.001269
      f-1     :     0.000397
      f+2     :     0.000675
      f-2     :     0.000753
      f+3     :     0.001412
      f-3     :     0.000988
  2 C s       :     3.193000  s :     3.193000
      pz      :     0.977119  p :     2.750103
      px      :     0.897526
      py      :     0.875458
      dz2     :     0.032519  d :     0.145276
      dxz     :     0.026024
      dyz     :     0.018015
      dx2y2   :     0.026144
      dxy     :     0.042574
      f0      :     0.001330  f :     0.009209
      f+1     :     0.001526
      f-1     :     0.000652
      f+2     :     0.000820
      f-2     :     0.001337
      f+3     :     0.001760
      f-3     :     0.001784
  3 N s       :     3.434161  s :     3.434161
      pz      :     1.411291  p :     3.723441
      px      :     1.281105
      py      :     1.031044
      dz2     :     0.017970  d :     0.075293
      dxz     :     0.010176
      dyz     :     0.009421
      dx2y2   :     0.012037
      dxy     :     0.025689
      f0      :     0.000477  f :     0.004455
      f+1     :     0.000948
      f-1     :     0.000608
      f+2     :     0.000332
      f-2     :     0.000646
      f+3     :     0.000810
      f-3     :     0.000635
  4 C s       :     3.193002  s :     3.193002
      pz      :     0.977123  p :     2.750107
      px      :     0.897521
      py      :     0.875462
      dz2     :     0.032519  d :     0.145274
      dxz     :     0.026024
      dyz     :     0.018014
      dx2y2   :     0.026144
      dxy     :     0.042573
      f0      :     0.001330  f :     0.009209
      f+1     :     0.001526
      f-1     :     0.000652
      f+2     :     0.000820
      f-2     :     0.001337
      f+3     :     0.001760
      f-3     :     0.001784
  5 C s       :     3.214497  s :     3.214497
      pz      :     0.978230  p :     2.878793
      px      :     0.936460
      py      :     0.964103
      dz2     :     0.030032  d :     0.108892
      dxz     :     0.021998
      dyz     :     0.009602
      dx2y2   :     0.019458
      dxy     :     0.027803
      f0      :     0.001047  f :     0.006542
      f+1     :     0.001269
      f-1     :     0.000397
      f+2     :     0.000675
      f-2     :     0.000753
      f+3     :     0.001412
      f-3     :     0.000988
  6 C s       :     3.238388  s :     3.238388
      pz      :     0.856161  p :     2.835042
      px      :     0.936064
      py      :     1.042818
      dz2     :     0.038249  d :     0.108420
      dxz     :     0.024277
      dyz     :     0.009976
      dx2y2   :     0.009740
      dxy     :     0.026177
      f0      :     0.001726  f :     0.007485
      f+1     :     0.002498
      f-1     :     0.000419
      f+2     :     0.000889
      f-2     :     0.000732
      f+3     :     0.000999
      f-3     :     0.000223
  7 H s       :     0.868805  s :     0.868805
      pz      :     0.008128  p :     0.027173
      px      :     0.008545
      py      :     0.010500
      dz2     :     0.000265  d :     0.002409
      dxz     :     0.000311
      dyz     :     0.000390
      dx2y2   :     0.000860
      dxy     :     0.000584
  8 H s       :     0.879997  s :     0.879997
      pz      :     0.012416  p :     0.025584
      px      :     0.007554
      py      :     0.005615
      dz2     :     0.000825  d :     0.002425
      dxz     :     0.000828
      dyz     :     0.000592
      dx2y2   :     0.000051
      dxy     :     0.000129
  9 H s       :     0.879995  s :     0.879995
      pz      :     0.012416  p :     0.025584
      px      :     0.007554
      py      :     0.005615
      dz2     :     0.000825  d :     0.002425
      dxz     :     0.000828
      dyz     :     0.000592
      dx2y2   :     0.000051
      dxy     :     0.000129
 10 H s       :     0.868801  s :     0.868801
      pz      :     0.008129  p :     0.027173
      px      :     0.008545
      py      :     0.010500
      dz2     :     0.000265  d :     0.002409
      dxz     :     0.000311
      dyz     :     0.000390
      dx2y2   :     0.000860
      dxy     :     0.000584
 11 H s       :     0.878101  s :     0.878101
      pz      :     0.010909  p :     0.027269
      px      :     0.008154
      py      :     0.008206
      dz2     :     0.000773  d :     0.002423
      dxz     :     0.000782
      dyz     :     0.000671
      dx2y2   :     0.000043
      dxy     :     0.000154
 12 H s       :     0.860409  s :     0.860409
      pz      :     0.007365  p :     0.028586
      px      :     0.009699
      py      :     0.011522
      dz2     :     0.000284  d :     0.002450
      dxz     :     0.000239
      dyz     :     0.000419
      dx2y2   :     0.000884
      dxy     :     0.000624
 13 H s       :     0.860406  s :     0.860406
      pz      :     0.007365  p :     0.028586
      px      :     0.009699
      py      :     0.011522
      dz2     :     0.000284  d :     0.002450
      dxz     :     0.000239
      dyz     :     0.000419
      dx2y2   :     0.000884
      dxy     :     0.000624
 14 H s       :     0.878109  s :     0.878109
      pz      :     0.010909  p :     0.027268
      px      :     0.008153
      py      :     0.008206
      dz2     :     0.000773  d :     0.002423
      dxz     :     0.000782
      dyz     :     0.000671
      dx2y2   :     0.000043
      dxy     :     0.000154
 15 H s       :     0.883439  s :     0.883439
      pz      :     0.009397  p :     0.027745
      px      :     0.009469
      py      :     0.008879
      dz2     :     0.000601  d :     0.002410
      dxz     :     0.000700
      dyz     :     0.000727
      dx2y2   :     0.000099
      dxy     :     0.000284
 16 H s       :     0.861073  s :     0.861073
      pz      :     0.007185  p :     0.028295
      px      :     0.012182
      py      :     0.008929
      dz2     :     0.000538  d :     0.002410
      dxz     :     0.000508
      dyz     :     0.000318
      dx2y2   :     0.000339
      dxy     :     0.000707
 17 H s       :     0.877357  s :     0.877357
      pz      :     0.006297  p :     0.024556
      px      :     0.008728
      py      :     0.009531
      dz2     :     0.000266  d :     0.002187
      dxz     :     0.000307
      dyz     :     0.000382
      dx2y2   :     0.000593
      dxy     :     0.000639
 18 H s       :     0.877360  s :     0.877360
      pz      :     0.006297  p :     0.024556
      px      :     0.008728
      py      :     0.009531
      dz2     :     0.000266  d :     0.002187
      dxz     :     0.000307
      dyz     :     0.000382
      dx2y2   :     0.000593
      dxy     :     0.000639
 19 H s       :     0.920095  s :     0.920095
      pz      :     0.008824  p :     0.022382
      px      :     0.006464
      py      :     0.007094
      dz2     :     0.000837  d :     0.002067
      dxz     :     0.000582
      dyz     :     0.000398
      dx2y2   :     0.000079
      dxy     :     0.000172


                     *******************************
                     * LOEWDIN POPULATION ANALYSIS *
                     *******************************

----------------------
LOEWDIN ATOMIC CHARGES
----------------------
   0 C :    0.054361
   1 C :    0.051155
   2 C :   -0.015752
   3 N :    0.240293
   4 C :   -0.015736
   5 C :    0.051147
   6 C :    0.032135
   7 H :   -0.028504
   8 H :   -0.027201
   9 H :   -0.027203
  10 H :   -0.028508
  11 H :   -0.031162
  12 H :   -0.027261
  13 H :   -0.027263
  14 H :   -0.031159
  15 H :   -0.027100
  16 H :   -0.028862
  17 H :   -0.031208
  18 H :   -0.031205
  19 H :   -0.050969

-------------------------------
LOEWDIN REDUCED ORBITAL CHARGES
-------------------------------
  0 C s       :     2.661075  s :     2.661075
      pz      :     0.970879  p :     2.821737
      px      :     0.937967
      py      :     0.912891
      dz2     :     0.071579  d :     0.423089
      dxz     :     0.106194
      dyz     :     0.049965
      dx2y2   :     0.096868
      dxy     :     0.098483
      f0      :     0.004480  f :     0.039738
      f+1     :     0.004439
      f-1     :     0.004830
      f+2     :     0.004689
      f-2     :     0.005609
      f+3     :     0.006381
      f-3     :     0.009310
  1 C s       :     2.664187  s :     2.664187
      pz      :     0.958968  p :     2.830593
      px      :     0.934338
      py      :     0.937287
      dz2     :     0.109415  d :     0.414910
      dxz     :     0.083492
      dyz     :     0.038012
      dx2y2   :     0.074887
      dxy     :     0.109104
      f0      :     0.005391  f :     0.039155
      f+1     :     0.006049
      f-1     :     0.003644
      f+2     :     0.005403
      f-2     :     0.005921
      f+3     :     0.006326
      f-3     :     0.006421
  2 C s       :     2.669007  s :     2.669007
      pz      :     0.964849  p :     2.772802
      px      :     0.924258
      py      :     0.883696
      dz2     :     0.119970  d :     0.516967
      dxz     :     0.101406
      dyz     :     0.054972
      dx2y2   :     0.088868
      dxy     :     0.151752
      f0      :     0.007286  f :     0.056977
      f+1     :     0.007207
      f-1     :     0.005783
      f+2     :     0.006761
      f-2     :     0.008821
      f+3     :     0.009888
      f-3     :     0.011230
  3 N s       :     2.908677  s :     2.908677
      pz      :     1.307594  p :     3.568179
      px      :     1.210100
      py      :     1.050485
      dz2     :     0.048938  d :     0.265099
      dxz     :     0.046544
      dyz     :     0.040604
      dx2y2   :     0.052794
      dxy     :     0.076220
      f0      :     0.002657  f :     0.017752
      f+1     :     0.001558
      f-1     :     0.002366
      f+2     :     0.001243
      f-2     :     0.003366
      f+3     :     0.002364
      f-3     :     0.004198
  4 C s       :     2.669007  s :     2.669007
      pz      :     0.964852  p :     2.772799
      px      :     0.924254
      py      :     0.883693
      dz2     :     0.119968  d :     0.516955
      dxz     :     0.101404
      dyz     :     0.054968
      dx2y2   :     0.088867
      dxy     :     0.151748
      f0      :     0.007286  f :     0.056975
      f+1     :     0.007207
      f-1     :     0.005782
      f+2     :     0.006761
      f-2     :     0.008821
      f+3     :     0.009888
      f-3     :     0.011230
  5 C s       :     2.664183  s :     2.664183
      pz      :     0.958963  p :     2.830593
      px      :     0.934339
      py      :     0.937292
      dz2     :     0.109418  d :     0.414920
      dxz     :     0.083491
      dyz     :     0.038014
      dx2y2   :     0.074892
      dxy     :     0.109106
      f0      :     0.005392  f :     0.039156
      f+1     :     0.006049
      f-1     :     0.003645
      f+2     :     0.005403
      f-2     :     0.005921
      f+3     :     0.006326
      f-3     :     0.006421
  6 C s       :     2.672347  s :     2.672347
      pz      :     0.903914  p :     2.830091
      px      :     0.926682
      py      :     0.999496
      dz2     :     0.164617  d :     0.418252
      dxz     :     0.098950
      dyz     :     0.027271
      dx2y2   :     0.027568
      dxy     :     0.099846
      f0      :     0.009468  f :     0.047175
      f+1     :     0.010629
      f-1     :     0.006088
      f+2     :     0.008528
      f-2     :     0.004652
      f+3     :     0.005900
      f-3     :     0.001910
  7 H s       :     0.853703  s :     0.853703
      pz      :     0.039911  p :     0.146919
      px      :     0.048962
      py      :     0.058046
      dz2     :     0.003018  d :     0.027882
      dxz     :     0.003906
      dyz     :     0.005275
      dx2y2   :     0.008115
      dxy     :     0.007567
  8 H s       :     0.853663  s :     0.853663
      pz      :     0.073268  p :     0.145840
      px      :     0.040067
      py      :     0.032506
      dz2     :     0.009755  d :     0.027697
      dxz     :     0.008618
      dyz     :     0.007209
      dx2y2   :     0.000626
      dxy     :     0.001489
  9 H s       :     0.853663  s :     0.853663
      pz      :     0.073269  p :     0.145842
      px      :     0.040067
      py      :     0.032506
      dz2     :     0.009755  d :     0.027697
      dxz     :     0.008618
      dyz     :     0.007210
      dx2y2   :     0.000626
      dxy     :     0.001489
 10 H s       :     0.853703  s :     0.853703
      pz      :     0.039913  p :     0.146922
      px      :     0.048962
      py      :     0.058047
      dz2     :     0.003019  d :     0.027883
      dxz     :     0.003906
      dyz     :     0.005276
      dx2y2   :     0.008115
      dxy     :     0.007567
 11 H s       :     0.848828  s :     0.848828
      pz      :     0.071456  p :     0.154267
      px      :     0.043843
      py      :     0.038968
      dz2     :     0.009453  d :     0.028067
      dxz     :     0.008640
      dyz     :     0.007968
      dx2y2   :     0.000565
      dxy     :     0.001440
 12 H s       :     0.845998  s :     0.845998
      pz      :     0.040576  p :     0.153301
      px      :     0.050099
      py      :     0.062626
      dz2     :     0.003276  d :     0.027962
      dxz     :     0.003269
      dyz     :     0.005612
      dx2y2   :     0.008377
      dxy     :     0.007428
 13 H s       :     0.845997  s :     0.845997
      pz      :     0.040577  p :     0.153303
      px      :     0.050100
      py      :     0.062626
      dz2     :     0.003276  d :     0.027962
      dxz     :     0.003269
      dyz     :     0.005613
      dx2y2   :     0.008377
      dxy     :     0.007428
 14 H s       :     0.848827  s :     0.848827
      pz      :     0.071456  p :     0.154266
      px      :     0.043842
      py      :     0.038968
      dz2     :     0.009453  d :     0.028067
      dxz     :     0.008640
      dyz     :     0.007968
      dx2y2   :     0.000565
      dxy     :     0.001440
 15 H s       :     0.847448  s :     0.847448
      pz      :     0.068730  p :     0.151673
      px      :     0.043863
      py      :     0.039081
      dz2     :     0.008942  d :     0.027978
      dxz     :     0.008675
      dyz     :     0.007121
      dx2y2   :     0.001099
      dxy     :     0.002141
 16 H s       :     0.847831  s :     0.847831
      pz      :     0.053471  p :     0.153117
      px      :     0.059621
      py      :     0.040025
      dz2     :     0.007609  d :     0.027913
      dxz     :     0.006987
      dyz     :     0.003263
      dx2y2   :     0.004194
      dxy     :     0.005861
 17 H s       :     0.858066  s :     0.858066
      pz      :     0.033395  p :     0.145732
      px      :     0.049871
      py      :     0.062465
      dz2     :     0.002590  d :     0.027410
      dxz     :     0.003545
      dyz     :     0.004956
      dx2y2   :     0.008629
      dxy     :     0.007690
 18 H s       :     0.858066  s :     0.858066
      pz      :     0.033394  p :     0.145729
      px      :     0.049869
      py      :     0.062466
      dz2     :     0.002590  d :     0.027410
      dxz     :     0.003545
      dyz     :     0.004956
      dx2y2   :     0.008629
      dxy     :     0.007690
 19 H s       :     0.875683  s :     0.875683
      pz      :     0.066036  p :     0.148935
      px      :     0.042876
      py      :     0.040022
      dz2     :     0.008668  d :     0.026351
      dxz     :     0.007047
      dyz     :     0.006595
      dx2y2   :     0.001237
      dxy     :     0.002804


                      *****************************
                      * MAYER POPULATION ANALYSIS *
                      *****************************

  NA   - Mulliken gross atomic population
  ZA   - Total nuclear charge
  QA   - Mulliken gross atomic charge
  VA   - Mayer's total valence
  BVA  - Mayer's bonded valence
  FA   - Mayer's free valence

  ATOM       NA         ZA         QA         VA         BVA        FA
  0 C      6.1913     6.0000    -0.1913     3.8598     3.8598     0.0000
  1 C      6.2087     6.0000    -0.2087     3.8112     3.8112     0.0000
  2 C      6.0976     6.0000    -0.0976     3.9412     3.9412     0.0000
  3 N      7.2373     7.0000    -0.2373     2.9404     2.9404     0.0000
  4 C      6.0976     6.0000    -0.0976     3.9412     3.9412     0.0000
  5 C      6.2087     6.0000    -0.2087     3.8111     3.8111     0.0000
  6 C      6.1893     6.0000    -0.1893     3.9317     3.9317    -0.0000
  7 H      0.8984     1.0000     0.1016     0.9820     0.9820    -0.0000
  8 H      0.9080     1.0000     0.0920     0.9804     0.9804     0.0000
  9 H      0.9080     1.0000     0.0920     0.9804     0.9804    -0.0000
 10 H      0.8984     1.0000     0.1016     0.9820     0.9820     0.0000
 11 H      0.9078     1.0000     0.0922     0.9799     0.9799     0.0000
 12 H      0.8914     1.0000     0.1086     0.9811     0.9811    -0.0000
 13 H      0.8914     1.0000     0.1086     0.9811     0.9811     0.0000
 14 H      0.9078     1.0000     0.0922     0.9799     0.9799    -0.0000
 15 H      0.9136     1.0000     0.0864     0.9856     0.9856     0.0000
 16 H      0.8918     1.0000     0.1082     0.9786     0.9786     0.0000
 17 H      0.9041     1.0000     0.0959     0.9757     0.9757     0.0000
 18 H      0.9041     1.0000     0.0959     0.9757     0.9757    -0.0000
 19 H      0.9445     1.0000     0.0555     0.9585     0.9585     0.0000

  Mayer bond orders larger than 0.1
B(  0-C ,  1-C ) :   0.9432 B(  0-C ,  5-C ) :   0.9432 B(  0-C , 15-H ) :   0.9863 
B(  0-C , 16-H ) :   0.9952 B(  1-C ,  2-C ) :   0.9354 B(  1-C , 11-H ) :   0.9807 
B(  1-C , 12-H ) :   0.9890 B(  2-C ,  3-N ) :   0.9975 B(  2-C ,  7-H ) :   0.9964 
B(  2-C ,  8-H ) :   0.9928 B(  3-N ,  4-C ) :   0.9975 B(  3-N ,  6-C ) :   0.9901 
B(  4-C ,  5-C ) :   0.9354 B(  4-C ,  9-H ) :   0.9928 B(  4-C , 10-H ) :   0.9964 
B(  5-C , 13-H ) :   0.9890 B(  5-C , 14-H ) :   0.9807 B(  6-C , 17-H ) :   0.9849 
B(  6-C , 18-H ) :   0.9849 B(  6-C , 19-H ) :   0.9616 

-------
TIMINGS
-------

Total SCF time: 0 days 0 hours 0 min 21 sec 

Total time                  ....      21.464 sec
Sum of individual times     ....      21.137 sec  ( 98.5%)

Fock matrix formation       ....      20.224 sec  ( 94.2%)
Diagonalization             ....       0.141 sec  (  0.7%)
Density matrix formation    ....       0.023 sec  (  0.1%)
Population analysis         ....       0.063 sec  (  0.3%)
Initial guess               ....       0.320 sec  (  1.5%)
Orbital Transformation      ....       0.000 sec  (  0.0%)
Orbital Orthonormalization  ....       0.000 sec  (  0.0%)
DIIS solution               ....       0.000 sec  (  0.0%)
SOSCF solution              ....       0.171 sec  (  0.8%)


           ************************************************************
           *        Program running with 8 parallel MPI-processes     *
           *              working on a common directory               *
           ************************************************************


------------------------------------------------------------------------------- 
                              ORCA-MATRIX DRIVEN CI                            
------------------------------------------------------------------------------- 


Wavefunction type
-----------------
Correlation treatment                      ...      CCSD     
Single excitations                         ... ON
Orbital optimization                       ... OFF
Calculation of Z vector                    ... OFF
Calculation of Brueckner orbitals          ... OFF
Perturbative triple excitations            ... ON
Calculation of F12 correction              ... OFF
Frozen core treatment                      ... chemical core (14 el)
Reference Wavefunction                     ... RHF
  Internal Orbitals:     7 ...   27 ( 21 MO's/ 42 electrons)
  Virtual  Orbitals:    28 ...  391 (364 MO's              )
Number of AO's                             ...    392
Number of electrons                        ...     56
Number of correlated electrons             ...     42

Algorithmic settings
--------------------
Integral transformation                    ... All integrals via the RI transformation
K(C) Formation                             ... RI-DLPNO
   PNO-Integral Storage                    ... ON DISK
   PNO occupation number cut-off           ... 1.000e-07
   Singles PNO occupation number cut-off   ... 3.000e-09
   PNO Mulliken prescreening cut-off       ... 1.000e-03
   Domain cut-off (Mulliken population)    ... 1.000e-03
   PNO Normalization                       ...    1
Maximum number of iterations               ...        50
Convergence tolerance (max. residuum)      ... 1.000e-05
Level shift for amplitude update           ... 2.000e-01
Maximum number of DIIS vectors             ...         7
DIIS turned on at iteration                ...         0
Damping before turning on DIIS             ...     0.500
Damping after turning on DIIS              ...     0.000
Pair specific amplitude update             ... OFF
Natural orbital iterations                 ... OFF
Perturbative natural orbital generation    ... OFF
Printlevel                                 ... 2

Singles Fock matrix elements calculated using PNOs.

Memory handling:
----------------
Maximum memory for working arrays          ...   8000 MB
Data storage in matrix containers          ... UNCOMPRESSED
Data type for integral storage             ... DOUBLE
In-Core Storage of quantities:
   Amplitudes+Sigma Vector      ... NO
   J+K operators                ... NO
   DIIS vectors                 ... NO
   3-external integrals         ... NO
   4-external integrals         ... NO

Localization treatment:
-----------------------
Localization option                        ...    6
Localization threshhold                    ... -1.0e+00
Using relative localization threshhold     ... 1.0e-08
Neglect threshold for strong pairs         ... 1.000e-05 Eh
Prescreening threshold for very weak pairs ... 1.000e-07 Eh

Initializing the integral package          ... done
Localizing the valence orbitals
------------------------------------------------------------------------------
                           ORCA ORBITAL LOCALIZATION
------------------------------------------------------------------------------

Input orbitals are from                  ... N_Me_piperidine_ax.proc0.gbw
Output orbitals are to                   ... N_Me_piperidine_ax.proc0.loc
Max. number of iterations                ... 128
Localizations seeded randomly            ... off
Convergence tolerance                    ... 1.000e-06
Using relative localization threshhold   ... 1.000e-08
Treshold for strong local MOs            ... 9.500e-01
Treshold for bond MOs                    ... 8.500e-01
Operator                                 ... 0
Orbital range for localization           ... 7 to 27
Localization criterion                   ... FOSTER-BOYS (AUGMENTED HESSIAN)
Doing the dipole integrals     ... o.k.
Initial value of the localization sum :   194.696181
ITERATION   0 : L=  256.4135737169 DL=  6.17e+01 (AVERGE_DL)=    0.5421183892 
ITERATION   1 : L=  266.6080045124 DL=  1.02e+01 (AVERGE_DL)=    0.2203290915 
ITERATION   2 : L=  266.7586996412 DL=  1.51e-01 (AVERGE_DL)=    0.0267879796 
ITERATION   3 : L=  266.7592887564 DL=  5.89e-04 (AVERGE_DL)=    0.0016749062 
ITERATION   4 : L=  266.7592907052 DL=  1.95e-06 (AVERGE_DL)=    0.0000963312 
ITERATION   5 : L=  266.7592907077 DL=  2.54e-09 (AVERGE_DL)=    0.0000034791 
LOCALIZATION SUM CONVERGED

------------------------------------------------------
AUGMENTED HESSIAN OPTIMIZATION OF FOSTER-BOYS ORBITALS
------------------------------------------------------

Spin operator:           0
Orbital window:          7 to 27
Number of iterations:    128
Gradient tolerance:      1.000e-06
Number of pairs:         210
Davidson threshold:      2000
Diagonalization method:  LAPACK
Iter:    0   L: 266.7592907077   Grad. norm: 9.927050e-04
   *** Likely close to a maximum now. ***
       Augmented Hessian eigenvalues:  6.60e-09 -6.41e+00 -6.42e+00 -9.14e+00 ... 
Iter:    1   L: 266.7592907110   Grad. norm: 1.474870e-10
LOCALIZATION HAS CONVERGED.

Eigenvalues of the Hessian:
  0 -6.414e+00
  1 -6.417e+00
  2 -9.139e+00
  3 -1.289e+01
  4 -1.650e+01
  5 -1.673e+01
  6 -1.748e+01
  7 -1.789e+01
  8 -1.790e+01
  9 -1.804e+01
    ...


------------------------------------------------------------------------------- 
                    LOCALIZED MOLECULAR ORBITAL COMPOSITIONS                   
------------------------------------------------------------------------------- 

The Mulliken populations for each LMO on each atom are computed
The LMO`s will be ordered according to atom index and type
  (A) Strongly localized MO`s have populations of >=0.950 on one atom
  (B) Two center bond orbitals have populations of >=0.850 on two atoms
  (C) Other MO`s are considered to be `delocalized`

FOUND  -   1 strongly local MO`s
       -  20 two center bond MO`s
       -   0 significantly delocalized MO`s

Rather strongly localized orbitals:
MO   7:   3N  -   0.951861
Bond-like localized orbitals:
MO  27:  19H  -   0.502506  and   6C  -   0.535452
MO  26:  18H  -   0.472310  and   6C  -   0.558726
MO  25:  17H  -   0.472308  and   6C  -   0.558727
MO  24:  16H  -   0.463755  and   0C  -   0.570394
MO  23:  15H  -   0.475243  and   0C  -   0.553521
MO  22:  14H  -   0.473697  and   5C  -   0.551388
MO  21:  13H  -   0.462472  and   5C  -   0.566830
MO  20:  12H  -   0.462473  and   1C  -   0.566828
MO  19:  11H  -   0.473691  and   1C  -   0.551392
MO  18:  10H  -   0.465379  and   4C  -   0.571309
MO  17:   9H  -   0.472411  and   4C  -   0.565279
MO  16:   8H  -   0.472412  and   2C  -   0.565278
MO  15:   7H  -   0.465382  and   2C  -   0.571307
MO  14:   6C  -   0.434051  and   3N  -   0.584534
MO  13:   5C  -   0.543036  and   4C  -   0.500596
MO  12:   5C  -   0.515559  and   0C  -   0.515442
MO  11:   4C  -   0.420445  and   3N  -   0.596917
MO  10:   3N  -   0.596916  and   2C  -   0.420447
MO   9:   2C  -   0.500596  and   1C  -   0.543037
MO   8:   1C  -   0.515555  and   0C  -   0.515446
Localized MO's were stored in: N_Me_piperidine_ax.proc0.loc

Localizing the core orbitals
------------------------------------------------------------------------------
                           ORCA ORBITAL LOCALIZATION
------------------------------------------------------------------------------

Input orbitals are from                  ... N_Me_piperidine_ax.proc0.loc
Output orbitals are to                   ... N_Me_piperidine_ax.proc0.loc
Max. number of iterations                ... 128
Localizations seeded randomly            ... off
Convergence tolerance                    ... 1.000e-06
Using relative localization threshhold   ... 1.000e-08
Treshold for strong local MOs            ... 9.500e-01
Treshold for bond MOs                    ... 8.500e-01
Operator                                 ... 0
Orbital range for localization           ... 0 to 6
Localization criterion                   ... FOSTER-BOYS (AUGMENTED HESSIAN)
Doing the dipole integrals     ... o.k.
Initial value of the localization sum :    64.451797
ITERATION   0 : L=   64.4517982658 DL=  1.31e-06 (AVERGE_DL)=    0.0002496151 
ITERATION   1 : L=   64.4517982658 DL=  0.00e+00 (AVERGE_DL)=    0.0000000000 
LOCALIZATION SUM CONVERGED

------------------------------------------------------
AUGMENTED HESSIAN OPTIMIZATION OF FOSTER-BOYS ORBITALS
------------------------------------------------------

Spin operator:           0
Orbital window:          0 to 6
Number of iterations:    128
Gradient tolerance:      1.000e-06
Number of pairs:         21
Davidson threshold:      2000
Diagonalization method:  LAPACK
Iter:    0   L: 64.4517982658   Grad. norm: 1.314770e-04
   *** Likely close to a maximum now. ***
       Augmented Hessian eigenvalues:  8.41e-11 -3.04e+01 -3.08e+01 -3.08e+01 ... 
Iter:    1   L: 64.4517982658   Grad. norm: 2.049662e-16
LOCALIZATION HAS CONVERGED.

Eigenvalues of the Hessian:
  0 -3.042e+01
  1 -3.079e+01
  2 -3.079e+01
  3 -3.380e+01
  4 -3.380e+01
  5 -3.394e+01
  6 -3.394e+01
  7 -8.364e+01
  8 -8.608e+01
  9 -8.608e+01
    ...


------------------------------------------------------------------------------- 
                    LOCALIZED MOLECULAR ORBITAL COMPOSITIONS                   
------------------------------------------------------------------------------- 

The Mulliken populations for each LMO on each atom are computed
The LMO`s will be ordered according to atom index and type
  (A) Strongly localized MO`s have populations of >=0.950 on one atom
  (B) Two center bond orbitals have populations of >=0.850 on two atoms
  (C) Other MO`s are considered to be `delocalized`

FOUND  -   7 strongly local MO`s
       -   0 two center bond MO`s
       -   0 significantly delocalized MO`s

Rather strongly localized orbitals:
MO   6:   6C  -   1.001064
MO   5:   5C  -   1.001417
MO   4:   4C  -   1.001488
MO   3:   3N  -   0.999650
MO   2:   2C  -   1.001488
MO   1:   1C  -   1.001417
MO   0:   0C  -   1.001540
Localized MO's were stored in: N_Me_piperidine_ax.proc0.loc

Warning: internal orbitals are localized - no re-canonicalization of internal orbitals

--------------------------
CLOSED-SHELL FOCK OPERATOR
--------------------------

RI-JK section for the Fock operator:
  RHF full Fock operator         ... done
  RHF frozen core Fock operator  ... done
Time needed for Fock operator              ...            3.450 sec
Reference energy                           ...   -289.310009170

--------------
DLPNO SETTINGS (2015 fully linear scaling implementation)
--------------

TCutMKN:           1.000e-03
TCutPAO:           1.000e-03
TCutPNO:           1.000e-07
TCutPNOSingles:    3.000e-09
TCutEN:            9.700e-01
TCutPAOExt:        1.000e-01
TCutPairs:         1.000e-05
TCutPre:           1.000e-07
TCutOSV:           1.000e-06
TCutDOij:          1.000e-05
TCutDO:            5.000e-03
TCutC:             1.000e-04
TCutCPAO:          1.000e-03
TCutCMO:           1.000e-03
TScaleDOMP2PreScr: 2.000e+00
TScaleMKNMP2PreScr:1.000e+01
TScalePNOMP2PreScr:1.000e+00
PAO overlap thresh 1.000e-08
Using PNOs for Singles Fock computation
Use new domains
Use fully linear algorithm
TCutTNO:           1.000e-09
TCutMP2Pairs:      1.000e-06
TCutDOStrong:      2.000e-03
TCutMKNStrong:     1.000e-02
TCutMKNWeak:       1.000e-01
TCutDOWeak:        4.000e-03
NTCutTNO:          1

--------------------------
Calculating differential overlap integrals ... ok
--------------------------
ELECTRON PAIR PRESCREENING
--------------------------

Dipole-based pair screening          .... used

   TCutDOij = 1.000000e-05
   TCutPre  = 1.000000e-07
   .... Finished loop over pairs
[...]
   TCutDO    ...     2.0e-02
   TCutCMO   ...     1.0e-03
   TCutCPAO  ...     1.0e-03

--------------------------------
LOCAL RI TRANSFORMATION (IAVPAO)
--------------------------------

Orbital window:       7 to 27
Number of PAOs:     392
Basis functions:    392 (148 shells)
Aux. functions:     957 (291 shells)

Processing maps (0.0 sec)
Average map sizes:
   Aux shells -> MOs              21.0
   Aux shells -> PAOs            392.0
   MOs        -> AO shells       146.0
   PAOs       -> AO shells       148.0

Calculating integrals (12.5 sec, 60.116 MB)
Sorting integrals (0.1 sec, 60.105 MB)
Total time for the integral transformation: 12.6 sec
--------------------------------
INITIAL GUESS AND PNO GENERATION
--------------------------------

PNO truncation parameters                   .... 
    ScaleTCutPNO       =        1.000e-02
    PAOOverlapThresh   =        1.000e-08

    TCutPairs          =        1.000e-05
    TCutPNO            =        1.000e-07
    TCutPNOSingles     =        3.000e-09
    TCutMP2Pairs       =        1.000e-06
    TCutMKN            =        1.000e-03
    TCutDO             =        5.000e-03

Pair selection                          .... not used
Type of local MP2 treatment                 .... full local PMP2
Strategy for PNO selection                  .... occupation number selection
Pair density normalization                  .... MP2 norm
Spin component scaling                      .... not used

PASS-1: Formation of initial guess LMP2 amplitudes
Initial amplitudes guess done. Entering LMP2 iteration loop:
   Max. no of iterations          ...  50
   Energy convergence tolerance   ...    1.0e-07
   Residual convergence tolerance ...    5.0e-07
   Fock matrix cutoff             ...    1.0e-05 Eh
   DIIS convergence acceleration parameters:
        Max # vectors in DIIS     ... 7
        Start iteration of DIIS   ... 0
        Levelshift                ... 2.000e-01
        Damping factor 1          ... 5.000e-01
        Damping factor 2          ... 1.000e+00
   L-MP2 PNO cut-off              ...   1.0e-09
   L-MP2 PNO cut-off (core)       ...   1.0e-11
                           *** Turning on DIIS ***
LMP2-Iter=   0:  ELMP2= -1.240124233003  DE=   2.2e-02 RMAX=   3.2e-03
LMP2-Iter=   1:  ELMP2= -1.251296161889  DE=   1.1e-02 RMAX=   1.5e-03
LMP2-Iter=   2:  ELMP2= -1.252967638437  DE=   1.7e-03 RMAX=   2.1e-04
LMP2-Iter=   3:  ELMP2= -1.253112893320  DE=   1.5e-04 RMAX=   7.7e-05
LMP2-Iter=   4:  ELMP2= -1.253116336409  DE=   3.4e-06 RMAX=   1.2e-05
LMP2-Iter=   5:  ELMP2= -1.253114962718  DE=   1.4e-06 RMAX=   4.0e-06
LMP2-Iter=   6:  ELMP2= -1.253114843540  DE=   1.2e-07 RMAX=   8.1e-07
LMP2-Iter=   7:  ELMP2= -1.253114842811  DE=   7.3e-10 RMAX=   1.9e-07
LMP2-Iter=   8:  ELMP2= -1.253114845872  DE=   3.1e-09 RMAX=   3.4e-08 => CONVERGED
PASS-2: Formation of Pair natural orbitals
   .... Finished loop over pairs

 PNO Occupation Number Statistics: 
  | Av. % of trace(Dij) retained        ...  99.568599464189
  | sigma^2 in % of trace(Dij) retained ...   2.39e-01
  | Av. % of trace(Di) retained         ...  99.999694327151
  | sigma^2 in % of trace(Di) retained  ...   1.08e-08
 Distributions of % trace(Dij) recovered:
  |       >= 99.9  ...    64 ( 27.7 % of all pairs)
  |   [90.0, 99.0) ...    25 ( 10.8 % of all pairs)
  |   [99.0, 99.9) ...   142 ( 61.5 % of all pairs)
 Distributions of % trace(Di) recovered :
  |       >= 99.9  ...    21 (100.0 % of all I-pairs )

Making pair pair interaction lists          ... done

                       ===========================
                        231 OF  231 PAIRS ARE KEPT
                       ===========================

Total time spent in the initial guess                 ...    23.584 sec
L-MP2 correlation energy (all non-screened pairs)     ...      -1.253114845872 Eh
L-MP2 PNO error correction                            ...      -0.000032816398 Eh
                                                          --------------------
Initial total L-MP2 energy (non-screened pairs)       ...      -1.253147662270 Eh

Initial PNO correlation energy                        ...      -1.251781693766 Eh
sum of pair energies estimated for screened out pairs ...       0.000000000000 Eh
sum of MP2 pair energies for pairs that were not kept ...       0.000000000000 Eh
sum of PNO error estimates for the kept pairs         ...      -0.001365968503 Eh
                                                          --------------------
sum of all corrections                                         -0.001365968503
Initial total correlation energy                               -1.253147662270
Thresholds for map construction and integral transformation for fine MP2 and CCSD(T) calculation:
   TCutMKN   ...     1.0e-03
   TCutDO    ...     5.0e-03
   TCutPairs ...     1.0e-05
   TCutCMO   ...     1.0e-03
   TCutCPAO  ...     1.0e-03

Time for aux screen maps:            0.006
Time for maps after fine MP2:            0.018
-----------------------------
LOCAL RI TRANSFORMATION (IJV)
-----------------------------

Orbital window:       7 to 27
Basis functions:    392 (148 shells)
Aux. functions:     957 (291 shells)

Processing maps (0.0 sec)
Average map sizes:
   Aux shells -> MOs(i)           21.0
   Aux shells -> MOs(j)           21.0
   MOs        -> AO shells       146.0

Calculating integrals (0.8 sec, 3.231 MB)
Sorting integrals (0.0 sec, 3.220 MB)
Total time for the integral transformation: 0.9 sec
--------------------------------
LOCAL RI TRANSFORMATION (VABPAO)
--------------------------------

Number of PAOs:     392
Basis functions:    392 (148 shells)
Aux. functions:     957 (291 shells)

Processing maps (0.0 sec)
Average map sizes:
   Aux shells -> PAOs            392.0
   PAOs       -> AO shells       148.0

Calculating integrals (2.9 sec, 2090.344 MB)
Finished


-------------------------------------
Pair Pair Term precalculation with     
RI-(ij|mn) and (im|jn) transformation  
ON THE FLY                             
-------------------------------------

   IBatch   1 (of   2)              ... done (  106.689 sec)
   IBatch   2 (of   2)              ... done (   46.262 sec)
Total EXT                           ...         153.069 sec

---------------------
RI-PNO TRANSFORMATION
---------------------

Total Number of PNOs                   ...  9913
Average number of PNOs per pair        ...    42
Maximal number of PNOs per pair        ...    72
   #pairs with  1 -  5 PNOs   :    0
   #pairs with  6 - 10 PNOs   :    4
   #pairs with 11 - 15 PNOs   :   10
   #pairs with 16 - 20 PNOs   :   14
   #pairs with 21 - 25 PNOs   :   11
   #pairs with 26 - 30 PNOs   :   34
   #pairs with 31 - 35 PNOs   :   19
   #pairs with 36 - 40 PNOs   :   11
   #pairs with 41 - 45 PNOs   :    6
   #pairs with 46 - 50 PNOs   :   34
   #pairs with 51 - 55 PNOs   :   31
   #pairs with 56 - 60 PNOs   :    5
   #pairs with 61 - 65 PNOs   :   18
   #pairs with 66 - 70 PNOs   :   30
   #pairs with 71 - 75 PNOs   :    4

Generation of (ij|ab)[P] integrals            ... on
Generation of (ia|bc)[P],(ja|bc)[P] integrals ... on
Storage of 3 and 4 external integrals         ... on
Generation of ALL (ka|bc)[P] integrals        ... on
Keep RI integrals in memory                   ... off

Ibatch:  1 (of  1)
Starting 2-4 index PNO integral generation ... done

Timings:
Total PNO integral transformation time     ...         38.224 sec
Size of the 3-external file                ...       211 MB
Size of the 4-external file                ...      1565 MB
Size of the IKJL file                      ...         0 MB
Size of the all 3-external file            ...      2223 MB
Size of the 1-external file                ...         4 MB

Making pair/pair overlap matrices          ... done (    6.307 sec)
Size of the pair overlap file              ... 538 MB
Redoing the guess amplitudes               ... done (    0.087 sec)

-------------------------
FINAL STARTUP INFORMATION
-------------------------

E(0)                                       ...   -289.310009170
E(L-MP2)                                   ...     -1.253147662
E(L-MP2) including corrections             ...     -1.253147662
Initial E(tot)                             ...   -290.563156832
<T|T>                                      ...      0.353690633
Number of pairs included                   ... 231
Total number of pairs                      ... 231

------------------------------------------------
                  RHF COUPLED CLUSTER ITERATIONS
------------------------------------------------

Number of PNO amplitudes to be optimized   ...       496301
Number of non-PNO amplitudes               ...     30606576
Untruncated number of regular amplitudes   ...     30606576

Iter       E(tot)           E(Corr)          Delta-E          Residual     Time
  0   -290.528235411     -1.216860273      0.036287389      0.011451097   22.77
                           *** Turning on DIIS ***
  1   -290.587235351     -1.275860212     -0.058999939      0.005036724   15.31
  2   -290.620188068     -1.308812930     -0.032952718      0.001443122   16.03
  3   -290.626074980     -1.314699842     -0.005886912      0.000606821   15.75
  4   -290.627197519     -1.315822380     -0.001122538      0.000307944   15.55
  5   -290.627387894     -1.316012756     -0.000190375      0.000134270   15.84
  6   -290.627429760     -1.316054622     -0.000041866      0.000068588   15.99
  7   -290.627435633     -1.316060495     -0.000005873      0.000030382   15.60
  8   -290.627437028     -1.316061890     -0.000001395      0.000013900   15.71
  9   -290.627436726     -1.316061588      0.000000302      0.000006180   15.93
               --- The Coupled-Cluster iterations have converged ---

----------------------
COUPLED CLUSTER ENERGY
----------------------

E(0)                                       ...   -289.310009170
E(CORR)(strong-pairs)                      ...     -1.316061588
E(CORR)(weak-pairs)                        ...     -0.001365969
E(CORR)(corrected)                         ...     -1.317427556
E(TOT)                                     ...   -290.627436726
Singles Norm <S|S>**1/2                    ...      0.056980284  
T1 diagnostic                              ...      0.008792249  

------------------
LARGEST AMPLITUDES
------------------
   8-> 38   8-> 38       0.030559
  12-> 38  12-> 38       0.030559
  27-> 28  27-> 28       0.029179
  18-> 34  18-> 34       0.028758
  15-> 34  15-> 34       0.028758
  22-> 28  22-> 28       0.028408
  19-> 28  19-> 28       0.028407
  23-> 28  23-> 28       0.028346
  27-> 35  27-> 35       0.027829
  16-> 28  16-> 28       0.027625
  17-> 28  17-> 28       0.027625
  11-> 28  11-> 28       0.027308
  10-> 28  10-> 28       0.027305
  20-> 28  20-> 28       0.027141
  21-> 28  21-> 28       0.027140
  24-> 28  24-> 28       0.027018


-------------------------------------------
DLPNO BASED TRIPLES CORRECTION
-------------------------------------------

Singles multiplier          ...  1.000000
TCutTNO                     ... 1.000e-09
TCutMP2Pairs                ... 1.000e-06
TCutDOStrong                ... 1.000e-02
TCutMKNStrong               ... 1.000e-02
TCutDOWeak                  ... 2.000e-02
TCutMKNWeak                 ... 1.000e-01

Fragment selection                          .... not used
Number of Triples that are to be computed   ...      1750

 . . . . . . . . .
10% done  
20% done  
30% done  
40% done  
50% done  
60% done  
70% done  
80% done  
90% done               (    287.246 sec)
Triples timings:
Total time for T0               ...   306.762 sec
Total time for Iterative (T)    ...     0.000 sec
Total time of overall (T)       ...   308.264 sec

Triples List generation         ...     0.000 sec
TNO generation                  ...    19.480 sec
Pair density generation         ...     0.019 sec
Look up tables                  ...     0.000 sec
Generating 3-index integrals    ...   203.558 sec
  Make 4-ind.int. from 3-ind.int...    26.864 sec
  Projecting amplitudes (D + S) ...    23.423 sec
  Downprojecting integrals      ...     0.004 sec
  Energy contr. (sum over a,b,c)...     9.293 sec
Fitting ET(->0)                 ...     0.000 sec

Everything after 3-index        ...    83.688 sec

Timing details:
 TNO integrals                  ...   228.072 sec
   Reading 3-index integrals    ...     0.453 sec
   Sorting integrals            ...    28.300 sec
       Sorting integrals 1      ...     0.002 sec
       Sorting integrals 2      ...    17.180 sec
       Sorting integrals 3      ...     0.733 sec
       Sorting integrals 4      ...     0.043 sec
       Sorting integrals 5      ...     0.272 sec
       Sorting integrals 6      ...    10.070 sec
   Calculating local VM**-1/2   ...     0.846 sec
   Orthogonal. integrals        ...     1.345 sec
   Multipl. 3-index integrals   ...   197.127 sec
   All concerning IRIab (w/TNO) ...    13.940 sec

 Calculate W0/W1                ...    24.094 sec
 W 3-ext contribution           ...    13.130 sec
 W 3-int contribution           ...     3.586 sec
 Sorting W                      ...     7.051 sec

 V exchange contribution        ...     3.062 sec

 Timings for Triples without generation
     of 3-index integrals       ...    83.684 sec
       0 weak pairs             ...    83.684 sec
       1 weak pair              ...     0.000 sec
       2 weak pairs             ...     0.000 sec
       3 weak pairs             ...     0.000 sec
  Extra time for extrapolation  ...     0.000 sec

Number of Triples   (0, 1, 2, 3 weak pairs; overall):   1750       0       0       0  (  1750)
Number of Atoms     (0, 1, 2, 3 weak pairs; overall):   19.4     0.0     0.0     0.0  (    20)
Number of PAOs      (0, 1, 2, 3 weak pairs; overall):  383.5     0.0     0.0     0.0  (   392)
Number of AuxFcns   (0, 1, 2, 3 weak pairs; overall):  454.6     0.0     0.0     0.0  (   957)
Number of TNOs      (0, 1, 2, 3 weak pairs         ):  105.4     0.0     0.0     0.0
Aver. Number of NTNO, Atoms, PAOs, AuxFcns / Triples:   1750   105.4    19.4   383.5   454.6

Triples Correction (T)                     ...     -0.052925920
Final correlation energy                   ...     -1.370353476
E(CCSD)                                    ...   -290.627436726
E(CCSD(T))                                 ...   -290.680362646


Maximum memory used throughout the entire calculation: 7611.1 MB


------------------------------------------------------------------------------- 
                                     TIMINGS                                   
------------------------------------------------------------------------------- 


Total execution time                   ...      721.909 sec

Localization of occupied MO's          ...        0.642 sec (  0.1%)
Fock Matrix Formation                  ...        3.450 sec (  0.5%)
Global overlap, Fock, MKN matrices     ...        0.246 sec (  0.0%)
Differential overlap integrals         ...        0.148 sec (  0.0%)
Organizing maps                        ...        0.053 sec (  0.0%)
RI 3-index integral generations        ...       17.401 sec (  2.4%)
RI-PNO integral transformation         ...      198.293 sec ( 27.5%)
Initial Guess                          ...       26.991 sec (  3.7%)
DIIS Solver                            ...        2.101 sec (  0.3%)
State Vector Update                    ...        0.046 sec (  0.0%)
Sigma-vector construction              ...      164.085 sec ( 22.7%)
  <D|H|D>(0-ext)                       ...        3.663 sec (  2.2% of sigma)
  <D|H|D>(2-ext Fock)                  ...        0.014 sec (  0.0% of sigma)
  <D|H|D>(2-ext)                       ...       21.583 sec ( 13.2% of sigma)
  <D|H|D>(4-ext)                       ...       16.552 sec ( 10.1% of sigma)
  <D|H|D>(4-ext-corr)                  ...       82.632 sec ( 50.4% of sigma)
  CCSD doubles correction              ...        0.244 sec (  0.1% of sigma)
  <S|H|S>                              ...        1.094 sec (  0.7% of sigma)
  <S|H|D>(1-ext)                       ...        0.395 sec (  0.2% of sigma)
  <D|H|S>(1-ext)                       ...        0.013 sec (  0.0% of sigma)
  <S|H|D>(3-ext)                       ...        0.635 sec (  0.4% of sigma)
  Fock-dressing                        ...       21.041 sec ( 12.8% of sigma)
  Singles amplitudes                   ...        0.623 sec (  0.4% of sigma)
  (ik|jl)-dressing                     ...        8.953 sec (  5.5% of sigma)
  (ij|ab),(ia|jb)-dressing             ...        4.402 sec (  2.7% of sigma)
  Pair energies                        ...        0.009 sec (  0.0% of sigma)
Total Time for computing (T)           ...      308.353 sec ( 42.7% of ALL)


-------------------------   --------------------
FINAL SINGLE POINT ENERGY      -290.680362645703
-------------------------   --------------------


                            ***************************************
                            *     ORCA property calculations      *
                            ***************************************

                                    ---------------------
                                    Active property flags
                                    ---------------------
   (+) Dipole Moment


------------------------------------------------------------------------------
                       ORCA ELECTRIC PROPERTIES CALCULATION
------------------------------------------------------------------------------

Dipole Moment Calculation                       ... on
Quadrupole Moment Calculation                   ... off
Polarizability Calculation                      ... off
GBWName                                         ... N_Me_piperidine_ax.gbw
Electron density file                           ... N_Me_piperidine_ax.scfp.tmp
The origin for moment calculation is the CENTER OF MASS  = ( 0.014940,  0.000002  0.032888)

-------------
DIPOLE MOMENT
-------------
                                X             Y             Z
Electronic contribution:      0.61056       0.00001       1.59193
Nuclear contribution   :     -0.83652      -0.00002      -1.84163
                        -----------------------------------------
Total Dipole Moment    :     -0.22597      -0.00001      -0.24970
                        -----------------------------------------
Magnitude (a.u.)       :      0.33676
Magnitude (Debye)      :      0.85598



--------------------
Rotational spectrum 
--------------------
 
Rotational constants in cm-1:     0.123632     0.086015     0.064813 
Rotational constants in MHz :  3706.404363  2578.658134  1943.040273 

 Dipole components along the rotational axes: 
x,y,z [a.u.] :     0.231681    -0.000011    -0.244404 
x,y,z [Debye]:     0.588887    -0.000029    -0.621226 

 

Timings for individual modules:

Sum of individual times         ...      749.534 sec (=  12.492 min)
GTO integral calculation        ...        0.739 sec (=   0.012 min)   0.1 %
SCF iterations                  ...       21.581 sec (=   0.360 min)   2.9 %
MDCI module                     ...      727.214 sec (=  12.120 min)  97.0 %
                             ****ORCA TERMINATED NORMALLY****
TOTAL RUN TIME: 0 days 0 hours 12 minutes 30 seconds 402 msec
N_Me_piperidine_ax.gbw -> /home1/pantazis/klk/xyz/Nitrogen_compounds/N_Me_piperidine_ax.gbw
N_Me_piperidine_ax.job -> /home1/pantazis/klk/xyz/Nitrogen_compounds/N_Me_piperidine_ax.job
N_Me_piperidine_ax.loc -> /home1/pantazis/klk/xyz/Nitrogen_compounds/N_Me_piperidine_ax.loc
N_Me_piperidine_ax.nodes -> /home1/pantazis/klk/xyz/Nitrogen_compounds/N_Me_piperidine_ax.nodes
N_Me_piperidine_ax.prop -> /home1/pantazis/klk/xyz/Nitrogen_compounds/N_Me_piperidine_ax.prop
N_Me_piperidine_ax_property.txt -> /home1/pantazis/klk/xyz/Nitrogen_compounds/N_Me_piperidine_ax_property.txt
N_Me_piperidine_ax.xyz -> /home1/pantazis/klk/xyz/Nitrogen_compounds/N_Me_piperidine_ax.xyz
cp: cannot stat N_Me_piperidine_ax.asa.inp: No such file or directory
