! Job execution by suborca V 6.07 on ZEUS !
Job started from zeus1, running /scratch/pantazis/N_methylformamidine_cis__Wfa7C3/orca/orca copied from /opt/orca on zeussn143 in /scratch/pantazis/N_methylformamidine_cis__Wfa7C3
Job execution start: Fri Jun 28 00:57:16 CEST 2019
Shared library path: /scratch/pantazis/N_methylformamidine_cis__Wfa7C3/orca:/opt/openmpi_1.10.2/lib:/opt/intel/mkl/lib/intel64:/opt/intel/lib/intel64:
PBS Job ID is: 158275.icqc
izeussn143
izeussn143
izeussn143
izeussn143
izeussn143
izeussn143
izeussn143
izeussn143

                                 *****************
                                 * O   R   C   A *
                                 *****************

           --- An Ab Initio, DFT and Semiempirical electronic structure package ---

                  #######################################################
                  #                        -***-                        #
                  #          Department of theory and spectroscopy      #
                  #               Directorship: Frank Neese             #
                  #        Max Planck Institute fuer Kohlenforschung    #
                  #                Kaiser Wilhelm Platz 1               #
                  #                 D-45470 Muelheim/Ruhr               #
                  #                      Germany                        #
                  #                                                     #
                  #                  All rights reserved                #
                  #                        -***-                        #
                  #######################################################


                         Program Version 4.1.x  -  STABLE  -
                                (SVN: $Rev: 14094$)
                ($Date: 2019-06-14 15:01:15 +0200 (Fri, 14 Jun 2019) $)

                         (BUILD: $Sun Jun 23 06:18:31 CEST 2019$)


 With contributions from (in alphabetic order):
   Daniel Aravena         : Magnetic Properties
   Michael Atanasov       : Ab Initio Ligand Field Theory
   Alexander A. Auer      : GIAO ZORA
   Ute Becker             : Parallelization
   Giovanni Bistoni       : ED, Open-shell LED
   Martin Brehm           : Molecular dynamics
   Dmytro Bykov           : SCF Hessian
   Vijay G. Chilkuri      : MRCI spin determinant printing
   Dipayan Datta          : RHF DLPNO-CCSD density
   Achintya Kumar Dutta   : EOM-CC, STEOM-CC
   Dmitry Ganyushin       : Spin-Orbit,Spin-Spin,Magnetic field MRCI
   Miquel Garcia          : C-PCM Hessian
   Yang Guo               : DLPNO-NEVPT2, CIM, IAO-localization
   Andreas Hansen         : Spin unrestricted coupled pair/coupled cluster methods
   Benjamin Helmich-Paris : CASSCF linear response (MC-RPA)
   Lee Huntington         : MR-EOM, pCC
   Robert Izsak           : Overlap fitted RIJCOSX, COSX-SCS-MP3, EOM
   Christian Kollmar      : KDIIS, OOCD, Brueckner-CCSD(T), CCSD density
   Simone Kossmann        : Meta GGA functionals, TD-DFT gradient, OOMP2, MP2 Hessian
   Martin Krupicka        : AUTO-CI
   Lucas Lang             : DCDCAS
   Dagmar Lenk            : GEPOL surface, SMD
   Dimitrios Liakos       : Extrapolation schemes; parallel MDCI
   Dimitrios Manganas     : ROCIS; embedding schemes
   Dimitrios Pantazis     : SARC Basis sets
   Taras Petrenko         : DFT Hessian,TD-DFT gradient, ASA, ECA, R-Raman, ABS, FL, XAS/XES, NRVS
   Peter Pinski           : DLPNO-MP2, DLPNO-MP2 Gradient
   Christoph Reimann      : Effective Core Potentials
   Marius Retegan         : Local ZFS, SOC
   Christoph Riplinger    : Optimizer, TS searches, QM/MM, DLPNO-CCSD(T), (RO)-DLPNO pert. Triples
   Tobias Risthaus        : Range-separated hybrids, TD-DFT gradient, RPA, STAB
   Michael Roemelt        : Restricted open shell CIS
   Masaaki Saitow         : Open-shell DLPNO
   Barbara Sandhoefer     : DKH picture change effects
   Avijit Sen             : IP-ROCIS
   Kantharuban Sivalingam : CASSCF convergence, NEVPT2, FIC-MRCI
   Bernardo de Souza      : ESD, SOC TD-DFT
   Georgi Stoychev        : AutoAux, RI-MP2 NMR
   Willem Van den Heuvel  : Paramagnetic NMR
   Boris Wezisla          : Elementary symmetry handling
   Frank Wennmohs         : Technical directorship


 We gratefully acknowledge several colleagues who have allowed us to
 interface, adapt or use parts of their codes:
   Stefan Grimme, W. Hujo, H. Kruse,             : VdW corrections, initial TS optimization,
                  C. Bannwarth                     DFT functionals, gCP, sTDA/sTD-DF
   Ed Valeev                                     : LibInt (2-el integral package), F12 methods
   Garnet Chan, S. Sharma, J. Yang, R. Olivares  : DMRG
   Ulf Ekstrom                                   : XCFun DFT Library
   Mihaly Kallay                                 : mrcc  (arbitrary order and MRCC methods)
   Andreas Klamt, Michael Diedenhofen            : otool_cosmo (COSMO solvation model)
   Jiri Pittner, Ondrej Demel                    : Mk-CCSD
   Frank Weinhold                                : gennbo (NPA and NBO analysis)
   Christopher J. Cramer and Donald G. Truhlar   : smd solvation model
   Lars Goerigk                                  : TD-DFT with DH, B97 family of functionals
   V. Asgeirsson, H. Jonsson                     : NEB implementation
   FAccTs GmbH                                   : IRC, NEB, NEB-TS, Multilevel


 Your calculation uses the libint2 library for the computation of 2-el integrals
 For citations please refer to: http://libint.valeyev.net

 This ORCA versions uses:
   CBLAS   interface :  Fast vector & matrix operations
   LAPACKE interface :  Fast linear algebra routines
   SCALAPACK package :  Parallel linear algebra routines




***************************************
The coordinates will be read from file: N_methylformamidine_cis.xyz
***************************************


----- Orbital basis set information -----
Your calculation utilizes the basis: cc-pVTZ 
       H, B-Ne : Obtained from the ccRepo (grant-hill.group.shef.ac.uk/ccrepo) Feb. 2017
                 T. H. Dunning, Jr., J. Chem. Phys. 90, 1007 (1989)
            He : Obtained from the ccRepo (grant-hill.group.shef.ac.uk/ccrepo) Feb. 2017
                 D. E. Woon, T. H. Dunning, Jr., J. Chem. Phys. 100, 2975 (1994)
  Li-Be, Na-Mg : Obtained from the ccRepo (grant-hill.group.shef.ac.uk/ccrepo) Feb. 2017
                 B. P. Prascher, D. E. Woon, K. A. Peterson, T. H. Dunning, Jr., A. K. Wilson, Theor. Chem. Acc. 128, 69 (2011)
         Al-Ar : Obtained from the ccRepo (grant-hill.group.shef.ac.uk/ccrepo) Feb. 2017
                 D. E. Woon, T. H. Dunning, Jr., J. Chem. Phys. 98, 1358 (1993)
            Ca : Obtained from the Peterson Research Group Website (tyr0.chem.wsu.edu/~kipeters) Feb. 2017
                 J. Koput, K. A. Peterson, J. Phys. Chem. 106, 9595 (2002)
         Sc-Zn : Obtained from the ccRepo (grant-hill.group.shef.ac.uk/ccrepo) Feb. 2017
                 N. B. Balabanov, K. A. Peterson, J. Chem. Phys. 123, 064107 (2005)
                 N. B. Balabanov, K. A. Peterson, J. Chem. Phys. 125, 074110 (2006)
         Ga-Kr : Obtained from the ccRepo (grant-hill.group.shef.ac.uk/ccrepo) Feb. 2017
                 A. K. Wilson, D. E. Woon, K. A. Peterson, T. H. Dunning, Jr., J. Chem. Phys. 110, 7667 (1999)
             Y : Obtained from the ccRepo (grant-hill.group.shef.ac.uk/ccrepo) Feb. 2017
                 K. A. Peterson, D. Figgen, M. Dolg, H. Stoll, J. Chem. Phys. 126, 124101 (2007)
        Ag, Au : Obtained from the Peterson Research Group Website (tyr0.chem.wsu.edu/~kipeters) Feb. 2017
                 K. A. Peterson, C. Puzzarini, Theor. Chem. Acc. 114, 283 (2005)

----- AuxC basis set information -----
Your calculation utilizes the auxiliary basis: cc-pVTZ/C 
  Obtained from the EMSL Basis Set Exchange (bse.pnl.gov) Feb. 2017
  H-He, B-F, Al-Ar, Ga-Kr : F. Weigend, A. Kohn, C. Hattig, J. Chem. Phys. 116, 3175 (2002)
             Li-Be, Na-Mg : C. Haettig, Phys. Chem. Chem. Phys. 7, 59 (2005)
                       Ne : C. Haettig, Phys. Chem. Chem. Phys. 7, 59 (2005)
                            F. Weigend, A. Kohn, C. Hattig, J. Chem. Phys. 116, 3175 (2002)
                    Sc-Zn : J. G. Hill, J. A. Platts, J. Chem. Phys. 128, 044104 (2008)

----- AuxJK basis set information -----
Your calculation utilizes the auxiliary basis: cc-pVTZ/JK 
  H, B-F, Al-Cl, Ga-Br : Obtained from the TURBOMOLE 7.0 basis set library

================================================================================
                                        WARNINGS
                       Please study these warnings very carefully!
================================================================================


WARNING: MDCI localization with Augmented Hessian Foster-Boys
  ===> : Switching off randomization!

WARNING: Post HF methods need fully converged wavefunctions
  ===> : Setting SCFConvForced true
         You can overwrite this default with %scf ConvForced false 


INFO   : the flag for use of LIBINT has been found!

================================================================================
                                       INPUT FILE
================================================================================
NAME = N_methylformamidine_cis.inp
|  1> ! RHF DLPNO-CCSD(T) cc-pVTZ RIJK cc-pVTZ/JK cc-pVTZ/C
|  2> ! KDIIS SOSCF TightSCF TightPNO
|  3> 
|  4> %pal nprocs 8 end
|  5> 
|  6> %maxcore 8000
|  7> 
|  8> %scf maxiter 300
|  9>      shift shift 0.2 erroff 0.1 end
| 10> end
| 11> 
| 12> * xyzfile 0 1 N_methylformamidine_cis.xyz 
| 13> 
| 14> 
| 15>                          ****END OF INPUT****
================================================================================

                       ****************************
                       * Single Point Calculation *
                       ****************************

---------------------------------
CARTESIAN COORDINATES (ANGSTROEM)
---------------------------------
  C     -1.440710   -0.434720    0.000010
  N     -0.624480    0.771310   -0.000020
  C      0.645970    0.625640    0.000010
  N      1.370810   -0.545220   -0.000010
  H      1.270890    1.520210    0.000040
  H      2.377090   -0.524310    0.000030
  H      0.923090   -1.447130   -0.000010
  H     -2.496860   -0.154740   -0.000090
  H     -1.264960   -1.061110   -0.890570
  H     -1.265100   -1.060980    0.890710

----------------------------
CARTESIAN COORDINATES (A.U.)
----------------------------
  NO LB      ZA    FRAG     MASS         X           Y           Z
   0 C     6.0000    0    12.011   -2.722547   -0.821502    0.000019
   1 N     7.0000    0    14.007   -1.180096    1.457565   -0.000038
   2 C     6.0000    0    12.011    1.220706    1.182288    0.000019
   3 N     7.0000    0    14.007    2.590455   -1.030316   -0.000019
   4 H     1.0000    0     1.008    2.401634    2.872781    0.000076
   5 H     1.0000    0     1.008    4.492049   -0.990802    0.000057
   6 H     1.0000    0     1.008    1.744387   -2.734679   -0.000019
   7 H     1.0000    0     1.008   -4.718382   -0.292416   -0.000170
   8 H     1.0000    0     1.008   -2.390428   -2.005207   -1.682933
   9 H     1.0000    0     1.008   -2.390693   -2.004962    1.683198

--------------------------------
INTERNAL COORDINATES (ANGSTROEM)
--------------------------------
 C      0   0   0     0.000000000000     0.00000000     0.00000000
 N      1   0   0     1.456275995373     0.00000000     0.00000000
 C      2   1   0     1.278774003607   117.54880156     0.00000000
 N      3   2   1     1.377064328781   128.30123337     0.00000000
 H      3   2   1     1.091228890838   118.39602642   180.00309640
 H      4   3   2     1.006497227070   120.56984834   180.00076611
 H      4   3   2     1.006923456128   121.83933786     0.00000000
 H      1   2   3     1.092630602217   109.24247120   180.00383438
 H      1   2   3     1.102898558799   112.39689201   299.14401975
 H      1   2   3     1.102899337972   112.39729692    60.86379236

---------------------------
INTERNAL COORDINATES (A.U.)
---------------------------
 C      0   0   0     0.000000000000     0.00000000     0.00000000
 N      1   0   0     2.751962806659     0.00000000     0.00000000
 C      2   1   0     2.416532653994   117.54880156     0.00000000
 N      3   2   1     2.602274450187   128.30123337     0.00000000
 H      3   2   1     2.062123753107   118.39602642   180.00309640
 H      4   3   2     1.902004113714   120.56984834   180.00076611
 H      4   3   2     1.902809569903   121.83933786     0.00000000
 H      1   2   3     2.064772603731   109.24247120   180.00383438
 H      1   2   3     2.084176229626   112.39689201   299.14401975
 H      1   2   3     2.084177702051   112.39729692    60.86379236

---------------------
BASIS SET INFORMATION
---------------------
There are 3 groups of distinct atoms

 Group   1 Type C   : 18s5p2d1f contracted to 4s3p2d1f pattern {8811/311/11/1}
 Group   2 Type N   : 18s5p2d1f contracted to 4s3p2d1f pattern {8811/311/11/1}
 Group   3 Type H   : 5s2p1d contracted to 3s2p1d pattern {311/11/1}

Atom   0C    basis set group =>   1
Atom   1N    basis set group =>   2
Atom   2C    basis set group =>   1
Atom   3N    basis set group =>   2
Atom   4H    basis set group =>   3
Atom   5H    basis set group =>   3
Atom   6H    basis set group =>   3
Atom   7H    basis set group =>   3
Atom   8H    basis set group =>   3
Atom   9H    basis set group =>   3
-------------------------------
AUXILIARY BASIS SET INFORMATION
-------------------------------
There are 3 groups of distinct atoms

 Group   1 Type C   : 8s6p5d3f1g contracted to 8s6p5d3f1g pattern {11111111/111111/11111/111/1}
 Group   2 Type N   : 8s6p5d3f1g contracted to 8s6p5d3f1g pattern {11111111/111111/11111/111/1}
 Group   3 Type H   : 4s3p2d1f contracted to 4s3p2d1f pattern {1111/111/11/1}

Atom   0C    basis set group =>   1
Atom   1N    basis set group =>   2
Atom   2C    basis set group =>   1
Atom   3N    basis set group =>   2
Atom   4H    basis set group =>   3
Atom   5H    basis set group =>   3
Atom   6H    basis set group =>   3
Atom   7H    basis set group =>   3
Atom   8H    basis set group =>   3
Atom   9H    basis set group =>   3
-------------------------------
AUXILIARY BASIS SET INFORMATION
-------------------------------
There are 3 groups of distinct atoms

 Group   1 Type C   : 10s7p5d2f1g contracted to 10s7p5d2f1g pattern {1111111111/1111111/11111/11/1}
 Group   2 Type N   : 10s7p5d2f1g contracted to 10s7p5d2f1g pattern {1111111111/1111111/11111/11/1}
 Group   3 Type H   : 4s3p2d1f contracted to 4s3p2d1f pattern {1111/111/11/1}

Atom   0C    basis set group =>   1
Atom   1N    basis set group =>   2
Atom   2C    basis set group =>   1
Atom   3N    basis set group =>   2
Atom   4H    basis set group =>   3
Atom   5H    basis set group =>   3
Atom   6H    basis set group =>   3
Atom   7H    basis set group =>   3
Atom   8H    basis set group =>   3
Atom   9H    basis set group =>   3


           ************************************************************
           *        Program running with 8 parallel MPI-processes     *
           *              working on a common directory               *
           ************************************************************
------------------------------------------------------------------------------
                           ORCA GTO INTEGRAL CALCULATION
                           -- RI-GTO INTEGRALS CHOSEN --
------------------------------------------------------------------------------

                         BASIS SET STATISTICS AND STARTUP INFO

Gaussian basis set:
 # of primitive gaussian shells          ...  152
 # of primitive gaussian functions       ...  296
 # of contracted shells                  ...   76
 # of contracted basis functions         ...  204
 Highest angular momentum                ...    3
 Maximum contraction depth               ...    8
Auxiliary gaussian basis set:
 # of primitive gaussian shells          ...  160
 # of primitive gaussian functions       ...  496
 # of contracted shells                  ...  160
 # of contracted aux-basis functions     ...  496
 Highest angular momentum                ...    4
 Maximum contraction depth               ...    1
Ratio of auxiliary to basis functions    ...  2.43
Integral package used                  ... LIBINT
 One Electron integrals                  ... done
 Ordering auxiliary basis shells         ... done
 Integral threshhold             Thresh  ...  2.500e-11
 Primitive cut-off               TCut    ...  2.500e-12
 Pre-screening matrix                    ... done
 Shell pair data                         ... 
 Ordering of the shell pairs             ... done (   0.001 sec) 2878 of 2926 pairs
 Determination of significant pairs      ... done (   0.000 sec)
 Creation of shell pair data             ... done (   0.001 sec)
 Storage of shell pair data              ... done (   0.001 sec)
 Shell pair data done in (   0.002 sec)
 Computing two index integrals           ... done
 Cholesky decomposition of the V-matrix  ... done


Timings:
 Total evaluation time                   ...   2.619 sec (  0.044 min)
 One electron matrix time                ...   2.310 sec (  0.039 min) = 88.2%
 Schwartz matrix evaluation time         ...   0.194 sec (  0.003 min) =  7.4%
 Two index repulsion integral time       ...   0.035 sec (  0.001 min) =  1.3%
 Cholesky decomposition of V             ...   0.042 sec (  0.001 min) =  1.6%
 Three index repulsion integral time     ...   0.000 sec (  0.000 min) =  0.0%



           ************************************************************
           *        Program running with 8 parallel MPI-processes     *
           *              working on a common directory               *
           ************************************************************
-------------------------------------------------------------------------------
                                 ORCA SCF
-------------------------------------------------------------------------------

------------
SCF SETTINGS
------------
Hamiltonian:
 Ab initio Hamiltonian  Method          .... Hartree-Fock(GTOs)
 RI-approximation to the Coulomb term is turned on
   Number of auxiliary basis functions  .... 496
   RI-JK (J+K treated both via RI)      .... on


General Settings:
 Integral files         IntName         .... N_methylformamidine_cis
 Hartree-Fock type      HFTyp           .... RHF
 Total Charge           Charge          ....    0
 Multiplicity           Mult            ....    1
 Number of Electrons    NEL             ....   32
 Basis Dimension        Dim             ....  204
 Nuclear Repulsion      ENuc            ....    121.9123352046 Eh

Convergence Acceleration:
 DIIS                   CNVDIIS         .... off
 Newton-Raphson         CNVNR           .... off
 SOSCF                  CNVSOSCF        .... on
   Start iteration      SOSCFMaxIt      ....   150
   Startup grad/error   SOSCFStart      ....  0.003300
 Level Shifting         CNVShift        .... on
   Level shift para.    LevelShift      ....    0.2000
   Turn off err/grad.   ShiftErr        ....    0.1000
 Zerner damping         CNVZerner       .... off
 Static damping         CNVDamp         .... off
 Fernandez-Rico         CNVRico         .... off

SCF Procedure:
 Maximum # iterations   MaxIter         ....   300
 SCF integral mode      SCFMode         .... Direct
   Integral package                     .... LIBINT
 Reset frequency        DirectResetFreq ....    20
 Integral Threshold     Thresh          ....  2.500e-11 Eh
 Primitive CutOff       TCut            ....  2.500e-12 Eh

Convergence Tolerance:
 Convergence Check Mode ConvCheckMode   .... Total+1el-Energy
 Convergence forced     ConvForced      .... 1
 Energy Change          TolE            ....  1.000e-08 Eh
 1-El. energy change                    ....  1.000e-05 Eh
 Orbital Gradient       TolG            ....  1.000e-05
 Orbital Rotation angle TolX            ....  1.000e-05


Diagonalization of the overlap matrix:
Smallest eigenvalue                        ... 9.531e-04
Time for diagonalization                   ...    0.013 sec
Threshold for overlap eigenvalues          ... 1.000e-08
Number of eigenvalues below threshold      ... 0
Time for construction of square roots      ...    0.009 sec
Total time needed                          ...    0.022 sec

-------------------
DFT GRID GENERATION
-------------------

General Integration Accuracy     IntAcc      ...  4.340
Radial Grid Type                 RadialGrid  ... Gauss-Chebyshev
Angular Grid (max. acc.)         AngularGrid ... Lebedev-110
Angular grid pruning method      GridPruning ... 3 (G Style)
Weight generation scheme         WeightScheme... Becke
Basis function cutoff            BFCut       ...    1.0000e-11
Integration weight cutoff        WCut        ...    1.0000e-14
Grids for H and He will be reduced by one unit

# of grid points (after initial pruning)     ...  11480 (   0.0 sec)
# of grid points (after weights+screening)   ...  10936 (   0.0 sec)
nearest neighbour list constructed           ...    0.0 sec
Grid point re-assignment to atoms done       ...    0.0 sec
Grid point division into batches done        ...    0.0 sec
Reduced shell lists constructed in    0.0 sec

Total number of grid points                  ...    10936
Total number of batches                      ...      176
Average number of points per batch           ...       62
Average number of grid points per atom       ...     1094
Average number of shells per batch           ...    62.65 (82.44%)
Average number of basis functions per batch  ...   164.57 (80.67%)
Average number of large shells per batch     ...    52.61 (83.97%)
Average number of large basis fcns per batch ...   136.70 (83.06%)
Average number of aux-shells per batch       ...    62.65 (39.16%)
Average number of aux functions per batch    ...   164.57 (33.18%)
Maximum spatial batch extension              ...   8.28, 14.47, 19.16 au
Average spatial batch extension              ...   0.30,  0.35,  0.44 au

Time for grid setup =    0.081 sec

------------------------------
INITIAL GUESS: MODEL POTENTIAL
------------------------------
Loading Hartree-Fock densities                     ... done
Calculating cut-offs                               ... done
Setting up the integral package                    ... done
Initializing the effective Hamiltonian             ... done
Starting the Coulomb interaction                   ... done (   0.0 sec)
Reading the grid                                   ... done
Mapping shells                                     ... done
Starting the XC term evaluation                    ... done (   0.0 sec)
Transforming the Hamiltonian                       ... done (   0.0 sec)
Diagonalizing the Hamiltonian                      ... done (   0.0 sec)
Back transforming the eigenvectors                 ... done (   0.0 sec)
Now organizing SCF variables                       ... done
                      ------------------
                      INITIAL GUESS DONE (   0.2 sec)
                      ------------------
--------------
SCF ITERATIONS
--------------
ITER       Energy         Delta-E        Max-DP      RMS-DP      [F,P]   Gradient Norm
                             ****Turning on KDIIS(Cayley)****
  0   -187.9211794463   0.000000000000 0.01596450  0.00039576  0.1044155   0.164119162
  1   -187.9955125541  -0.074333107869 0.01858953  0.00041654  0.0867552   0.140956050
  2   -188.0551541403  -0.059641586189 0.03214215  0.00069798  0.0712725   0.114372610
  3   -188.1267081429  -0.071554002570 0.06365740  0.00116153  0.0468378   0.070951209
  4   -188.1744913176  -0.047783174711 0.00323197  0.00010503  0.0043370   0.004477443
                      *** Initiating the SOSCF procedure ***
                           *** Shutting down KDIIS ***
                      *** Re-Reading the Fockian *** 
                      *** Removing any level shift *** 
ITER      Energy       Delta-E        Grad      Rot      Max-DP    RMS-DP
  5   -188.17483946  -0.0003481380  0.002079  0.002079  0.004019  0.000124
  6   -188.17494819  -0.0001087361  0.000611  0.000774  0.001036  0.000023
  7   -188.17495269  -0.0000044985  0.000483  0.000377  0.000399  0.000009
  8   -188.17495684  -0.0000041518  0.000046  0.000082  0.000142  0.000004
  9   -188.17495692  -0.0000000734  0.000034  0.000102  0.000104  0.000003
 10   -188.17495693  -0.0000000142  0.000012  0.000009  0.000017  0.000000
 11   -188.17495693  -0.0000000026  0.000006  0.000005  0.000010  0.000000
                 **** Energy Check signals convergence ****
              ***Rediagonalizing the Fockian in SOSCF/NRSCF***

               *****************************************************
               *                     SUCCESS                       *
               *           SCF CONVERGED AFTER  12 CYCLES          *
               *****************************************************


----------------
TOTAL SCF ENERGY
----------------

Total Energy       :         -188.17495693 Eh           -5120.50090 eV

Components:
Nuclear Repulsion  :          121.91233520 Eh            3317.40329 eV
Electronic Energy  :         -310.08729214 Eh           -8437.90419 eV
One Electron Energy:         -495.96659340 Eh          -13495.93713 eV
Two Electron Energy:          185.87930126 Eh            5058.03293 eV

Virial components:
Potential Energy   :         -375.97915661 Eh          -10230.91298 eV
Kinetic Energy     :          187.80419968 Eh            5110.41208 eV
Virial Ratio       :            2.00197417


---------------
SCF CONVERGENCE
---------------

  Last Energy change         ...   -4.2075e-10  Tolerance :   1.0000e-08
  Last MAX-Density change    ...    3.8741e-06  Tolerance :   1.0000e-07
  Last RMS-Density change    ...    1.2429e-07  Tolerance :   5.0000e-09
  Last Orbital Gradient      ...    2.0917e-06  Tolerance :   1.0000e-05
  Last Orbital Rotation      ...    5.5050e-06  Tolerance :   1.0000e-05

             **** THE GBW FILE WAS UPDATED (N_methylformamidine_cis.gbw) ****
             **** DENSITY FILE WAS UPDATED (N_methylformamidine_cis.scfp.tmp) ****
             **** ENERGY FILE WAS UPDATED (N_methylformamidine_cis.en.tmp) ****
----------------
ORBITAL ENERGIES
----------------

  NO   OCC          E(Eh)            E(eV) 
   0   2.0000     -15.577867      -423.8953 
   1   2.0000     -15.520037      -422.3217 
   2   2.0000     -11.304720      -307.6171 
   3   2.0000     -11.236852      -305.7703 
   4   2.0000      -1.254590       -34.1391 
   5   2.0000      -1.150452       -31.3054 
   6   2.0000      -0.936880       -25.4938 
   7   2.0000      -0.795604       -21.6495 
   8   2.0000      -0.722768       -19.6675 
   9   2.0000      -0.658738       -17.9252 
  10   2.0000      -0.592032       -16.1100 
  11   2.0000      -0.585361       -15.9285 
  12   2.0000      -0.528280       -14.3752 
  13   2.0000      -0.497718       -13.5436 
  14   2.0000      -0.392982       -10.6936 
  15   2.0000      -0.349113        -9.4999 
  16   0.0000       0.129022         3.5109 
  17   0.0000       0.159659         4.3446 
  18   0.0000       0.183817         5.0019 
  19   0.0000       0.185537         5.0487 
  20   0.0000       0.217967         5.9312 
  21   0.0000       0.241521         6.5721 
  22   0.0000       0.242722         6.6048 
  23   0.0000       0.279829         7.6145 
  24   0.0000       0.354338         9.6420 
  25   0.0000       0.389622        10.6022 
  26   0.0000       0.415009        11.2930 
  27   0.0000       0.432100        11.7580 
  28   0.0000       0.474799        12.9199 
  29   0.0000       0.502730        13.6800 
  30   0.0000       0.530742        14.4422 
  31   0.0000       0.576193        15.6790 
  32   0.0000       0.596534        16.2325 
  33   0.0000       0.616555        16.7773 
  34   0.0000       0.628960        17.1149 
  35   0.0000       0.639736        17.4081 
  36   0.0000       0.653420        17.7805 
  37   0.0000       0.656777        17.8718 
  38   0.0000       0.662592        18.0300 
  39   0.0000       0.688801        18.7432 
  40   0.0000       0.703624        19.1466 
  41   0.0000       0.738439        20.0940 
  42   0.0000       0.761642        20.7253 
  43   0.0000       0.810888        22.0654 
  44   0.0000       0.817950        22.2576 
  45   0.0000       0.818039        22.2600 
  46   0.0000       0.868481        23.6326 
  47   0.0000       0.892753        24.2930 
  48   0.0000       0.929914        25.3043 
  49   0.0000       0.967053        26.3149 
  50   0.0000       1.013522        27.5793 
  51   0.0000       1.037395        28.2290 
  52   0.0000       1.082107        29.4456 
  53   0.0000       1.096348        29.8331 
  54   0.0000       1.139347        31.0032 
  55   0.0000       1.161323        31.6012 
  56   0.0000       1.189373        32.3645 
  57   0.0000       1.193352        32.4728 
  58   0.0000       1.225260        33.3410 
  59   0.0000       1.258780        34.2531 
  60   0.0000       1.270491        34.5718 
  61   0.0000       1.312091        35.7038 
  62   0.0000       1.326695        36.1012 
  63   0.0000       1.334298        36.3081 
  64   0.0000       1.413433        38.4615 
  65   0.0000       1.477371        40.2013 
  66   0.0000       1.496938        40.7338 
  67   0.0000       1.515337        41.2344 
  68   0.0000       1.541643        41.9502 
  69   0.0000       1.551107        42.2078 
  70   0.0000       1.565962        42.6120 
  71   0.0000       1.603311        43.6283 
  72   0.0000       1.644960        44.7616 
  73   0.0000       1.675440        45.5910 
  74   0.0000       1.731680        47.1214 
  75   0.0000       1.732177        47.1349 
  76   0.0000       1.759556        47.8800 
  77   0.0000       1.781359        48.4733 
  78   0.0000       1.852871        50.4192 
  79   0.0000       1.938291        52.7436 
  80   0.0000       1.991371        54.1880 
  81   0.0000       2.016035        54.8591 
  82   0.0000       2.053937        55.8905 
  83   0.0000       2.198227        59.8168 
  84   0.0000       2.227605        60.6162 
  85   0.0000       2.350665        63.9648 
  86   0.0000       2.428051        66.0706 
  87   0.0000       2.484197        67.5984 
  88   0.0000       2.545834        69.2757 
  89   0.0000       2.616109        71.1880 
  90   0.0000       2.762614        75.1746 
  91   0.0000       2.837392        77.2094 
  92   0.0000       2.861073        77.8538 
  93   0.0000       2.879937        78.3671 
  94   0.0000       2.956139        80.4406 
  95   0.0000       2.978549        81.0504 
  96   0.0000       3.025811        82.3365 
  97   0.0000       3.057454        83.1976 
  98   0.0000       3.084012        83.9202 
  99   0.0000       3.101634        84.3997 
 100   0.0000       3.115949        84.7893 
 101   0.0000       3.166663        86.1693 
 102   0.0000       3.184142        86.6449 
 103   0.0000       3.211615        87.3925 
 104   0.0000       3.236489        88.0693 
 105   0.0000       3.257379        88.6378 
 106   0.0000       3.283641        89.3524 
 107   0.0000       3.322150        90.4003 
 108   0.0000       3.323632        90.4406 
 109   0.0000       3.355188        91.2993 
 110   0.0000       3.396268        92.4171 
 111   0.0000       3.416996        92.9812 
 112   0.0000       3.426771        93.2472 
 113   0.0000       3.448750        93.8453 
 114   0.0000       3.464551        94.2752 
 115   0.0000       3.495023        95.1044 
 116   0.0000       3.503359        95.3312 
 117   0.0000       3.563012        96.9545 
 118   0.0000       3.612544        98.3023 
 119   0.0000       3.630826        98.7998 
 120   0.0000       3.647524        99.2542 
 121   0.0000       3.674187        99.9797 
 122   0.0000       3.717848       101.1678 
 123   0.0000       3.735427       101.6461 
 124   0.0000       3.765659       102.4688 
 125   0.0000       3.774227       102.7019 
 126   0.0000       3.781234       102.8926 
 127   0.0000       3.835085       104.3580 
 128   0.0000       3.858011       104.9818 
 129   0.0000       3.862731       105.1103 
 130   0.0000       3.915177       106.5374 
 131   0.0000       3.921052       106.6973 
 132   0.0000       3.966248       107.9271 
 133   0.0000       4.024612       109.5153 
 134   0.0000       4.038881       109.9035 
 135   0.0000       4.056773       110.3904 
 136   0.0000       4.084493       111.1447 
 137   0.0000       4.108968       111.8107 
 138   0.0000       4.137264       112.5807 
 139   0.0000       4.154067       113.0379 
 140   0.0000       4.172583       113.5418 
 141   0.0000       4.206754       114.4716 
 142   0.0000       4.283192       116.5516 
 143   0.0000       4.289289       116.7175 
 144   0.0000       4.318707       117.5180 
 145   0.0000       4.357714       118.5794 
 146   0.0000       4.380642       119.2033 
 147   0.0000       4.397469       119.6612 
 148   0.0000       4.416944       120.1911 
 149   0.0000       4.420421       120.2858 
 150   0.0000       4.481089       121.9366 
 151   0.0000       4.507816       122.6639 
 152   0.0000       4.528615       123.2299 
 153   0.0000       4.561380       124.1214 
 154   0.0000       4.592094       124.9572 
 155   0.0000       4.642950       126.3411 
 156   0.0000       4.719229       128.4167 
 157   0.0000       4.774317       129.9158 
 158   0.0000       4.786339       130.2429 
 159   0.0000       4.846878       131.8903 
 160   0.0000       4.873289       132.6089 
 161   0.0000       4.923634       133.9789 
 162   0.0000       5.064207       137.8041 
 163   0.0000       5.092997       138.5875 
 164   0.0000       5.122962       139.4029 
 165   0.0000       5.143044       139.9493 
 166   0.0000       5.164023       140.5202 
 167   0.0000       5.194677       141.3544 
 168   0.0000       5.202315       141.5622 
 169   0.0000       5.263958       143.2396 
 170   0.0000       5.311303       144.5279 
 171   0.0000       5.355980       145.7436 
 172   0.0000       5.396000       146.8326 
 173   0.0000       5.413293       147.3032 
 174   0.0000       5.455831       148.4607 
 175   0.0000       5.511137       149.9657 
 176   0.0000       5.543878       150.8566 
 177   0.0000       5.546610       150.9309 
 178   0.0000       5.554433       151.1438 
 179   0.0000       5.624621       153.0537 
 180   0.0000       5.692525       154.9015 
 181   0.0000       5.739501       156.1798 
 182   0.0000       5.752742       156.5401 
 183   0.0000       5.832866       158.7204 
 184   0.0000       5.891493       160.3157 
 185   0.0000       5.939931       161.6337 
 186   0.0000       5.968445       162.4097 
 187   0.0000       6.032882       164.1631 
 188   0.0000       6.099052       165.9636 
 189   0.0000       6.129624       166.7956 
 190   0.0000       6.193588       168.5361 
 191   0.0000       6.216929       169.1712 
 192   0.0000       6.238601       169.7610 
 193   0.0000       6.247722       170.0092 
 194   0.0000       6.337097       172.4412 
 195   0.0000       6.470872       176.0814 
 196   0.0000       6.637828       180.6245 
 197   0.0000       6.884890       187.3474 
 198   0.0000       7.310220       198.9212 
 199   0.0000       7.390149       201.0962 
 200   0.0000      10.348219       281.5894 
 201   0.0000      13.390680       364.3789 
 202   0.0000      14.021829       381.5534 
 203   0.0000      14.621004       397.8577 

                    ********************************
                    * MULLIKEN POPULATION ANALYSIS *
                    ********************************

-----------------------
MULLIKEN ATOMIC CHARGES
-----------------------
   0 C :   -0.164066
   1 N :   -0.327073
   2 C :    0.081155
   3 N :   -0.347860
   4 H :    0.143974
   5 H :    0.187017
   6 H :    0.197653
   7 H :    0.105413
   8 H :    0.061884
   9 H :    0.061901
Sum of atomic charges:    0.0000000

--------------------------------
MULLIKEN REDUCED ORBITAL CHARGES
--------------------------------
  0 C s       :     3.243181  s :     3.243181
      pz      :     0.969474  p :     2.821539
      px      :     0.989746
      py      :     0.862319
      dz2     :     0.012556  d :     0.092516
      dxz     :     0.009336
      dyz     :     0.022580
      dx2y2   :     0.029003
      dxy     :     0.019041
      f0      :     0.000564  f :     0.006830
      f+1     :     0.000531
      f-1     :     0.001737
      f+2     :     0.000145
      f-2     :     0.000662
      f+3     :     0.001651
      f-3     :     0.001541
  1 N s       :     3.493479  s :     3.493479
      pz      :     1.255889  p :     3.768019
      px      :     1.089949
      py      :     1.422181
      dz2     :     0.007156  d :     0.061006
      dxz     :     0.016191
      dyz     :     0.004591
      dx2y2   :     0.018411
      dxy     :     0.014658
      f0      :     0.000609  f :     0.004568
      f+1     :     0.000620
      f-1     :     0.000375
      f+2     :     0.000699
      f-2     :     0.000165
      f+3     :     0.001252
      f-3     :     0.000847
  2 C s       :     3.195614  s :     3.195614
      pz      :     0.788591  p :     2.522177
      px      :     0.897421
      py      :     0.836165
      dz2     :     0.009519  d :     0.185331
      dxz     :     0.051403
      dyz     :     0.021446
      dx2y2   :     0.030572
      dxy     :     0.072391
      f0      :     0.002451  f :     0.015723
      f+1     :     0.000913
      f-1     :     0.001069
      f+2     :     0.002228
      f-2     :     0.001362
      f+3     :     0.003797
      f-3     :     0.003904
  3 N s       :     3.422263  s :     3.422263
      pz      :     1.751344  p :     3.890977
      px      :     1.065412
      py      :     1.074221
      dz2     :     0.003424  d :     0.031212
      dxz     :     0.001338
      dyz     :     0.003793
      dx2y2   :     0.013570
      dxy     :     0.009087
      f0      :     0.000520  f :     0.003408
      f+1     :     0.000574
      f-1     :     0.000695
      f+2     :     0.000027
      f-2     :     0.000171
      f+3     :     0.000948
      f-3     :     0.000474
  4 H s       :     0.835395  s :     0.835395
      pz      :     0.006647  p :     0.018269
      px      :     0.001881
      py      :     0.009741
      dz2     :     0.000203  d :     0.002361
      dxz     :     0.000218
      dyz     :     0.000265
      dx2y2   :     0.001045
      dxy     :     0.000630
  5 H s       :     0.747802  s :     0.747802
      pz      :     0.028624  p :     0.060293
      px      :     0.020547
      py      :     0.011122
      dz2     :     0.000372  d :     0.004888
      dxz     :     0.002189
      dyz     :     0.000006
      dx2y2   :     0.001246
      dxy     :     0.001075
  6 H s       :     0.737638  s :     0.737638
      pz      :     0.026860  p :     0.059814
      px      :     0.011335
      py      :     0.021618
      dz2     :     0.000389  d :     0.004895
      dxz     :     0.000433
      dyz     :     0.001689
      dx2y2   :     0.001317
      dxy     :     0.001067
  7 H s       :     0.867906  s :     0.867906
      pz      :     0.009569  p :     0.024431
      px      :     0.009664
      py      :     0.005199
      dz2     :     0.000207  d :     0.002250
      dxz     :     0.000575
      dyz     :     0.000098
      dx2y2   :     0.000714
      dxy     :     0.000656
  8 H s       :     0.911676  s :     0.911676
      pz      :     0.008593  p :     0.024271
      px      :     0.006499
      py      :     0.009179
      dz2     :     0.000569  d :     0.002169
      dxz     :     0.000349
      dyz     :     0.000759
      dx2y2   :     0.000245
      dxy     :     0.000248
  9 H s       :     0.911659  s :     0.911659
      pz      :     0.008593  p :     0.024270
      px      :     0.006499
      py      :     0.009179
      dz2     :     0.000569  d :     0.002169
      dxz     :     0.000349
      dyz     :     0.000759
      dx2y2   :     0.000245
      dxy     :     0.000248


                     *******************************
                     * LOEWDIN POPULATION ANALYSIS *
                     *******************************

----------------------
LOEWDIN ATOMIC CHARGES
----------------------
   0 C :    0.006154
   1 N :    0.111267
   2 C :   -0.194371
   3 N :    0.405619
   4 H :   -0.029277
   5 H :   -0.086016
   6 H :   -0.090303
   7 H :   -0.031844
   8 H :   -0.045618
   9 H :   -0.045612

-------------------------------
LOEWDIN REDUCED ORBITAL CHARGES
-------------------------------
  0 C s       :     2.679279  s :     2.679279
      pz      :     0.992339  p :     2.858079
      px      :     0.952730
      py      :     0.913010
      dz2     :     0.059031  d :     0.409951
      dxz     :     0.022320
      dyz     :     0.124154
      dx2y2   :     0.130593
      dxy     :     0.073853
      f0      :     0.003636  f :     0.046536
      f+1     :     0.004891
      f-1     :     0.006683
      f+2     :     0.003529
      f-2     :     0.006799
      f+3     :     0.009167
      f-3     :     0.011830
  1 N s       :     3.042339  s :     3.042339
      pz      :     1.125988  p :     3.633730
      px      :     1.183158
      py      :     1.324584
      dz2     :     0.018047  d :     0.197394
      dxz     :     0.033947
      dyz     :     0.015522
      dx2y2   :     0.065687
      dxy     :     0.064191
      f0      :     0.001036  f :     0.015269
      f+1     :     0.001730
      f-1     :     0.000649
      f+2     :     0.001837
      f-2     :     0.001169
      f+3     :     0.003628
      f-3     :     0.005221
  2 C s       :     2.731073  s :     2.731073
      pz      :     0.752367  p :     2.683319
      px      :     1.011962
      py      :     0.918990
      dz2     :     0.038948  d :     0.693837
      dxz     :     0.143618
      dyz     :     0.079386
      dx2y2   :     0.146328
      dxy     :     0.285557
      f0      :     0.005767  f :     0.086143
      f+1     :     0.006518
      f-1     :     0.004501
      f+2     :     0.014585
      f-2     :     0.008209
      f+3     :     0.015543
      f-3     :     0.031020
  3 N s       :     2.820178  s :     2.820178
      pz      :     1.430647  p :     3.610170
      px      :     1.084376
      py      :     1.095146
      dz2     :     0.009896  d :     0.154970
      dxz     :     0.005928
      dyz     :     0.014518
      dx2y2   :     0.071275
      dxy     :     0.053353
      f0      :     0.001140  f :     0.009063
      f+1     :     0.001057
      f-1     :     0.001150
      f+2     :     0.000180
      f-2     :     0.001133
      f+3     :     0.001961
      f-3     :     0.002442
  4 H s       :     0.864257  s :     0.864257
      pz      :     0.031642  p :     0.139331
      px      :     0.042250
      py      :     0.065438
      dz2     :     0.002519  d :     0.025689
      dxz     :     0.002619
      dyz     :     0.004142
      dx2y2   :     0.008039
      dxy     :     0.008370
  5 H s       :     0.763814  s :     0.763814
      pz      :     0.104543  p :     0.261750
      px      :     0.113220
      py      :     0.043987
      dz2     :     0.004503  d :     0.060451
      dxz     :     0.025628
      dyz     :     0.000015
      dx2y2   :     0.014730
      dxy     :     0.015576
  6 H s       :     0.764158  s :     0.764158
      pz      :     0.104811  p :     0.265913
      px      :     0.060512
      py      :     0.100590
      dz2     :     0.004549  d :     0.060232
      dxz     :     0.004916
      dyz     :     0.020376
      dx2y2   :     0.015865
      dxy     :     0.014526
  7 H s       :     0.858950  s :     0.858950
      pz      :     0.040241  p :     0.145521
      px      :     0.070881
      py      :     0.034399
      dz2     :     0.002371  d :     0.027374
      dxz     :     0.008498
      dyz     :     0.001061
      dx2y2   :     0.007530
      dxy     :     0.007913
  8 H s       :     0.870837  s :     0.870837
      pz      :     0.062379  p :     0.148095
      px      :     0.037570
      py      :     0.048146
      dz2     :     0.008295  d :     0.026686
      dxz     :     0.005143
      dyz     :     0.007254
      dx2y2   :     0.002665
      dxy     :     0.003329
  9 H s       :     0.870833  s :     0.870833
      pz      :     0.062385  p :     0.148094
      px      :     0.037569
      py      :     0.048140
      dz2     :     0.008295  d :     0.026686
      dxz     :     0.005145
      dyz     :     0.007255
      dx2y2   :     0.002664
      dxy     :     0.003327


                      *****************************
                      * MAYER POPULATION ANALYSIS *
                      *****************************

  NA   - Mulliken gross atomic population
  ZA   - Total nuclear charge
  QA   - Mulliken gross atomic charge
  VA   - Mayer's total valence
  BVA  - Mayer's bonded valence
  FA   - Mayer's free valence

  ATOM       NA         ZA         QA         VA         BVA        FA
  0 C      6.1641     6.0000    -0.1641     3.9197     3.9197     0.0000
  1 N      7.3271     7.0000    -0.3271     2.9876     2.9876    -0.0000
  2 C      5.9188     6.0000     0.0812     4.1126     4.1126    -0.0000
  3 N      7.3479     7.0000    -0.3479     3.0706     3.0706    -0.0000
  4 H      0.8560     1.0000     0.1440     0.9716     0.9716     0.0000
  5 H      0.8130     1.0000     0.1870     0.9993     0.9993    -0.0000
  6 H      0.8023     1.0000     0.1977     0.9966     0.9966     0.0000
  7 H      0.8946     1.0000     0.1054     0.9791     0.9791     0.0000
  8 H      0.9381     1.0000     0.0619     0.9691     0.9691     0.0000
  9 H      0.9381     1.0000     0.0619     0.9691     0.9691     0.0000

  Mayer bond orders larger than 0.1
B(  0-C ,  1-N ) :   0.9925 B(  0-C ,  7-H ) :   0.9899 B(  0-C ,  8-H ) :   0.9631 
B(  0-C ,  9-H ) :   0.9631 B(  1-N ,  2-C ) :   1.9711 B(  2-C ,  3-N ) :   1.1223 
B(  2-C ,  4-H ) :   0.9631 B(  3-N ,  5-H ) :   0.9670 B(  3-N ,  6-H ) :   0.9593 


-------
TIMINGS
-------

Total SCF time: 0 days 0 hours 0 min 14 sec 

Total time                  ....      14.609 sec
Sum of individual times     ....      14.404 sec  ( 98.6%)

Fock matrix formation       ....      14.060 sec  ( 96.2%)
Diagonalization             ....       0.031 sec  (  0.2%)
Density matrix formation    ....       0.006 sec  (  0.0%)
Population analysis         ....       0.028 sec  (  0.2%)
Initial guess               ....       0.164 sec  (  1.1%)
Orbital Transformation      ....       0.000 sec  (  0.0%)
Orbital Orthonormalization  ....       0.000 sec  (  0.0%)
DIIS solution               ....       0.000 sec  (  0.0%)
SOSCF solution              ....       0.034 sec  (  0.2%)


           ************************************************************
           *        Program running with 8 parallel MPI-processes     *
           *              working on a common directory               *
           ************************************************************


------------------------------------------------------------------------------- 
                              ORCA-MATRIX DRIVEN CI                            
------------------------------------------------------------------------------- 


Wavefunction type
-----------------
Correlation treatment                      ...      CCSD     
Single excitations                         ... ON
Orbital optimization                       ... OFF
Calculation of Z vector                    ... OFF
Calculation of Brueckner orbitals          ... OFF
Perturbative triple excitations            ... ON
Calculation of F12 correction              ... OFF
Frozen core treatment                      ... chemical core (8 el)
Reference Wavefunction                     ... RHF
  Internal Orbitals:     4 ...   15 ( 12 MO's/ 24 electrons)
  Virtual  Orbitals:    16 ...  203 (188 MO's              )
Number of AO's                             ...    204
Number of electrons                        ...     32
Number of correlated electrons             ...     24

Algorithmic settings
--------------------
Integral transformation                    ... All integrals via the RI transformation
K(C) Formation                             ... RI-DLPNO
   PNO-Integral Storage                    ... ON DISK
   PNO occupation number cut-off           ... 1.000e-07
   Singles PNO occupation number cut-off   ... 3.000e-09
   PNO Mulliken prescreening cut-off       ... 1.000e-03
   Domain cut-off (Mulliken population)    ... 1.000e-03
   PNO Normalization                       ...    1
Maximum number of iterations               ...        50
Convergence tolerance (max. residuum)      ... 1.000e-05
Level shift for amplitude update           ... 2.000e-01
Maximum number of DIIS vectors             ...         7
DIIS turned on at iteration                ...         0
Damping before turning on DIIS             ...     0.500
Damping after turning on DIIS              ...     0.000
Pair specific amplitude update             ... OFF
Natural orbital iterations                 ... OFF
Perturbative natural orbital generation    ... OFF
Printlevel                                 ... 2

Singles Fock matrix elements calculated using PNOs.

Memory handling:
----------------
Maximum memory for working arrays          ...   8000 MB
Data storage in matrix containers          ... UNCOMPRESSED
Data type for integral storage             ... DOUBLE
In-Core Storage of quantities:
   Amplitudes+Sigma Vector      ... NO
   J+K operators                ... NO
   DIIS vectors                 ... NO
   3-external integrals         ... NO
   4-external integrals         ... NO

Localization treatment:
-----------------------
Localization option                        ...    6
Localization threshhold                    ... -1.0e+00
Using relative localization threshhold     ... 1.0e-08
Neglect threshold for strong pairs         ... 1.000e-05 Eh
Prescreening threshold for very weak pairs ... 1.000e-07 Eh

Initializing the integral package          ... done
Localizing the valence orbitals
------------------------------------------------------------------------------
                           ORCA ORBITAL LOCALIZATION
------------------------------------------------------------------------------

Input orbitals are from                  ... N_methylformamidine_cis.proc0.gbw
Output orbitals are to                   ... N_methylformamidine_cis.proc0.loc
Max. number of iterations                ... 128
Localizations seeded randomly            ... off
Convergence tolerance                    ... 1.000e-06
Using relative localization threshhold   ... 1.000e-08
Treshold for strong local MOs            ... 9.500e-01
Treshold for bond MOs                    ... 8.500e-01
Operator                                 ... 0
Orbital range for localization           ... 4 to 15
Localization criterion                   ... FOSTER-BOYS (AUGMENTED HESSIAN)
Doing the dipole integrals     ... o.k.
Initial value of the localization sum :    67.004943
ITERATION   0 : L=   91.1588879109 DL=  2.42e+01 (AVERGE_DL)=    0.6049536016 
ITERATION   1 : L=   94.7932809730 DL=  3.63e+00 (AVERGE_DL)=    0.2346626548 
ITERATION   2 : L=   94.8847722092 DL=  9.15e-02 (AVERGE_DL)=    0.0372321212 
ITERATION   3 : L=   94.8853810205 DL=  6.09e-04 (AVERGE_DL)=    0.0030371719 
ITERATION   4 : L=   94.8854225200 DL=  4.15e-05 (AVERGE_DL)=    0.0007929565 
ITERATION   5 : L=   94.8854278970 DL=  5.38e-06 (AVERGE_DL)=    0.0002854303 
ITERATION   6 : L=   94.8854290307 DL=  1.13e-06 (AVERGE_DL)=    0.0001310613 
ITERATION   7 : L=   94.8854292965 DL=  2.66e-07 (AVERGE_DL)=    0.0000634620 
LOCALIZATION SUM CONVERGED

------------------------------------------------------
AUGMENTED HESSIAN OPTIMIZATION OF FOSTER-BOYS ORBITALS
------------------------------------------------------

Spin operator:           0
Orbital window:          4 to 15
Number of iterations:    128
Gradient tolerance:      1.000e-06
Number of pairs:         66
Davidson threshold:      2000
Diagonalization method:  LAPACK
Iter:    0   L: 94.8854292965   Grad. norm: 1.047831e-03
   *** Likely close to a maximum now. ***
       Augmented Hessian eigenvalues:  1.73e-07 -3.60e-01 -3.22e+00 -5.07e+00 ... 
Iter:    1   L: 94.8854293828   Grad. norm: 7.387070e-07
LOCALIZATION HAS CONVERGED.

Eigenvalues of the Hessian:
  0 -3.587e-01
  1 -3.218e+00
  2 -5.077e+00
  3 -5.406e+00
  4 -6.938e+00
  5 -7.349e+00
  6 -1.060e+01
  7 -1.139e+01
  8 -1.279e+01
  9 -1.467e+01
    ...


------------------------------------------------------------------------------- 
                    LOCALIZED MOLECULAR ORBITAL COMPOSITIONS                   
------------------------------------------------------------------------------- 

The Mulliken populations for each LMO on each atom are computed
The LMO`s will be ordered according to atom index and type
  (A) Strongly localized MO`s have populations of >=0.950 on one atom
  (B) Two center bond orbitals have populations of >=0.850 on two atoms
  (C) Other MO`s are considered to be `delocalized`

FOUND  -   0 strongly local MO`s
       -  12 two center bond MO`s
       -   0 significantly delocalized MO`s

Bond-like localized orbitals:
MO  15:   9H  -   0.494673  and   0C  -   0.538157
MO  14:   8H  -   0.494756  and   0C  -   0.538104
MO  13:   7H  -   0.466048  and   0C  -   0.566287
MO  12:   6H  -   0.402494  and   3N  -   0.611217
MO  11:   5H  -   0.409616  and   3N  -   0.602912
MO  10:   4H  -   0.440667  and   2C  -   0.584505
MO   9:   3N  -   0.659207  and   2C  -   0.369243
MO   8:   3N  -   0.847597  and   2C  -   0.129342
MO   7:   2C  -   0.419263  and   1N  -   0.595568
MO   6:   2C  -   0.419041  and   1N  -   0.595793
MO   5:   1N  -   0.594245  and   0C  -   0.432418
MO   4:   1N  -   0.940611  and   0C  -   0.000605
Localized MO's were stored in: N_methylformamidine_cis.proc0.loc

Localizing the core orbitals
------------------------------------------------------------------------------
                           ORCA ORBITAL LOCALIZATION
------------------------------------------------------------------------------

Input orbitals are from                  ... N_methylformamidine_cis.proc0.loc
Output orbitals are to                   ... N_methylformamidine_cis.proc0.loc
Max. number of iterations                ... 128
Localizations seeded randomly            ... off
Convergence tolerance                    ... 1.000e-06
Using relative localization threshhold   ... 1.000e-08
Treshold for strong local MOs            ... 9.500e-01
Treshold for bond MOs                    ... 8.500e-01
Operator                                 ... 0
Orbital range for localization           ... 0 to 3
Localization criterion                   ... FOSTER-BOYS (AUGMENTED HESSIAN)
Doing the dipole integrals     ... o.k.
Initial value of the localization sum :    22.261950
ITERATION   0 : L=   22.2619517042 DL=  1.57e-06 (AVERGE_DL)=    0.0005107743 
ITERATION   1 : L=   22.2619517042 DL=  0.00e+00 (AVERGE_DL)=    0.0000000000 
LOCALIZATION SUM CONVERGED

------------------------------------------------------
AUGMENTED HESSIAN OPTIMIZATION OF FOSTER-BOYS ORBITALS
------------------------------------------------------

Spin operator:           0
Orbital window:          0 to 3
Number of iterations:    128
Gradient tolerance:      1.000e-06
Number of pairs:         6
Davidson threshold:      2000
Diagonalization method:  LAPACK
Iter:    0   L: 22.2619517042   Grad. norm: 2.165574e-06
   *** Likely close to a maximum now. ***
       Augmented Hessian eigenvalues:  4.26e-14 -2.34e+01 -2.71e+01 -3.03e+01 ... 
Iter:    1   L: 22.2619517042   Grad. norm: 2.523376e-20
LOCALIZATION HAS CONVERGED.

Eigenvalues of the Hessian:
  0 -2.336e+01
  1 -2.708e+01
  2 -3.029e+01
  3 -7.826e+01
  4 -8.161e+01
  5 -1.131e+02


------------------------------------------------------------------------------- 
                    LOCALIZED MOLECULAR ORBITAL COMPOSITIONS                   
------------------------------------------------------------------------------- 

The Mulliken populations for each LMO on each atom are computed
The LMO`s will be ordered according to atom index and type
  (A) Strongly localized MO`s have populations of >=0.950 on one atom
  (B) Two center bond orbitals have populations of >=0.850 on two atoms
  (C) Other MO`s are considered to be `delocalized`

FOUND  -   4 strongly local MO`s
       -   0 two center bond MO`s
       -   0 significantly delocalized MO`s

Rather strongly localized orbitals:
MO   3:   3N  -   1.000151
MO   2:   2C  -   0.999931
MO   1:   1N  -   0.999822
MO   0:   0C  -   1.000938
Localized MO's were stored in: N_methylformamidine_cis.proc0.loc

Warning: internal orbitals are localized - no re-canonicalization of internal orbitals

--------------------------
CLOSED-SHELL FOCK OPERATOR
--------------------------

RI-JK section for the Fock operator:
  RHF full Fock operator         ... done
  RHF frozen core Fock operator  ... done
Time needed for Fock operator              ...            0.736 sec
Reference energy                           ...   -188.174956933

--------------
DLPNO SETTINGS (2015 fully linear scaling implementation)
--------------

TCutMKN:           1.000e-03
TCutPAO:           1.000e-03
TCutPNO:           1.000e-07
TCutPNOSingles:    3.000e-09
TCutEN:            9.700e-01
TCutPAOExt:        1.000e-01
TCutPairs:         1.000e-05
TCutPre:           1.000e-07
TCutOSV:           1.000e-06
TCutDOij:          1.000e-05
TCutDO:            5.000e-03
TCutC:             1.000e-04
TCutCPAO:          1.000e-03
TCutCMO:           1.000e-03
TScaleDOMP2PreScr: 2.000e+00
TScaleMKNMP2PreScr:1.000e+01
TScalePNOMP2PreScr:1.000e+00
PAO overlap thresh 1.000e-08
Using PNOs for Singles Fock computation
Use new domains
Use fully linear algorithm
TCutTNO:           1.000e-09
TCutMP2Pairs:      1.000e-06
TCutDOStrong:      2.000e-03
TCutMKNStrong:     1.000e-02
TCutMKNWeak:       1.000e-01
TCutDOWeak:        4.000e-03
NTCutTNO:          1

--------------------------
Calculating differential overlap integrals ... ok
--------------------------
ELECTRON PAIR PRESCREENING
--------------------------

Dipole-based pair screening          .... used

   TCutDOij = 1.000000e-05
   TCutPre  = 1.000000e-07
   .... Finished loop over pairs
Total time spent in the prescreening                  ...     0.000 sec
sum of pair energies estimated for screened out pairs ...       0.000000000000 Eh
Thresholds for map construction and integral transformation for crude MP2:
   TCutMKN                    ...     1.0e-02
   TCutDO                     ...     1.0e-02
   TCutPairs                  ...     1.0e-05
   TCutPNO_CrudeMP2           ...     1.0e-07
   TCutPNOSingles_CrudeMP2    ...     3.0e-09
--------------------------------
LOCAL RI TRANSFORMATION (IAVPAO)
--------------------------------

Orbital window:       4 to 15
Number of PAOs:     204
Basis functions:    204 (76 shells)
Aux. functions:     504 (152 shells)

Processing maps (0.0 sec)
Average map sizes:
   Aux shells -> MOs              12.0
   Aux shells -> PAOs            204.0
   MOs        -> AO shells        76.0
   PAOs       -> AO shells        76.0

Calculating integrals (0.3 sec, 9.419 MB)
Sorting integrals (0.0 sec, 9.413 MB)
Total time for the integral transformation: 0.3 sec
--------------------------------
INITIAL GUESS AND PNO GENERATION
--------------------------------

PNO truncation parameters                   .... 
    PAOOverlapThresh   =        1.000e-08

    TCutPairs          =        1.000e-05
    TCutPNO            =        1.000e-07
    TCutPNOSingles     =        3.000e-09
    TCutMP2Pairs       =        1.000e-06
    TCutMKN            =        1.000e-02
    TCutDO             =        1.000e-02

Pair selection                          .... not used
Type of local MP2 treatment                 .... semi-local MP2
Strategy for PNO selection                  .... occupation number selection
Pair density normalization                  .... MP2 norm
Spin component scaling                      .... not used

   .... Finished loop over pairs
Making pair pair interaction lists          ... done

                       ===========================
                         78 OF   78 PAIRS ARE KEPT CCSD PAIRS
                          0 OF   78 PAIRS ARE KEPT MP2 PAIRS FOR (T)
                          0 OF   78 PAIRS ARE SKIPPED
                       ===========================

Total time spent in the initial guess                 ...     0.272 sec
SL-MP2 correlation energy (all non-screened pairs)    ...      -0.731340213364 Eh

Initial PNO correlation energy                        ...      -0.730805704991 Eh
sum of pair energies prescreened and skipped MP2 pairs...       0.000000000000 Eh
sum of pair energies of crude MP2 skipped pairs only  ...       0.000000000000 Eh
sum of MP2 pair energies for pairs that were not kept ...       0.000000000000 Eh
sum of PNO error estimates for the kept pairs         ...      -0.000534508373 Eh
                                                          --------------------
sum of all corrections                                         -0.000534508373
Initial total correlation energy                               -0.731340213364
Thresholds for map construction and integral transformation for fine MP2 and CCSD(T) calculation:
   TCutMKN   ...     1.0e-03
   TCutDO    ...     5.0e-03
   TCutPairs ...     1.0e-05
   TCutCMO   ...     1.0e-03
   TCutCPAO  ...     1.0e-03

Thresholds for map construction and integral transformation for strong Triples:
   TCutMKN   ...     1.0e-02
   TCutDO    ...     1.0e-02
   TCutCMO   ...     1.0e-03
   TCutCPAO  ...     1.0e-03

Thresholds for map construction and integral transformation for weak Triples:
   TCutMKN   ...     1.0e-01
   TCutDO    ...     2.0e-02
   TCutCMO   ...     1.0e-03
   TCutCPAO  ...     1.0e-03

--------------------------------
LOCAL RI TRANSFORMATION (IAVPAO)
--------------------------------

Orbital window:       4 to 15
Number of PAOs:     204
Basis functions:    204 (76 shells)
Aux. functions:     504 (152 shells)

Processing maps (0.0 sec)
Average map sizes:
   Aux shells -> MOs              12.0
   Aux shells -> PAOs            204.0
   MOs        -> AO shells        76.0
   PAOs       -> AO shells        76.0

Calculating integrals (0.3 sec, 9.419 MB)
Sorting integrals (0.0 sec, 9.413 MB)
Total time for the integral transformation: 0.3 sec
--------------------------------
INITIAL GUESS AND PNO GENERATION
--------------------------------

PNO truncation parameters                   .... 
    ScaleTCutPNO       =        1.000e-02
    PAOOverlapThresh   =        1.000e-08

    TCutPairs          =        1.000e-05
    TCutPNO            =        1.000e-07
    TCutPNOSingles     =        3.000e-09
    TCutMP2Pairs       =        1.000e-06
    TCutMKN            =        1.000e-03
    TCutDO             =        5.000e-03

Pair selection                          .... not used
Type of local MP2 treatment                 .... full local PMP2
Strategy for PNO selection                  .... occupation number selection
Pair density normalization                  .... MP2 norm
Spin component scaling                      .... not used

PASS-1: Formation of initial guess LMP2 amplitudes
Initial amplitudes guess done. Entering LMP2 iteration loop:
   Max. no of iterations          ...  50
   Energy convergence tolerance   ...    1.0e-07
   Residual convergence tolerance ...    5.0e-07
   Fock matrix cutoff             ...    1.0e-05 Eh
   DIIS convergence acceleration parameters:
        Max # vectors in DIIS     ... 7
        Start iteration of DIIS   ... 0
        Levelshift                ... 2.000e-01
        Damping factor 1          ... 5.000e-01
        Damping factor 2          ... 1.000e+00
   L-MP2 PNO cut-off              ...   1.0e-09
   L-MP2 PNO cut-off (core)       ...   1.0e-11
                           *** Turning on DIIS ***
LMP2-Iter=   0:  ELMP2= -0.745980954616  DE=   1.5e-02 RMAX=   1.5e-02
LMP2-Iter=   1:  ELMP2= -0.754548903604  DE=   8.6e-03 RMAX=   7.4e-03
LMP2-Iter=   2:  ELMP2= -0.756242055947  DE=   1.7e-03 RMAX=   2.6e-03
LMP2-Iter=   3:  ELMP2= -0.756466031034  DE=   2.2e-04 RMAX=   1.0e-03
LMP2-Iter=   4:  ELMP2= -0.756455131389  DE=   1.1e-05 RMAX=   2.6e-04
LMP2-Iter=   5:  ELMP2= -0.756450036575  DE=   5.1e-06 RMAX=   6.6e-05
LMP2-Iter=   6:  ELMP2= -0.756449235260  DE=   8.0e-07 RMAX=   1.0e-05
LMP2-Iter=   7:  ELMP2= -0.756449353835  DE=   1.2e-07 RMAX=   1.6e-06
LMP2-Iter=   8:  ELMP2= -0.756449386677  DE=   3.3e-08 RMAX=   3.0e-07
LMP2-Iter=   9:  ELMP2= -0.756449384645  DE=   2.0e-09 RMAX=   6.1e-08 => CONVERGED
PASS-2: Formation of Pair natural orbitals
   .... Finished loop over pairs

 PNO Occupation Number Statistics: 
  | Av. % of trace(Dij) retained        ...  99.822212995435
  | sigma^2 in % of trace(Dij) retained ...   6.21e-02
  | Av. % of trace(Di) retained         ...  99.999776037929
  | sigma^2 in % of trace(Di) retained  ...   5.35e-09
 Distributions of % trace(Dij) recovered:
  |       >= 99.9  ...    39 ( 50.0 % of all pairs)
  |   [90.0, 99.0) ...     1 (  1.3 % of all pairs)
  |   [99.0, 99.9) ...    38 ( 48.7 % of all pairs)
 Distributions of % trace(Di) recovered :
  |       >= 99.9  ...    12 (100.0 % of all I-pairs )

Making pair pair interaction lists          ... done

                       ===========================
                         78 OF   78 PAIRS ARE KEPT
                       ===========================

Total time spent in the initial guess                 ...     2.719 sec
L-MP2 correlation energy (all non-screened pairs)     ...      -0.756449384645 Eh
L-MP2 PNO error correction                            ...      -0.000007251794 Eh
                                                          --------------------
Initial total L-MP2 energy (non-screened pairs)       ...      -0.756456636439 Eh

Initial PNO correlation energy                        ...      -0.755957829452 Eh
sum of pair energies estimated for screened out pairs ...       0.000000000000 Eh
sum of MP2 pair energies for pairs that were not kept ...       0.000000000000 Eh
sum of PNO error estimates for the kept pairs         ...      -0.000498806988 Eh
                                                          --------------------
sum of all corrections                                         -0.000498806988
Initial total correlation energy                               -0.756456636439
Thresholds for map construction and integral transformation for fine MP2 and CCSD(T) calculation:
   TCutMKN   ...     1.0e-03
   TCutDO    ...     5.0e-03
   TCutPairs ...     1.0e-05
   TCutCMO   ...     1.0e-03
   TCutCPAO  ...     1.0e-03

Time for aux screen maps:            0.001
Time for maps after fine MP2:            0.004
-----------------------------
LOCAL RI TRANSFORMATION (IJV)
-----------------------------

Orbital window:       4 to 15
Basis functions:    204 (76 shells)
Aux. functions:     504 (152 shells)

Processing maps (0.0 sec)
Average map sizes:
   Aux shells -> MOs(i)           12.0
   Aux shells -> MOs(j)           12.0
   MOs        -> AO shells        76.0

Calculating integrals (0.3 sec, 0.559 MB)
Sorting integrals (0.0 sec, 0.554 MB)
Total time for the integral transformation: 0.3 sec
--------------------------------
LOCAL RI TRANSFORMATION (VABPAO)
--------------------------------

Number of PAOs:     204
Basis functions:    204 (76 shells)
Aux. functions:     504 (152 shells)

Processing maps (0.0 sec)
Average map sizes:
   Aux shells -> PAOs            204.0
   PAOs       -> AO shells        76.0

Calculating integrals (0.5 sec, 302.593 MB)
Finished


-------------------------------------
Pair Pair Term precalculation with     
RI-(ij|mn) and (im|jn) transformation  
ON THE FLY                             
-------------------------------------

   IBatch   1 (of   1)              ... done (    8.224 sec)
Total EXT                           ...           8.224 sec

---------------------
RI-PNO TRANSFORMATION
---------------------

Total Number of PNOs                   ...  4081
Average number of PNOs per pair        ...    52
Maximal number of PNOs per pair        ...    71
   #pairs with  1 -  5 PNOs   :    0
   #pairs with  6 - 10 PNOs   :    0
   #pairs with 11 - 15 PNOs   :    0
   #pairs with 16 - 20 PNOs   :    1
   #pairs with 21 - 25 PNOs   :    3
   #pairs with 26 - 30 PNOs   :    2
   #pairs with 31 - 35 PNOs   :    6
   #pairs with 36 - 40 PNOs   :    6
   #pairs with 41 - 45 PNOs   :    1
   #pairs with 46 - 50 PNOs   :   13
   #pairs with 51 - 55 PNOs   :    7
   #pairs with 56 - 60 PNOs   :   10
   #pairs with 61 - 65 PNOs   :   19
   #pairs with 66 - 70 PNOs   :    8
   #pairs with 71 - 75 PNOs   :    2

Generation of (ij|ab)[P] integrals            ... on
Generation of (ia|bc)[P],(ja|bc)[P] integrals ... on
Storage of 3 and 4 external integrals         ... on
Generation of ALL (ka|bc)[P] integrals        ... on
Keep RI integrals in memory                   ... off

Ibatch:  1 (of  1)
Starting 2-4 index PNO integral generation ... done

Timings:
Total PNO integral transformation time     ...          6.100 sec
Size of the 3-external file                ...       102 MB
Size of the 4-external file                ...       777 MB
Size of the IKJL file                      ...         0 MB
Size of the all 3-external file            ...       614 MB
Size of the 1-external file                ...         1 MB

Making pair/pair overlap matrices          ... done (    0.287 sec)
Size of the pair overlap file              ... 99 MB
Redoing the guess amplitudes               ... done (    0.002 sec)

-------------------------
FINAL STARTUP INFORMATION
-------------------------

E(0)                                       ...   -188.174956933
E(L-MP2)                                   ...     -0.756456636
E(L-MP2) including corrections             ...     -0.756456636
Initial E(tot)                             ...   -188.931413569
<T|T>                                      ...      0.203553070
Number of pairs included                   ... 78
Total number of pairs                      ... 78

------------------------------------------------
                  RHF COUPLED CLUSTER ITERATIONS
------------------------------------------------

Number of PNO amplitudes to be optimized   ...       227205
Number of non-PNO amplitudes               ...      2756832
Untruncated number of regular amplitudes   ...      2756832

Iter       E(tot)           E(Corr)          Delta-E          Residual     Time
  0   -188.906225122     -0.730769382      0.025687254      0.014359426    6.07
                           *** Turning on DIIS ***
  1   -188.932689931     -0.757234191     -0.026464809      0.010697572   11.67
  2   -188.952550070     -0.777094330     -0.019860139      0.005971612    6.82
  3   -188.956895507     -0.781439767     -0.004345437      0.003263551    5.78
  4   -188.958155551     -0.782699811     -0.001260044      0.001697766   13.53
  5   -188.958544054     -0.783088314     -0.000388503      0.000658181    6.11
  6   -188.958659063     -0.783203324     -0.000115010      0.000263242    6.19
  7   -188.958673353     -0.783217614     -0.000014290      0.000121536    6.19
  8   -188.958672996     -0.783217256      0.000000358      0.000063380    6.17
  9   -188.958671157     -0.783215417      0.000001838      0.000034276    6.17
 10   -188.958670815     -0.783215075      0.000000343      0.000015920    6.17
 11   -188.958670628     -0.783214888      0.000000187      0.000005593    5.77
               --- The Coupled-Cluster iterations have converged ---

----------------------
COUPLED CLUSTER ENERGY
----------------------

E(0)                                       ...   -188.174956933
E(CORR)(strong-pairs)                      ...     -0.783214888
E(CORR)(weak-pairs)                        ...     -0.000498807
E(CORR)(corrected)                         ...     -0.783713695
E(TOT)                                     ...   -188.958670628
Singles Norm <S|S>**1/2                    ...      0.060333779  
T1 diagnostic                              ...      0.012315581  

------------------
LARGEST AMPLITUDES
------------------
   6-> 16   6-> 16       0.050675
   7-> 16   7-> 16       0.050398
   7-> 16   6-> 16       0.043875
  15-> 23  15-> 23       0.036951
  14-> 23  14-> 23       0.036950
  11-> 20  11-> 20       0.030220
   8-> 16   8-> 16       0.028574
  15-> 16  15-> 16       0.027764
  14-> 16  14-> 16       0.027763
  14-> 16  14-> 23       0.027663
  14-> 23  14-> 16       0.027663
  15-> 16  15-> 23       0.027657
  15-> 23  15-> 16       0.027657
   8-> 25   8-> 25       0.027357
  12-> 16  12-> 16       0.026039
  13-> 23  13-> 23       0.025874


-------------------------------------------
DLPNO BASED TRIPLES CORRECTION
-------------------------------------------

Singles multiplier          ...  1.000000
TCutTNO                     ... 1.000e-09
TCutMP2Pairs                ... 1.000e-06
TCutDOStrong                ... 1.000e-02
TCutMKNStrong               ... 1.000e-02
TCutDOWeak                  ... 2.000e-02
TCutMKNWeak                 ... 1.000e-01

Fragment selection                          .... not used
Number of Triples that are to be computed   ...       352

 . . . . . . . . .
10% done  
20% done  
30% done  
40% done  
50% done  
60% done  
70% done  
80% done  
90% done               (     19.734 sec)
Triples timings:
Total time for T0               ...    20.574 sec
Total time for Iterative (T)    ...     0.000 sec
Total time of overall (T)       ...    23.328 sec

Triples List generation         ...     0.000 sec
TNO generation                  ...     0.836 sec
Pair density generation         ...     0.002 sec
Look up tables                  ...     0.000 sec
Generating 3-index integrals    ...     8.804 sec
  Make 4-ind.int. from 3-ind.int...     4.096 sec
  Projecting amplitudes (D + S) ...     0.929 sec
  Downprojecting integrals      ...     0.001 sec
  Energy contr. (sum over a,b,c)...     1.604 sec
Fitting ET(->0)                 ...     0.000 sec

Everything after 3-index        ...    10.931 sec

Timing details:
 TNO integrals                  ...    12.578 sec
   Reading 3-index integrals    ...     0.051 sec
   Sorting integrals            ...     2.337 sec
       Sorting integrals 1      ...     0.000 sec
       Sorting integrals 2      ...     0.516 sec
       Sorting integrals 3      ...     0.089 sec
       Sorting integrals 4      ...     0.003 sec
       Sorting integrals 5      ...     0.018 sec
       Sorting integrals 6      ...     1.711 sec
   Calculating local VM**-1/2   ...     0.071 sec
   Orthogonal. integrals        ...     0.145 sec
   Multipl. 3-index integrals   ...     9.974 sec
   All concerning IRIab (w/TNO) ...     2.062 sec

 Calculate W0/W1                ...     4.298 sec
 W 3-ext contribution           ...     2.380 sec
 W 3-int contribution           ...     0.554 sec
 Sorting W                      ...     1.306 sec

 V exchange contribution        ...     0.538 sec

 Timings for Triples without generation
     of 3-index integrals       ...    10.930 sec
       0 weak pairs             ...    10.930 sec
       1 weak pair              ...     0.000 sec
       2 weak pairs             ...     0.000 sec
       3 weak pairs             ...     0.000 sec
  Extra time for extrapolation  ...     0.000 sec

Number of Triples   (0, 1, 2, 3 weak pairs; overall):    352       0       0       0  (   352)
Number of Atoms     (0, 1, 2, 3 weak pairs; overall):    9.9     0.0     0.0     0.0  (    10)
Number of PAOs      (0, 1, 2, 3 weak pairs; overall):  202.5     0.0     0.0     0.0  (   204)
Number of AuxFcns   (0, 1, 2, 3 weak pairs; overall):  351.5     0.0     0.0     0.0  (   504)
Number of TNOs      (0, 1, 2, 3 weak pairs         ):  107.8     0.0     0.0     0.0
Aver. Number of NTNO, Atoms, PAOs, AuxFcns / Triples:    352   107.8     9.9   202.5   351.5

Triples Correction (T)                     ...     -0.032536299
Final correlation energy                   ...     -0.816249994
E(CCSD)                                    ...   -188.958670628
E(CCSD(T))                                 ...   -188.991206927


Maximum memory used throughout the entire calculation: 2249.2 MB


------------------------------------------------------------------------------- 
                                     TIMINGS                                   
------------------------------------------------------------------------------- 


Total execution time                   ...      132.044 sec

Localization of occupied MO's          ...        0.431 sec (  0.3%)
Fock Matrix Formation                  ...        0.736 sec (  0.6%)
Global overlap, Fock, MKN matrices     ...        0.165 sec (  0.1%)
Differential overlap integrals         ...        0.064 sec (  0.0%)
Organizing maps                        ...        0.012 sec (  0.0%)
RI 3-index integral generations        ...        1.479 sec (  1.1%)
RI-PNO integral transformation         ...       15.761 sec ( 11.9%)
Initial Guess                          ...        3.018 sec (  2.3%)
DIIS Solver                            ...        0.724 sec (  0.5%)
State Vector Update                    ...        0.019 sec (  0.0%)
Sigma-vector construction              ...       86.437 sec ( 65.5%)
  <D|H|D>(0-ext)                       ...        0.778 sec (  0.9% of sigma)
  <D|H|D>(2-ext Fock)                  ...        0.008 sec (  0.0% of sigma)
  <D|H|D>(2-ext)                       ...        2.628 sec (  3.0% of sigma)
  <D|H|D>(4-ext)                       ...       12.445 sec ( 14.4% of sigma)
  <D|H|D>(4-ext-corr)                  ...       46.944 sec ( 54.3% of sigma)
  CCSD doubles correction              ...        0.071 sec (  0.1% of sigma)
  <S|H|S>                              ...        0.271 sec (  0.3% of sigma)
  <S|H|D>(1-ext)                       ...        0.113 sec (  0.1% of sigma)
  <D|H|S>(1-ext)                       ...        0.004 sec (  0.0% of sigma)
  <S|H|D>(3-ext)                       ...        0.386 sec (  0.4% of sigma)
  Fock-dressing                        ...       20.110 sec ( 23.3% of sigma)
  Singles amplitudes                   ...        0.151 sec (  0.2% of sigma)
  (ik|jl)-dressing                     ...        0.591 sec (  0.7% of sigma)
  (ij|ab),(ia|jb)-dressing             ...        1.762 sec (  2.0% of sigma)
  Pair energies                        ...        0.005 sec (  0.0% of sigma)
Total Time for computing (T)           ...       23.342 sec ( 17.7% of ALL)


-------------------------   --------------------
FINAL SINGLE POINT ENERGY      -188.991206927266
-------------------------   --------------------


                            ***************************************
                            *     ORCA property calculations      *
                            ***************************************

                                    ---------------------
                                    Active property flags
                                    ---------------------
   (+) Dipole Moment


------------------------------------------------------------------------------
                       ORCA ELECTRIC PROPERTIES CALCULATION
------------------------------------------------------------------------------

Dipole Moment Calculation                       ... on
Quadrupole Moment Calculation                   ... off
Polarizability Calculation                      ... off
GBWName                                         ... N_methylformamidine_cis.gbw
Electron density file                           ... N_methylformamidine_cis.scfp.tmp
The origin for moment calculation is the CENTER OF MASS  = ( 0.014599,  0.088171 -0.000002)

-------------
DIPOLE MOMENT
-------------
                                X             Y             Z
Electronic contribution:      1.48165       1.92807      -0.00005
Nuclear contribution   :     -0.46713      -2.82131       0.00011
                        -----------------------------------------
Total Dipole Moment    :      1.01452      -0.89324       0.00006
                        -----------------------------------------
Magnitude (a.u.)       :      1.35171
Magnitude (Debye)      :      3.43578



--------------------
Rotational spectrum 
--------------------
 
Rotational constants in cm-1:     0.605474     0.207799     0.159383 
Rotational constants in MHz : 18151.656269  6229.665163  4778.171769 

 Dipole components along the rotational axes: 
x,y,z [a.u.] :     1.054076    -0.846199     0.000061 
x,y,z [Debye]:     2.679248    -2.150866     0.000156 

 

Timings for individual modules:

Sum of individual times         ...      149.819 sec (=   2.497 min)
GTO integral calculation        ...        2.815 sec (=   0.047 min)   1.9 %
SCF iterations                  ...       14.751 sec (=   0.246 min)   9.8 %
MDCI module                     ...      132.254 sec (=   2.204 min)  88.3 %
                             ****ORCA TERMINATED NORMALLY****
TOTAL RUN TIME: 0 days 0 hours 2 minutes 30 seconds 170 msec
N_methylformamidine_cis.gbw -> /home1/pantazis/klk/xyz/Nitrogen_compounds/N_methylformamidine_cis.gbw
N_methylformamidine_cis.job -> /home1/pantazis/klk/xyz/Nitrogen_compounds/N_methylformamidine_cis.job
N_methylformamidine_cis.loc -> /home1/pantazis/klk/xyz/Nitrogen_compounds/N_methylformamidine_cis.loc
N_methylformamidine_cis.nodes -> /home1/pantazis/klk/xyz/Nitrogen_compounds/N_methylformamidine_cis.nodes
N_methylformamidine_cis.prop -> /home1/pantazis/klk/xyz/Nitrogen_compounds/N_methylformamidine_cis.prop
N_methylformamidine_cis_property.txt -> /home1/pantazis/klk/xyz/Nitrogen_compounds/N_methylformamidine_cis_property.txt
N_methylformamidine_cis.xyz -> /home1/pantazis/klk/xyz/Nitrogen_compounds/N_methylformamidine_cis.xyz
cp: cannot stat N_methylformamidine_cis.asa.inp: No such file or directory
