! Job execution by suborca V 6.07 on ZEUS !
Job started from zeus1, running /scratch/pantazis/N_methylpyrrolidine__e96N15/orca/orca copied from /opt/orca on zeussn124 in /scratch/pantazis/N_methylpyrrolidine__e96N15
Job execution start: Fri Jun 28 02:21:29 CEST 2019
Shared library path: /scratch/pantazis/N_methylpyrrolidine__e96N15/orca:/opt/openmpi_1.10.2/lib:/opt/intel/mkl/lib/intel64:/opt/intel/lib/intel64:
PBS Job ID is: 158333.icqc
izeussn124
izeussn124
izeussn124
izeussn124
izeussn124
izeussn124
izeussn124
izeussn124

                                 *****************
                                 * O   R   C   A *
                                 *****************

           --- An Ab Initio, DFT and Semiempirical electronic structure package ---

                  #######################################################
                  #                        -***-                        #
                  #          Department of theory and spectroscopy      #
                  #               Directorship: Frank Neese             #
                  #        Max Planck Institute fuer Kohlenforschung    #
                  #                Kaiser Wilhelm Platz 1               #
                  #                 D-45470 Muelheim/Ruhr               #
                  #                      Germany                        #
                  #                                                     #
                  #                  All rights reserved                #
                  #                        -***-                        #
                  #######################################################


                         Program Version 4.1.x  -  STABLE  -
                                (SVN: $Rev: 14094$)
                ($Date: 2019-06-14 15:01:15 +0200 (Fri, 14 Jun 2019) $)

                         (BUILD: $Sun Jun 23 06:18:31 CEST 2019$)


 With contributions from (in alphabetic order):
   Daniel Aravena         : Magnetic Properties
   Michael Atanasov       : Ab Initio Ligand Field Theory
   Alexander A. Auer      : GIAO ZORA
   Ute Becker             : Parallelization
   Giovanni Bistoni       : ED, Open-shell LED
   Martin Brehm           : Molecular dynamics
   Dmytro Bykov           : SCF Hessian
   Vijay G. Chilkuri      : MRCI spin determinant printing
   Dipayan Datta          : RHF DLPNO-CCSD density
   Achintya Kumar Dutta   : EOM-CC, STEOM-CC
   Dmitry Ganyushin       : Spin-Orbit,Spin-Spin,Magnetic field MRCI
   Miquel Garcia          : C-PCM Hessian
   Yang Guo               : DLPNO-NEVPT2, CIM, IAO-localization
   Andreas Hansen         : Spin unrestricted coupled pair/coupled cluster methods
   Benjamin Helmich-Paris : CASSCF linear response (MC-RPA)
   Lee Huntington         : MR-EOM, pCC
   Robert Izsak           : Overlap fitted RIJCOSX, COSX-SCS-MP3, EOM
   Christian Kollmar      : KDIIS, OOCD, Brueckner-CCSD(T), CCSD density
   Simone Kossmann        : Meta GGA functionals, TD-DFT gradient, OOMP2, MP2 Hessian
   Martin Krupicka        : AUTO-CI
   Lucas Lang             : DCDCAS
   Dagmar Lenk            : GEPOL surface, SMD
   Dimitrios Liakos       : Extrapolation schemes; parallel MDCI
   Dimitrios Manganas     : ROCIS; embedding schemes
   Dimitrios Pantazis     : SARC Basis sets
   Taras Petrenko         : DFT Hessian,TD-DFT gradient, ASA, ECA, R-Raman, ABS, FL, XAS/XES, NRVS
   Peter Pinski           : DLPNO-MP2, DLPNO-MP2 Gradient
   Christoph Reimann      : Effective Core Potentials
   Marius Retegan         : Local ZFS, SOC
   Christoph Riplinger    : Optimizer, TS searches, QM/MM, DLPNO-CCSD(T), (RO)-DLPNO pert. Triples
   Tobias Risthaus        : Range-separated hybrids, TD-DFT gradient, RPA, STAB
   Michael Roemelt        : Restricted open shell CIS
   Masaaki Saitow         : Open-shell DLPNO
   Barbara Sandhoefer     : DKH picture change effects
   Avijit Sen             : IP-ROCIS
   Kantharuban Sivalingam : CASSCF convergence, NEVPT2, FIC-MRCI
   Bernardo de Souza      : ESD, SOC TD-DFT
   Georgi Stoychev        : AutoAux, RI-MP2 NMR
   Willem Van den Heuvel  : Paramagnetic NMR
   Boris Wezisla          : Elementary symmetry handling
   Frank Wennmohs         : Technical directorship


 We gratefully acknowledge several colleagues who have allowed us to
 interface, adapt or use parts of their codes:
   Stefan Grimme, W. Hujo, H. Kruse,             : VdW corrections, initial TS optimization,
                  C. Bannwarth                     DFT functionals, gCP, sTDA/sTD-DF
   Ed Valeev                                     : LibInt (2-el integral package), F12 methods
   Garnet Chan, S. Sharma, J. Yang, R. Olivares  : DMRG
   Ulf Ekstrom                                   : XCFun DFT Library
   Mihaly Kallay                                 : mrcc  (arbitrary order and MRCC methods)
   Andreas Klamt, Michael Diedenhofen            : otool_cosmo (COSMO solvation model)
   Jiri Pittner, Ondrej Demel                    : Mk-CCSD
   Frank Weinhold                                : gennbo (NPA and NBO analysis)
   Christopher J. Cramer and Donald G. Truhlar   : smd solvation model
   Lars Goerigk                                  : TD-DFT with DH, B97 family of functionals
   V. Asgeirsson, H. Jonsson                     : NEB implementation
   FAccTs GmbH                                   : IRC, NEB, NEB-TS, Multilevel


 Your calculation uses the libint2 library for the computation of 2-el integrals
 For citations please refer to: http://libint.valeyev.net

 This ORCA versions uses:
   CBLAS   interface :  Fast vector & matrix operations
   LAPACKE interface :  Fast linear algebra routines
   SCALAPACK package :  Parallel linear algebra routines




***************************************
The coordinates will be read from file: N_methylpyrrolidine.xyz
***************************************


----- Orbital basis set information -----
Your calculation utilizes the basis: cc-pVTZ 
       H, B-Ne : Obtained from the ccRepo (grant-hill.group.shef.ac.uk/ccrepo) Feb. 2017
                 T. H. Dunning, Jr., J. Chem. Phys. 90, 1007 (1989)
            He : Obtained from the ccRepo (grant-hill.group.shef.ac.uk/ccrepo) Feb. 2017
                 D. E. Woon, T. H. Dunning, Jr., J. Chem. Phys. 100, 2975 (1994)
  Li-Be, Na-Mg : Obtained from the ccRepo (grant-hill.group.shef.ac.uk/ccrepo) Feb. 2017
                 B. P. Prascher, D. E. Woon, K. A. Peterson, T. H. Dunning, Jr., A. K. Wilson, Theor. Chem. Acc. 128, 69 (2011)
         Al-Ar : Obtained from the ccRepo (grant-hill.group.shef.ac.uk/ccrepo) Feb. 2017
                 D. E. Woon, T. H. Dunning, Jr., J. Chem. Phys. 98, 1358 (1993)
            Ca : Obtained from the Peterson Research Group Website (tyr0.chem.wsu.edu/~kipeters) Feb. 2017
                 J. Koput, K. A. Peterson, J. Phys. Chem. 106, 9595 (2002)
         Sc-Zn : Obtained from the ccRepo (grant-hill.group.shef.ac.uk/ccrepo) Feb. 2017
                 N. B. Balabanov, K. A. Peterson, J. Chem. Phys. 123, 064107 (2005)
                 N. B. Balabanov, K. A. Peterson, J. Chem. Phys. 125, 074110 (2006)
         Ga-Kr : Obtained from the ccRepo (grant-hill.group.shef.ac.uk/ccrepo) Feb. 2017
                 A. K. Wilson, D. E. Woon, K. A. Peterson, T. H. Dunning, Jr., J. Chem. Phys. 110, 7667 (1999)
             Y : Obtained from the ccRepo (grant-hill.group.shef.ac.uk/ccrepo) Feb. 2017
                 K. A. Peterson, D. Figgen, M. Dolg, H. Stoll, J. Chem. Phys. 126, 124101 (2007)
        Ag, Au : Obtained from the Peterson Research Group Website (tyr0.chem.wsu.edu/~kipeters) Feb. 2017
                 K. A. Peterson, C. Puzzarini, Theor. Chem. Acc. 114, 283 (2005)

----- AuxC basis set information -----
Your calculation utilizes the auxiliary basis: cc-pVTZ/C 
  Obtained from the EMSL Basis Set Exchange (bse.pnl.gov) Feb. 2017
  H-He, B-F, Al-Ar, Ga-Kr : F. Weigend, A. Kohn, C. Hattig, J. Chem. Phys. 116, 3175 (2002)
             Li-Be, Na-Mg : C. Haettig, Phys. Chem. Chem. Phys. 7, 59 (2005)
                       Ne : C. Haettig, Phys. Chem. Chem. Phys. 7, 59 (2005)
                            F. Weigend, A. Kohn, C. Hattig, J. Chem. Phys. 116, 3175 (2002)
                    Sc-Zn : J. G. Hill, J. A. Platts, J. Chem. Phys. 128, 044104 (2008)

----- AuxJK basis set information -----
Your calculation utilizes the auxiliary basis: cc-pVTZ/JK 
  H, B-F, Al-Cl, Ga-Br : Obtained from the TURBOMOLE 7.0 basis set library

================================================================================
                                        WARNINGS
                       Please study these warnings very carefully!
================================================================================


WARNING: MDCI localization with Augmented Hessian Foster-Boys
  ===> : Switching off randomization!

WARNING: Post HF methods need fully converged wavefunctions
  ===> : Setting SCFConvForced true
         You can overwrite this default with %scf ConvForced false 


INFO   : the flag for use of LIBINT has been found!

================================================================================
                                       INPUT FILE
================================================================================
NAME = N_methylpyrrolidine.inp
|  1> ! RHF DLPNO-CCSD(T) cc-pVTZ RIJK cc-pVTZ/JK cc-pVTZ/C
|  2> ! KDIIS SOSCF TightSCF TightPNO
|  3> 
|  4> %pal nprocs 8 end
|  5> 
|  6> %maxcore 8000
|  7> 
|  8> %scf maxiter 300
|  9>      shift shift 0.2 erroff 0.1 end
| 10> end
| 11> 
| 12> * xyzfile 0 1 N_methylpyrrolidine.xyz 
| 13> 
| 14> 
| 15>                          ****END OF INPUT****
================================================================================

                       ****************************
                       * Single Point Calculation *
                       ****************************

---------------------------------
CARTESIAN COORDINATES (ANGSTROEM)
---------------------------------
  C     -1.490570    0.770310   -0.058760
  C     -1.490580   -0.770310   -0.058750
  C     -0.018070   -1.149230    0.161950
  C     -0.018060    1.149230    0.161950
  N      0.708060    0.000000   -0.334360
  C      2.119900   -0.000000   -0.024480
  H     -1.846110   -1.156740   -1.044160
  H     -2.147030   -1.193870    0.738370
  H      0.275030   -2.073610   -0.388860
  H      0.181530   -1.292920    1.251340
  H      0.181530    1.292920    1.251350
  H      0.275040    2.073620   -0.388850
  H      2.298610    0.000000    1.075660
  H      2.601180   -0.900110   -0.469980
  H      2.601180    0.900110   -0.469980
  H     -2.147040    1.193890    0.738340
  H     -1.846100    1.156730   -1.044190

----------------------------
CARTESIAN COORDINATES (A.U.)
----------------------------
  NO LB      ZA    FRAG     MASS         X           Y           Z
   0 C     6.0000    0    12.011   -2.816769    1.455675   -0.111040
   1 C     6.0000    0    12.011   -2.816788   -1.455675   -0.111021
   2 C     6.0000    0    12.011   -0.034147   -2.171730    0.306041
   3 C     6.0000    0    12.011   -0.034128    2.171730    0.306041
   4 N     7.0000    0    14.007    1.338039    0.000000   -0.631849
   5 C     6.0000    0    12.011    4.006030   -0.000000   -0.046260
   6 H     1.0000    0     1.008   -3.488642   -2.185922   -1.973176
   7 H     1.0000    0     1.008   -4.057299   -2.256087    1.395317
   8 H     1.0000    0     1.008    0.519731   -3.918555   -0.734839
   9 H     1.0000    0     1.008    0.343042   -2.443265    2.364690
  10 H     1.0000    0     1.008    0.343042    2.443265    2.364709
  11 H     1.0000    0     1.008    0.519750    3.918574   -0.734820
  12 H     1.0000    0     1.008    4.343743    0.000000    2.032703
  13 H     1.0000    0     1.008    4.915518   -1.700961   -0.888133
  14 H     1.0000    0     1.008    4.915518    1.700961   -0.888133
  15 H     1.0000    0     1.008   -4.057318    2.256125    1.395260
  16 H     1.0000    0     1.008   -3.488623    2.185903   -1.973233

--------------------------------
INTERNAL COORDINATES (ANGSTROEM)
--------------------------------
 C      0   0   0     0.000000000000     0.00000000     0.00000000
 C      1   0   0     1.540620000065     0.00000000     0.00000000
 C      2   1   0     1.536416140406   104.27762656     0.00000000
 C      1   2   3     1.536417576898   104.27823826     0.00000000
 N      4   1   2     1.447170848034   103.63667883    25.18490986
 C      5   4   1     1.445447266420   114.61773720   190.49219623
 H      2   1   3     1.116585238081   110.24763259   241.63709550
 H      2   1   3     1.116122739890   112.30276240   120.94842216
 H      3   2   1     1.115247797801   112.66560259   214.85736233
 H      3   2   1     1.116806853579   110.06834176    92.77318570
 H      4   1   2     1.116814820908   110.06811513   267.22768639
 H      4   1   2     1.115251147545   112.66552605   145.14422974
 H      6   5   4     1.114560578748   111.60606158    60.87010983
 H      6   5   4     1.113686984974   109.65430102   181.75209493
 H      6   5   4     1.113686984974   109.65430102   299.98812473
 H      1   2   3     1.116127809572   112.30271835   239.04997422
 H      1   2   3     1.116599427816   110.24726431   118.36288446

---------------------------
INTERNAL COORDINATES (A.U.)
---------------------------
 C      0   0   0     0.000000000000     0.00000000     0.00000000
 C      1   0   0     2.911349876564     0.00000000     0.00000000
 C      2   1   0     2.903405733104   104.27762656     0.00000000
 C      1   2   3     2.903408447679   104.27823826     0.00000000
 N      4   1   2     2.734756571779   103.63667883    25.18490986
 C      5   4   1     2.731499474558   114.61773720   190.49219623
 H      2   1   3     2.110040305152   110.24763259   241.63709550
 H      2   1   3     2.109166310234   112.30276240   120.94842216
 H      3   2   1     2.107512909303   112.66560259   214.85736233
 H      3   2   1     2.110459097750   110.06834176    92.77318570
 H      4   1   2     2.110474153821   110.06811513   267.22768639
 H      4   1   2     2.107519239401   112.66552605   145.14422974
 H      6   5   4     2.106214253499   111.60606158    60.87010983
 H      6   5   4     2.104563400513   109.65430102   181.75209493
 H      6   5   4     2.104563400513   109.65430102   299.98812473
 H      1   2   3     2.109175890544   112.30271835   239.04997422
 H      1   2   3     2.110067119866   110.24726431   118.36288446

---------------------
BASIS SET INFORMATION
---------------------
There are 3 groups of distinct atoms

 Group   1 Type C   : 18s5p2d1f contracted to 4s3p2d1f pattern {8811/311/11/1}
 Group   2 Type N   : 18s5p2d1f contracted to 4s3p2d1f pattern {8811/311/11/1}
 Group   3 Type H   : 5s2p1d contracted to 3s2p1d pattern {311/11/1}

Atom   0C    basis set group =>   1
Atom   1C    basis set group =>   1
Atom   2C    basis set group =>   1
Atom   3C    basis set group =>   1
Atom   4N    basis set group =>   2
Atom   5C    basis set group =>   1
Atom   6H    basis set group =>   3
Atom   7H    basis set group =>   3
Atom   8H    basis set group =>   3
Atom   9H    basis set group =>   3
Atom  10H    basis set group =>   3
Atom  11H    basis set group =>   3
Atom  12H    basis set group =>   3
Atom  13H    basis set group =>   3
Atom  14H    basis set group =>   3
Atom  15H    basis set group =>   3
Atom  16H    basis set group =>   3
-------------------------------
AUXILIARY BASIS SET INFORMATION
-------------------------------
There are 3 groups of distinct atoms

 Group   1 Type C   : 8s6p5d3f1g contracted to 8s6p5d3f1g pattern {11111111/111111/11111/111/1}
 Group   2 Type N   : 8s6p5d3f1g contracted to 8s6p5d3f1g pattern {11111111/111111/11111/111/1}
 Group   3 Type H   : 4s3p2d1f contracted to 4s3p2d1f pattern {1111/111/11/1}

Atom   0C    basis set group =>   1
Atom   1C    basis set group =>   1
Atom   2C    basis set group =>   1
Atom   3C    basis set group =>   1
Atom   4N    basis set group =>   2
Atom   5C    basis set group =>   1
Atom   6H    basis set group =>   3
Atom   7H    basis set group =>   3
Atom   8H    basis set group =>   3
Atom   9H    basis set group =>   3
Atom  10H    basis set group =>   3
Atom  11H    basis set group =>   3
Atom  12H    basis set group =>   3
Atom  13H    basis set group =>   3
Atom  14H    basis set group =>   3
Atom  15H    basis set group =>   3
Atom  16H    basis set group =>   3
-------------------------------
AUXILIARY BASIS SET INFORMATION
-------------------------------
There are 3 groups of distinct atoms

 Group   1 Type C   : 10s7p5d2f1g contracted to 10s7p5d2f1g pattern {1111111111/1111111/11111/11/1}
 Group   2 Type N   : 10s7p5d2f1g contracted to 10s7p5d2f1g pattern {1111111111/1111111/11111/11/1}
 Group   3 Type H   : 4s3p2d1f contracted to 4s3p2d1f pattern {1111/111/11/1}

Atom   0C    basis set group =>   1
Atom   1C    basis set group =>   1
Atom   2C    basis set group =>   1
Atom   3C    basis set group =>   1
Atom   4N    basis set group =>   2
Atom   5C    basis set group =>   1
Atom   6H    basis set group =>   3
Atom   7H    basis set group =>   3
Atom   8H    basis set group =>   3
Atom   9H    basis set group =>   3
Atom  10H    basis set group =>   3
Atom  11H    basis set group =>   3
Atom  12H    basis set group =>   3
Atom  13H    basis set group =>   3
Atom  14H    basis set group =>   3
Atom  15H    basis set group =>   3
Atom  16H    basis set group =>   3


           ************************************************************
           *        Program running with 8 parallel MPI-processes     *
           *              working on a common directory               *
           ************************************************************
------------------------------------------------------------------------------
                           ORCA GTO INTEGRAL CALCULATION
                           -- RI-GTO INTEGRALS CHOSEN --
------------------------------------------------------------------------------

                         BASIS SET STATISTICS AND STARTUP INFO

Gaussian basis set:
 # of primitive gaussian shells          ...  244
 # of primitive gaussian functions       ...  476
 # of contracted shells                  ...  126
 # of contracted basis functions         ...  334
 Highest angular momentum                ...    3
 Maximum contraction depth               ...    8
Auxiliary gaussian basis set:
 # of primitive gaussian shells          ...  260
 # of primitive gaussian functions       ...  804
 # of contracted shells                  ...  260
 # of contracted aux-basis functions     ...  804
 Highest angular momentum                ...    4
 Maximum contraction depth               ...    1
Ratio of auxiliary to basis functions    ...  2.41
Integral package used                  ... LIBINT
 One Electron integrals                  ... done
 Ordering auxiliary basis shells         ... done
 Integral threshhold             Thresh  ...  2.500e-11
 Primitive cut-off               TCut    ...  2.500e-12
 Pre-screening matrix                    ... done
 Shell pair data                         ... 
 Ordering of the shell pairs             ... done (   0.001 sec) 7731 of 8001 pairs
 Determination of significant pairs      ... done (   0.000 sec)
 Creation of shell pair data             ... done (   0.002 sec)
 Storage of shell pair data              ... done (   0.002 sec)
 Shell pair data done in (   0.005 sec)
 Computing two index integrals           ... done
 Cholesky decomposition of the V-matrix  ... done


Timings:
 Total evaluation time                   ...   0.474 sec (  0.008 min)
 One electron matrix time                ...   0.097 sec (  0.002 min) = 20.4%
 Schwartz matrix evaluation time         ...   0.235 sec (  0.004 min) = 49.5%
 Two index repulsion integral time       ...   0.060 sec (  0.001 min) = 12.6%
 Cholesky decomposition of V             ...   0.052 sec (  0.001 min) = 11.0%
 Three index repulsion integral time     ...   0.000 sec (  0.000 min) =  0.0%



           ************************************************************
           *        Program running with 8 parallel MPI-processes     *
           *              working on a common directory               *
           ************************************************************
-------------------------------------------------------------------------------
                                 ORCA SCF
-------------------------------------------------------------------------------

------------
SCF SETTINGS
------------
Hamiltonian:
 Ab initio Hamiltonian  Method          .... Hartree-Fock(GTOs)
 RI-approximation to the Coulomb term is turned on
   Number of auxiliary basis functions  .... 804
   RI-JK (J+K treated both via RI)      .... on


General Settings:
 Integral files         IntName         .... N_methylpyrrolidine
 Hartree-Fock type      HFTyp           .... RHF
 Total Charge           Charge          ....    0
 Multiplicity           Mult            ....    1
 Number of Electrons    NEL             ....   48
 Basis Dimension        Dim             ....  334
 Nuclear Repulsion      ENuc            ....    258.3669755301 Eh

Convergence Acceleration:
 DIIS                   CNVDIIS         .... off
 Newton-Raphson         CNVNR           .... off
 SOSCF                  CNVSOSCF        .... on
   Start iteration      SOSCFMaxIt      ....   150
   Startup grad/error   SOSCFStart      ....  0.003300
 Level Shifting         CNVShift        .... on
   Level shift para.    LevelShift      ....    0.2000
   Turn off err/grad.   ShiftErr        ....    0.1000
 Zerner damping         CNVZerner       .... off
 Static damping         CNVDamp         .... off
 Fernandez-Rico         CNVRico         .... off

SCF Procedure:
 Maximum # iterations   MaxIter         ....   300
 SCF integral mode      SCFMode         .... Direct
   Integral package                     .... LIBINT
 Reset frequency        DirectResetFreq ....    20
 Integral Threshold     Thresh          ....  2.500e-11 Eh
 Primitive CutOff       TCut            ....  2.500e-12 Eh

Convergence Tolerance:
 Convergence Check Mode ConvCheckMode   .... Total+1el-Energy
 Convergence forced     ConvForced      .... 1
 Energy Change          TolE            ....  1.000e-08 Eh
 1-El. energy change                    ....  1.000e-05 Eh
 Orbital Gradient       TolG            ....  1.000e-05
 Orbital Rotation angle TolX            ....  1.000e-05


Diagonalization of the overlap matrix:
Smallest eigenvalue                        ... 1.455e-04
Time for diagonalization                   ...    0.022 sec
Threshold for overlap eigenvalues          ... 1.000e-08
Number of eigenvalues below threshold      ... 0
Time for construction of square roots      ...    0.026 sec
Total time needed                          ...    0.049 sec

-------------------
DFT GRID GENERATION
-------------------

General Integration Accuracy     IntAcc      ...  4.340
Radial Grid Type                 RadialGrid  ... Gauss-Chebyshev
Angular Grid (max. acc.)         AngularGrid ... Lebedev-110
Angular grid pruning method      GridPruning ... 3 (G Style)
Weight generation scheme         WeightScheme... Becke
Basis function cutoff            BFCut       ...    1.0000e-11
Integration weight cutoff        WCut        ...    1.0000e-14
Grids for H and He will be reduced by one unit

# of grid points (after initial pruning)     ...  18716 (   0.0 sec)
# of grid points (after weights+screening)   ...  17220 (   0.0 sec)
nearest neighbour list constructed           ...    0.0 sec
Grid point re-assignment to atoms done       ...    0.0 sec
Grid point division into batches done        ...    0.0 sec
Reduced shell lists constructed in    0.1 sec

Total number of grid points                  ...    17220
Total number of batches                      ...      278
Average number of points per batch           ...       61
Average number of grid points per atom       ...     1013
Average number of shells per batch           ...   109.14 (86.62%)
Average number of basis functions per batch  ...   285.36 (85.44%)
Average number of large shells per batch     ...    90.28 (82.72%)
Average number of large basis fcns per batch ...   233.72 (81.90%)
Average number of aux-shells per batch       ...   109.14 (41.98%)
Average number of aux functions per batch    ...   285.36 (35.49%)
Maximum spatial batch extension              ...   3.92,  3.77,  2.94 au
Average spatial batch extension              ...   0.19,  0.20,  0.18 au

Time for grid setup =    0.126 sec

------------------------------
INITIAL GUESS: MODEL POTENTIAL
------------------------------
Loading Hartree-Fock densities                     ... done
Calculating cut-offs                               ... done
Setting up the integral package                    ... done
Initializing the effective Hamiltonian             ... done
Starting the Coulomb interaction                   ... done (   0.0 sec)
Reading the grid                                   ... done
Mapping shells                                     ... done
Starting the XC term evaluation                    ... done (   0.1 sec)
Transforming the Hamiltonian                       ... done (   0.0 sec)
Diagonalizing the Hamiltonian                      ... done (   0.0 sec)
Back transforming the eigenvectors                 ... done (   0.0 sec)
Now organizing SCF variables                       ... done
                      ------------------
                      INITIAL GUESS DONE (   0.4 sec)
                      ------------------
--------------
SCF ITERATIONS
--------------
ITER       Energy         Delta-E        Max-DP      RMS-DP      [F,P]   Gradient Norm
                             ****Turning on KDIIS(Cayley)****
  0   -249.9310309329   0.000000000000 0.01613367  0.00026026  0.1233077   0.147070533
  1   -250.0241560560  -0.093125123139 0.01786491  0.00029044  0.1131280   0.127536646
  2   -250.1009613276  -0.076805271613 0.02927494  0.00049661  0.0908462   0.103624740
  3   -250.1951210283  -0.094159700688 0.04507493  0.00079739  0.0552376   0.063967377
                      *** Initiating the SOSCF procedure ***
                           *** Shutting down KDIIS ***
                      *** Re-Reading the Fockian *** 
                      *** Removing any level shift *** 
ITER      Energy       Delta-E        Grad      Rot      Max-DP    RMS-DP
  4   -250.25690543  -0.0617844048  0.002645  0.002645  0.002017  0.000068
  5   -250.25729149  -0.0003860600  0.001038  0.001183  0.001364  0.000043
  6   -250.25733340  -0.0000419112  0.000535  0.000401  0.000786  0.000018
  7   -250.25734779  -0.0000143891  0.000067  0.000100  0.000275  0.000007
  8   -250.25734820  -0.0000004101  0.000037  0.000034  0.000102  0.000003
  9   -250.25734830  -0.0000000975  0.000007  0.000008  0.000027  0.000001
 10   -250.25734831  -0.0000000045  0.000003  0.000003  0.000013  0.000000
                  ***Gradient check signals convergence***
              ***Rediagonalizing the Fockian in SOSCF/NRSCF***

               *****************************************************
               *                     SUCCESS                       *
               *           SCF CONVERGED AFTER  11 CYCLES          *
               *****************************************************


----------------
TOTAL SCF ENERGY
----------------

Total Energy       :         -250.25734831 Eh           -6809.84865 eV

Components:
Nuclear Repulsion  :          258.36697553 Eh            7030.52283 eV
Electronic Energy  :         -508.62432384 Eh          -13840.37148 eV
One Electron Energy:         -849.76540008 Eh          -23123.29210 eV
Two Electron Energy:          341.14107624 Eh            9282.92062 eV

Virial components:
Potential Energy   :         -499.92720944 Eh          -13603.71097 eV
Kinetic Energy     :          249.66986114 Eh            6793.86231 eV
Virial Ratio       :            2.00235306


---------------
SCF CONVERGENCE
---------------

  Last Energy change         ...   -5.9276e-10  Tolerance :   1.0000e-08
  Last MAX-Density change    ...    3.7866e-06  Tolerance :   1.0000e-07
  Last RMS-Density change    ...    8.1303e-08  Tolerance :   5.0000e-09
  Last Orbital Gradient      ...    9.4146e-07  Tolerance :   1.0000e-05
  Last Orbital Rotation      ...    1.6965e-06  Tolerance :   1.0000e-05

             **** THE GBW FILE WAS UPDATED (N_methylpyrrolidine.gbw) ****
             **** DENSITY FILE WAS UPDATED (N_methylpyrrolidine.scfp.tmp) ****
             **** ENERGY FILE WAS UPDATED (N_methylpyrrolidine.en.tmp) ****
----------------
ORBITAL ENERGIES
----------------

  NO   OCC          E(Eh)            E(eV) 
   0   2.0000     -15.537570      -422.7988 
   1   2.0000     -11.245063      -305.9937 
   2   2.0000     -11.245044      -305.9932 
   3   2.0000     -11.244900      -305.9893 
   4   2.0000     -11.222106      -305.3690 
   5   2.0000     -11.221527      -305.3533 
   6   2.0000      -1.241586       -33.7853 
   7   2.0000      -1.044627       -28.4257 
   8   2.0000      -0.970282       -26.4027 
   9   2.0000      -0.905349       -24.6358 
  10   2.0000      -0.779357       -21.2074 
  11   2.0000      -0.775400       -21.0997 
  12   2.0000      -0.663872       -18.0649 
  13   2.0000      -0.650443       -17.6994 
  14   2.0000      -0.599174       -16.3043 
  15   2.0000      -0.588621       -16.0172 
  16   2.0000      -0.555151       -15.1064 
  17   2.0000      -0.523562       -14.2468 
  18   2.0000      -0.496612       -13.5135 
  19   2.0000      -0.493984       -13.4420 
  20   2.0000      -0.472571       -12.8593 
  21   2.0000      -0.465362       -12.6632 
  22   2.0000      -0.450177       -12.2499 
  23   2.0000      -0.349301        -9.5050 
  24   0.0000       0.138248         3.7619 
  25   0.0000       0.159586         4.3426 
  26   0.0000       0.172306         4.6887 
  27   0.0000       0.175558         4.7772 
  28   0.0000       0.203960         5.5500 
  29   0.0000       0.208202         5.6655 
  30   0.0000       0.213628         5.8131 
  31   0.0000       0.220391         5.9971 
  32   0.0000       0.245490         6.6801 
  33   0.0000       0.257387         7.0038 
  34   0.0000       0.273438         7.4406 
  35   0.0000       0.277507         7.5513 
  36   0.0000       0.309231         8.4146 
  37   0.0000       0.321094         8.7374 
  38   0.0000       0.333412         9.0726 
  39   0.0000       0.378838        10.3087 
  40   0.0000       0.388274        10.5655 
  41   0.0000       0.412939        11.2366 
  42   0.0000       0.418153        11.3785 
  43   0.0000       0.434101        11.8125 
  44   0.0000       0.435325        11.8458 
  45   0.0000       0.483586        13.1590 
  46   0.0000       0.502780        13.6814 
  47   0.0000       0.523938        14.2571 
  48   0.0000       0.541550        14.7363 
  49   0.0000       0.560634        15.2556 
  50   0.0000       0.572922        15.5900 
  51   0.0000       0.573827        15.6146 
  52   0.0000       0.593781        16.1576 
  53   0.0000       0.608117        16.5477 
  54   0.0000       0.608981        16.5712 
  55   0.0000       0.617092        16.7919 
  56   0.0000       0.619914        16.8687 
  57   0.0000       0.633117        17.2280 
  58   0.0000       0.633737        17.2449 
  59   0.0000       0.640328        17.4242 
  60   0.0000       0.653144        17.7729 
  61   0.0000       0.665649        18.1132 
  62   0.0000       0.676080        18.3971 
  63   0.0000       0.682964        18.5844 
  64   0.0000       0.684727        18.6324 
  65   0.0000       0.709442        19.3049 
  66   0.0000       0.720015        19.5926 
  67   0.0000       0.721060        19.6210 
  68   0.0000       0.785923        21.3861 
  69   0.0000       0.811492        22.0818 
  70   0.0000       0.838965        22.8294 
  71   0.0000       0.875846        23.8330 
  72   0.0000       0.888049        24.1651 
  73   0.0000       0.921271        25.0691 
  74   0.0000       0.922843        25.1118 
  75   0.0000       0.977483        26.5987 
  76   0.0000       0.991201        26.9719 
  77   0.0000       1.036247        28.1977 
  78   0.0000       1.059688        28.8356 
  79   0.0000       1.060445        28.8562 
  80   0.0000       1.090960        29.6865 
  81   0.0000       1.101388        29.9703 
  82   0.0000       1.114547        30.3284 
  83   0.0000       1.127992        30.6942 
  84   0.0000       1.151873        31.3441 
  85   0.0000       1.161134        31.5961 
  86   0.0000       1.179348        32.0917 
  87   0.0000       1.199963        32.6527 
  88   0.0000       1.201819        32.7032 
  89   0.0000       1.214613        33.0513 
  90   0.0000       1.225735        33.3539 
  91   0.0000       1.249105        33.9899 
  92   0.0000       1.253327        34.1048 
  93   0.0000       1.271204        34.5912 
  94   0.0000       1.284830        34.9620 
  95   0.0000       1.289240        35.0820 
  96   0.0000       1.336627        36.3715 
  97   0.0000       1.340418        36.4746 
  98   0.0000       1.353959        36.8431 
  99   0.0000       1.354727        36.8640 
 100   0.0000       1.362104        37.0647 
 101   0.0000       1.384471        37.6734 
 102   0.0000       1.399410        38.0799 
 103   0.0000       1.407276        38.2939 
 104   0.0000       1.412188        38.4276 
 105   0.0000       1.443158        39.2703 
 106   0.0000       1.450403        39.4675 
 107   0.0000       1.451319        39.4924 
 108   0.0000       1.489809        40.5398 
 109   0.0000       1.496085        40.7105 
 110   0.0000       1.512725        41.1633 
 111   0.0000       1.533710        41.7344 
 112   0.0000       1.540551        41.9205 
 113   0.0000       1.549254        42.1573 
 114   0.0000       1.561741        42.4971 
 115   0.0000       1.564470        42.5714 
 116   0.0000       1.591947        43.3191 
 117   0.0000       1.593063        43.3495 
 118   0.0000       1.601616        43.5822 
 119   0.0000       1.605617        43.6911 
 120   0.0000       1.642717        44.7006 
 121   0.0000       1.684726        45.8437 
 122   0.0000       1.693980        46.0955 
 123   0.0000       1.705330        46.4044 
 124   0.0000       1.722232        46.8643 
 125   0.0000       1.749258        47.5997 
 126   0.0000       1.796896        48.8960 
 127   0.0000       1.822721        49.5988 
 128   0.0000       1.837046        49.9886 
 129   0.0000       1.856946        50.5301 
 130   0.0000       1.873271        50.9743 
 131   0.0000       1.893611        51.5278 
 132   0.0000       1.932880        52.5963 
 133   0.0000       1.968684        53.5706 
 134   0.0000       2.049569        55.7716 
 135   0.0000       2.074644        56.4539 
 136   0.0000       2.129250        57.9398 
 137   0.0000       2.210497        60.1507 
 138   0.0000       2.237286        60.8797 
 139   0.0000       2.455035        66.8049 
 140   0.0000       2.567420        69.8630 
 141   0.0000       2.643808        71.9417 
 142   0.0000       2.652690        72.1834 
 143   0.0000       2.702246        73.5319 
 144   0.0000       2.707342        73.6705 
 145   0.0000       2.716101        73.9089 
 146   0.0000       2.740364        74.5691 
 147   0.0000       2.774912        75.5092 
 148   0.0000       2.803151        76.2776 
 149   0.0000       2.827683        76.9452 
 150   0.0000       2.831140        77.0392 
 151   0.0000       2.868318        78.0509 
 152   0.0000       2.896429        78.8158 
 153   0.0000       2.928119        79.6782 
 154   0.0000       2.929933        79.7275 
 155   0.0000       2.952673        80.3463 
 156   0.0000       2.977983        81.0350 
 157   0.0000       2.994408        81.4820 
 158   0.0000       3.012188        81.9658 
 159   0.0000       3.016366        82.0795 
 160   0.0000       3.035591        82.6026 
 161   0.0000       3.075445        83.6871 
 162   0.0000       3.086291        83.9822 
 163   0.0000       3.096568        84.2619 
 164   0.0000       3.105909        84.5161 
 165   0.0000       3.122298        84.9620 
 166   0.0000       3.134421        85.2919 
 167   0.0000       3.146321        85.6158 
 168   0.0000       3.158808        85.9555 
 169   0.0000       3.177718        86.4701 
 170   0.0000       3.205485        87.2257 
 171   0.0000       3.206358        87.2494 
 172   0.0000       3.242782        88.2406 
 173   0.0000       3.261928        88.7616 
 174   0.0000       3.265251        88.8520 
 175   0.0000       3.275767        89.1381 
 176   0.0000       3.323179        90.4283 
 177   0.0000       3.330672        90.6322 
 178   0.0000       3.338233        90.8379 
 179   0.0000       3.342574        90.9561 
 180   0.0000       3.368260        91.6550 
 181   0.0000       3.384548        92.0982 
 182   0.0000       3.386185        92.1428 
 183   0.0000       3.411414        92.8293 
 184   0.0000       3.414755        92.9202 
 185   0.0000       3.440154        93.6113 
 186   0.0000       3.440827        93.6297 
 187   0.0000       3.452427        93.9453 
 188   0.0000       3.454243        93.9947 
 189   0.0000       3.483404        94.7882 
 190   0.0000       3.484371        94.8146 
 191   0.0000       3.505693        95.3947 
 192   0.0000       3.509993        95.5118 
 193   0.0000       3.552215        96.6607 
 194   0.0000       3.568113        97.0933 
 195   0.0000       3.572808        97.2211 
 196   0.0000       3.580715        97.4362 
 197   0.0000       3.617783        98.4449 
 198   0.0000       3.618180        98.4557 
 199   0.0000       3.640100        99.0522 
 200   0.0000       3.656876        99.5087 
 201   0.0000       3.688422       100.3671 
 202   0.0000       3.690642       100.4275 
 203   0.0000       3.704795       100.8126 
 204   0.0000       3.714896       101.0875 
 205   0.0000       3.725063       101.3641 
 206   0.0000       3.742667       101.8431 
 207   0.0000       3.774084       102.6980 
 208   0.0000       3.785766       103.0159 
 209   0.0000       3.819110       103.9233 
 210   0.0000       3.839928       104.4897 
 211   0.0000       3.844455       104.6129 
 212   0.0000       3.873751       105.4101 
 213   0.0000       3.879545       105.5678 
 214   0.0000       3.888327       105.8068 
 215   0.0000       3.895700       106.0074 
 216   0.0000       3.922733       106.7430 
 217   0.0000       3.935174       107.0815 
 218   0.0000       3.940349       107.2223 
 219   0.0000       3.963104       107.8415 
 220   0.0000       3.963694       107.8576 
 221   0.0000       3.993353       108.6647 
 222   0.0000       4.024792       109.5201 
 223   0.0000       4.039806       109.9287 
 224   0.0000       4.055768       110.3631 
 225   0.0000       4.063815       110.5820 
 226   0.0000       4.075731       110.9063 
 227   0.0000       4.129336       112.3650 
 228   0.0000       4.130579       112.3988 
 229   0.0000       4.137901       112.5980 
 230   0.0000       4.145810       112.8132 
 231   0.0000       4.180333       113.7526 
 232   0.0000       4.189924       114.0136 
 233   0.0000       4.190592       114.0318 
 234   0.0000       4.213755       114.6621 
 235   0.0000       4.245673       115.5306 
 236   0.0000       4.265773       116.0776 
 237   0.0000       4.279044       116.4387 
 238   0.0000       4.280273       116.4721 
 239   0.0000       4.300368       117.0190 
 240   0.0000       4.310138       117.2848 
 241   0.0000       4.334840       117.9570 
 242   0.0000       4.342677       118.1703 
 243   0.0000       4.348486       118.3283 
 244   0.0000       4.352366       118.4339 
 245   0.0000       4.394911       119.5916 
 246   0.0000       4.395212       119.5998 
 247   0.0000       4.435009       120.6827 
 248   0.0000       4.448296       121.0443 
 249   0.0000       4.453089       121.1747 
 250   0.0000       4.461097       121.3926 
 251   0.0000       4.485262       122.0502 
 252   0.0000       4.491503       122.2200 
 253   0.0000       4.529284       123.2481 
 254   0.0000       4.529694       123.2592 
 255   0.0000       4.538851       123.5084 
 256   0.0000       4.583522       124.7240 
 257   0.0000       4.590504       124.9140 
 258   0.0000       4.621494       125.7572 
 259   0.0000       4.640309       126.2692 
 260   0.0000       4.650792       126.5545 
 261   0.0000       4.675142       127.2171 
 262   0.0000       4.680470       127.3621 
 263   0.0000       4.696117       127.7878 
 264   0.0000       4.736237       128.8796 
 265   0.0000       4.737913       128.9252 
 266   0.0000       4.753970       129.3621 
 267   0.0000       4.792498       130.4105 
 268   0.0000       4.822547       131.2282 
 269   0.0000       4.836928       131.6195 
 270   0.0000       4.886699       132.9738 
 271   0.0000       4.905561       133.4871 
 272   0.0000       4.959478       134.9542 
 273   0.0000       4.961710       135.0150 
 274   0.0000       4.964733       135.0972 
 275   0.0000       5.034663       137.0001 
 276   0.0000       5.034739       137.0022 
 277   0.0000       5.105479       138.9271 
 278   0.0000       5.120672       139.3406 
 279   0.0000       5.142129       139.9245 
 280   0.0000       5.157195       140.3344 
 281   0.0000       5.171566       140.7255 
 282   0.0000       5.189359       141.2097 
 283   0.0000       5.244226       142.7026 
 284   0.0000       5.277521       143.6086 
 285   0.0000       5.281479       143.7164 
 286   0.0000       5.303442       144.3140 
 287   0.0000       5.318894       144.7345 
 288   0.0000       5.332189       145.0962 
 289   0.0000       5.352974       145.6618 
 290   0.0000       5.413801       147.3170 
 291   0.0000       5.429295       147.7386 
 292   0.0000       5.442837       148.1071 
 293   0.0000       5.454864       148.4344 
 294   0.0000       5.476361       149.0193 
 295   0.0000       5.482457       149.1852 
 296   0.0000       5.501188       149.6949 
 297   0.0000       5.531508       150.5200 
 298   0.0000       5.537453       150.6818 
 299   0.0000       5.572605       151.6383 
 300   0.0000       5.579252       151.8192 
 301   0.0000       5.606121       152.5503 
 302   0.0000       5.633886       153.3058 
 303   0.0000       5.653445       153.8381 
 304   0.0000       5.670756       154.3091 
 305   0.0000       5.710776       155.3981 
 306   0.0000       5.733119       156.0061 
 307   0.0000       5.781209       157.3147 
 308   0.0000       5.819321       158.3518 
 309   0.0000       5.838671       158.8783 
 310   0.0000       5.883643       160.1021 
 311   0.0000       5.922895       161.1702 
 312   0.0000       5.968839       162.4204 
 313   0.0000       5.997911       163.2115 
 314   0.0000       6.004357       163.3869 
 315   0.0000       6.134352       166.9242 
 316   0.0000       6.162127       167.6800 
 317   0.0000       6.173491       167.9892 
 318   0.0000       6.206904       168.8984 
 319   0.0000       6.287510       171.0919 
 320   0.0000       6.290289       171.1675 
 321   0.0000       6.321518       172.0173 
 322   0.0000       6.341697       172.5663 
 323   0.0000       6.367078       173.2570 
 324   0.0000       6.389634       173.8708 
 325   0.0000       6.445152       175.3815 
 326   0.0000       6.458649       175.7488 
 327   0.0000       6.528690       177.6547 
 328   0.0000      10.770773       293.0876 
 329   0.0000      11.687663       318.0375 
 330   0.0000      12.630501       343.6934 
 331   0.0000      13.472989       366.6187 
 332   0.0000      13.856249       377.0477 
 333   0.0000      14.034262       381.8917 

                    ********************************
                    * MULLIKEN POPULATION ANALYSIS *
                    ********************************

-----------------------
MULLIKEN ATOMIC CHARGES
-----------------------
   0 C :   -0.178989
   1 C :   -0.178994
   2 C :   -0.064457
   3 C :   -0.064454
   4 N :   -0.214747
   5 C :   -0.171354
   6 H :    0.091336
   7 H :    0.091863
   8 H :    0.087305
   9 H :    0.050409
  10 H :    0.050405
  11 H :    0.087305
  12 H :    0.052997
  13 H :    0.089093
  14 H :    0.089093
  15 H :    0.091861
  16 H :    0.091329
Sum of atomic charges:   -0.0000000

--------------------------------
MULLIKEN REDUCED ORBITAL CHARGES
--------------------------------
  0 C s       :     3.221654  s :     3.221654
      pz      :     1.007125  p :     2.845471
      px      :     0.925651
      py      :     0.912694
      dz2     :     0.017377  d :     0.104880
      dxz     :     0.022843
      dyz     :     0.020209
      dx2y2   :     0.023106
      dxy     :     0.021345
      f0      :     0.000623  f :     0.006985
      f+1     :     0.001166
      f-1     :     0.000996
      f+2     :     0.000759
      f-2     :     0.000403
      f+3     :     0.001498
      f-3     :     0.001541
  1 C s       :     3.221653  s :     3.221653
      pz      :     1.007130  p :     2.845477
      px      :     0.925652
      py      :     0.912694
      dz2     :     0.017377  d :     0.104880
      dxz     :     0.022843
      dyz     :     0.020209
      dx2y2   :     0.023106
      dxy     :     0.021345
      f0      :     0.000623  f :     0.006985
      f+1     :     0.001166
      f-1     :     0.000996
      f+2     :     0.000759
      f-2     :     0.000403
      f+3     :     0.001498
      f-3     :     0.001541
  2 C s       :     3.192945  s :     3.192945
      pz      :     0.947701  p :     2.721313
      px      :     0.879044
      py      :     0.894568
      dz2     :     0.033045  d :     0.140293
      dxz     :     0.020068
      dyz     :     0.026310
      dx2y2   :     0.029840
      dxy     :     0.031031
      f0      :     0.001569  f :     0.009905
      f+1     :     0.000990
      f-1     :     0.001341
      f+2     :     0.001078
      f-2     :     0.001153
      f+3     :     0.001921
      f-3     :     0.001853
  3 C s       :     3.192945  s :     3.192945
      pz      :     0.947698  p :     2.721310
      px      :     0.879044
      py      :     0.894568
      dz2     :     0.033045  d :     0.140294
      dxz     :     0.020067
      dyz     :     0.026310
      dx2y2   :     0.029840
      dxy     :     0.031031
      f0      :     0.001569  f :     0.009905
      f+1     :     0.000990
      f-1     :     0.001341
      f+2     :     0.001078
      f-2     :     0.001153
      f+3     :     0.001921
      f-3     :     0.001853
  4 N s       :     3.424695  s :     3.424695
      pz      :     1.643255  p :     3.706081
      px      :     1.021584
      py      :     1.041241
      dz2     :     0.006051  d :     0.079080
      dxz     :     0.014016
      dyz     :     0.015564
      dx2y2   :     0.022232
      dxy     :     0.021218
      f0      :     0.000754  f :     0.004892
      f+1     :     0.000658
      f-1     :     0.000553
      f+2     :     0.000526
      f-2     :     0.000618
      f+3     :     0.000854
      f-3     :     0.000928
  5 C s       :     3.239324  s :     3.239324
      pz      :     0.974356  p :     2.819701
      px      :     0.811971
      py      :     1.033374
      dz2     :     0.022295  d :     0.104736
      dxz     :     0.023130
      dyz     :     0.009436
      dx2y2   :     0.022069
      dxy     :     0.027807
      f0      :     0.001854  f :     0.007593
      f+1     :     0.001257
      f-1     :     0.000084
      f+2     :     0.001346
      f-2     :     0.000241
      f+3     :     0.001657
      f-3     :     0.001155
  6 H s       :     0.877782  s :     0.877782
      pz      :     0.009918  p :     0.028494
      px      :     0.009259
      py      :     0.009316
      dz2     :     0.000622  d :     0.002388
      dxz     :     0.000685
      dyz     :     0.000631
      dx2y2   :     0.000317
      dxy     :     0.000133
  7 H s       :     0.876674  s :     0.876674
      pz      :     0.008303  p :     0.029118
      px      :     0.011240
      py      :     0.009575
      dz2     :     0.000563  d :     0.002345
      dxz     :     0.000492
      dyz     :     0.000420
      dx2y2   :     0.000567
      dxy     :     0.000302
  8 H s       :     0.883003  s :     0.883003
      pz      :     0.007313  p :     0.027321
      px      :     0.008380
      py      :     0.011628
      dz2     :     0.000449  d :     0.002371
      dxz     :     0.000155
      dyz     :     0.000539
      dx2y2   :     0.000596
      dxy     :     0.000632
  9 H s       :     0.922856  s :     0.922856
      pz      :     0.010314  p :     0.024331
      px      :     0.007819
      py      :     0.006199
      dz2     :     0.000725  d :     0.002404
      dxz     :     0.000768
      dyz     :     0.000756
      dx2y2   :     0.000106
      dxy     :     0.000049
 10 H s       :     0.922861  s :     0.922861
      pz      :     0.010314  p :     0.024331
      px      :     0.007818
      py      :     0.006199
      dz2     :     0.000725  d :     0.002404
      dxz     :     0.000768
      dyz     :     0.000756
      dx2y2   :     0.000106
      dxy     :     0.000049
 11 H s       :     0.883003  s :     0.883003
      pz      :     0.007313  p :     0.027321
      px      :     0.008380
      py      :     0.011628
      dz2     :     0.000449  d :     0.002371
      dxz     :     0.000155
      dyz     :     0.000539
      dx2y2   :     0.000596
      dxy     :     0.000632
 12 H s       :     0.922921  s :     0.922921
      pz      :     0.009493  p :     0.021944
      px      :     0.005769
      py      :     0.006681
      dz2     :     0.000763  d :     0.002138
      dxz     :     0.000758
      dyz     :     0.000546
      dx2y2   :     0.000057
      dxy     :     0.000014
 13 H s       :     0.883743  s :     0.883743
      pz      :     0.007829  p :     0.025024
      px      :     0.006662
      py      :     0.010533
      dz2     :     0.000390  d :     0.002139
      dxz     :     0.000201
      dyz     :     0.000411
      dx2y2   :     0.000547
      dxy     :     0.000591
 14 H s       :     0.883743  s :     0.883743
      pz      :     0.007829  p :     0.025024
      px      :     0.006662
      py      :     0.010533
      dz2     :     0.000390  d :     0.002139
      dxz     :     0.000201
      dyz     :     0.000411
      dx2y2   :     0.000547
      dxy     :     0.000591
 15 H s       :     0.876677  s :     0.876677
      pz      :     0.008303  p :     0.029118
      px      :     0.011240
      py      :     0.009575
      dz2     :     0.000563  d :     0.002344
      dxz     :     0.000492
      dyz     :     0.000420
      dx2y2   :     0.000567
      dxy     :     0.000302
 16 H s       :     0.877790  s :     0.877790
      pz      :     0.009919  p :     0.028493
      px      :     0.009259
      py      :     0.009316
      dz2     :     0.000622  d :     0.002388
      dxz     :     0.000685
      dyz     :     0.000631
      dx2y2   :     0.000317
      dxy     :     0.000133


                     *******************************
                     * LOEWDIN POPULATION ANALYSIS *
                     *******************************

----------------------
LOEWDIN ATOMIC CHARGES
----------------------
   0 C :    0.054268
   1 C :    0.054272
   2 C :   -0.025801
   3 C :   -0.025808
   4 N :    0.240727
   5 C :    0.021890
   6 H :   -0.020686
   7 H :   -0.024482
   8 H :   -0.024167
   9 H :   -0.042549
  10 H :   -0.042546
  11 H :   -0.024165
  12 H :   -0.046759
  13 H :   -0.024515
  14 H :   -0.024514
  15 H :   -0.024482
  16 H :   -0.020681

-------------------------------
LOEWDIN REDUCED ORBITAL CHARGES
-------------------------------
  0 C s       :     2.672687  s :     2.672687
      pz      :     0.974413  p :     2.825040
      px      :     0.928786
      py      :     0.921841
      dz2     :     0.060626  d :     0.406524
      dxz     :     0.085303
      dyz     :     0.075507
      dx2y2   :     0.097021
      dxy     :     0.088067
      f0      :     0.003944  f :     0.041481
      f+1     :     0.004992
      f-1     :     0.005027
      f+2     :     0.005446
      f-2     :     0.004522
      f+3     :     0.009841
      f-3     :     0.007709
  1 C s       :     2.672683  s :     2.672683
      pz      :     0.974416  p :     2.825040
      px      :     0.928784
      py      :     0.921840
      dz2     :     0.060626  d :     0.406523
      dxz     :     0.085304
      dyz     :     0.075508
      dx2y2   :     0.097021
      dxy     :     0.088065
      f0      :     0.003944  f :     0.041482
      f+1     :     0.004992
      f-1     :     0.005027
      f+2     :     0.005446
      f-2     :     0.004522
      f+3     :     0.009841
      f-3     :     0.007709
  2 C s       :     2.675414  s :     2.675414
      pz      :     0.961674  p :     2.761739
      px      :     0.906317
      py      :     0.893748
      dz2     :     0.124985  d :     0.526621
      dxz     :     0.072600
      dyz     :     0.101979
      dx2y2   :     0.118491
      dxy     :     0.108567
      f0      :     0.007203  f :     0.062026
      f+1     :     0.006420
      f-1     :     0.006951
      f+2     :     0.008007
      f-2     :     0.010065
      f+3     :     0.011069
      f-3     :     0.012312
  3 C s       :     2.675416  s :     2.675416
      pz      :     0.961672  p :     2.761741
      px      :     0.906318
      py      :     0.893751
      dz2     :     0.124988  d :     0.526624
      dxz     :     0.072599
      dyz     :     0.101979
      dx2y2   :     0.118492
      dxy     :     0.108566
      f0      :     0.007203  f :     0.062027
      f+1     :     0.006420
      f-1     :     0.006951
      f+2     :     0.008007
      f-2     :     0.010065
      f+3     :     0.011069
      f-3     :     0.012313
  4 N s       :     2.894966  s :     2.894966
      pz      :     1.459049  p :     3.559104
      px      :     1.048180
      py      :     1.051874
      dz2     :     0.037227  d :     0.284909
      dxz     :     0.040539
      dyz     :     0.041486
      dx2y2   :     0.080848
      dxy     :     0.084809
      f0      :     0.001011  f :     0.020294
      f+1     :     0.001980
      f-1     :     0.002269
      f+2     :     0.003225
      f-2     :     0.003303
      f+3     :     0.002633
      f-3     :     0.005874
  5 C s       :     2.681572  s :     2.681572
      pz      :     0.983371  p :     2.831432
      px      :     0.852874
      py      :     0.995187
      dz2     :     0.097432  d :     0.417086
      dxz     :     0.108043
      dyz     :     0.032200
      dx2y2   :     0.078163
      dxy     :     0.101248
      f0      :     0.007991  f :     0.048020
      f+1     :     0.006931
      f-1     :     0.000508
      f+2     :     0.011089
      f-2     :     0.004822
      f+3     :     0.009147
      f-3     :     0.007531
  6 H s       :     0.849441  s :     0.849441
      pz      :     0.064976  p :     0.145308
      px      :     0.039925
      py      :     0.040407
      dz2     :     0.008292  d :     0.025938
      dxz     :     0.007052
      dyz     :     0.006760
      dx2y2   :     0.002340
      dxy     :     0.001494
  7 H s       :     0.853515  s :     0.853515
      pz      :     0.054769  p :     0.145195
      px      :     0.048645
      py      :     0.041781
      dz2     :     0.007236  d :     0.025772
      dxz     :     0.005821
      dyz     :     0.004649
      dx2y2   :     0.004511
      dxy     :     0.003556
  8 H s       :     0.860105  s :     0.860105
      pz      :     0.043354  p :     0.138623
      px      :     0.036964
      py      :     0.058305
      dz2     :     0.005152  d :     0.025438
      dxz     :     0.001857
      dyz     :     0.006620
      dx2y2   :     0.005786
      dxy     :     0.006023
  9 H s       :     0.872610  s :     0.872610
      pz      :     0.076169  p :     0.143856
      px      :     0.035585
      py      :     0.032101
      dz2     :     0.009209  d :     0.026083
      dxz     :     0.007713
      dyz     :     0.008125
      dx2y2   :     0.000636
      dxy     :     0.000399
 10 H s       :     0.872611  s :     0.872611
      pz      :     0.076169  p :     0.143853
      px      :     0.035584
      py      :     0.032100
      dz2     :     0.009209  d :     0.026082
      dxz     :     0.007713
      dyz     :     0.008125
      dx2y2   :     0.000636
      dxy     :     0.000399
 11 H s       :     0.860105  s :     0.860105
      pz      :     0.043353  p :     0.138622
      px      :     0.036964
      py      :     0.058305
      dz2     :     0.005152  d :     0.025438
      dxz     :     0.001857
      dyz     :     0.006620
      dx2y2   :     0.005786
      dxy     :     0.006023
 12 H s       :     0.877953  s :     0.877953
      pz      :     0.075943  p :     0.143034
      px      :     0.030060
      py      :     0.037030
      dz2     :     0.008759  d :     0.025772
      dxz     :     0.007782
      dyz     :     0.008649
      dx2y2   :     0.000464
      dxy     :     0.000118
 13 H s       :     0.860364  s :     0.860364
      pz      :     0.041896  p :     0.138724
      px      :     0.036067
      py      :     0.060761
      dz2     :     0.004536  d :     0.025426
      dxz     :     0.002421
      dyz     :     0.005705
      dx2y2   :     0.006682
      dxy     :     0.006083
 14 H s       :     0.860364  s :     0.860364
      pz      :     0.041896  p :     0.138724
      px      :     0.036067
      py      :     0.060761
      dz2     :     0.004536  d :     0.025426
      dxz     :     0.002421
      dyz     :     0.005705
      dx2y2   :     0.006682
      dxy     :     0.006083
 15 H s       :     0.853516  s :     0.853516
      pz      :     0.054768  p :     0.145194
      px      :     0.048645
      py      :     0.041781
      dz2     :     0.007236  d :     0.025771
      dxz     :     0.005821
      dyz     :     0.004649
      dx2y2   :     0.004511
      dxy     :     0.003556
 16 H s       :     0.849442  s :     0.849442
      pz      :     0.064975  p :     0.145303
      px      :     0.039923
      py      :     0.040405
      dz2     :     0.008292  d :     0.025936
      dxz     :     0.007052
      dyz     :     0.006759
      dx2y2   :     0.002339
      dxy     :     0.001494


                      *****************************
                      * MAYER POPULATION ANALYSIS *
                      *****************************

  NA   - Mulliken gross atomic population
  ZA   - Total nuclear charge
  QA   - Mulliken gross atomic charge
  VA   - Mayer's total valence
  BVA  - Mayer's bonded valence
  FA   - Mayer's free valence

  ATOM       NA         ZA         QA         VA         BVA        FA
  0 C      6.1790     6.0000    -0.1790     3.8530     3.8530    -0.0000
  1 C      6.1790     6.0000    -0.1790     3.8530     3.8530     0.0000
  2 C      6.0645     6.0000    -0.0645     3.9105     3.9105     0.0000
  3 C      6.0645     6.0000    -0.0645     3.9105     3.9105     0.0000
  4 N      7.2147     7.0000    -0.2147     2.9303     2.9303    -0.0000
  5 C      6.1714     6.0000    -0.1714     3.9325     3.9325    -0.0000
  6 H      0.9087     1.0000     0.0913     0.9854     0.9854     0.0000
  7 H      0.9081     1.0000     0.0919     0.9875     0.9875     0.0000
  8 H      0.9127     1.0000     0.0873     0.9825     0.9825     0.0000
  9 H      0.9496     1.0000     0.0504     0.9841     0.9841    -0.0000
 10 H      0.9496     1.0000     0.0504     0.9841     0.9841     0.0000
 11 H      0.9127     1.0000     0.0873     0.9825     0.9825     0.0000
 12 H      0.9470     1.0000     0.0530     0.9760     0.9760     0.0000
 13 H      0.9109     1.0000     0.0891     0.9772     0.9772     0.0000
 14 H      0.9109     1.0000     0.0891     0.9772     0.9772     0.0000
 15 H      0.9081     1.0000     0.0919     0.9875     0.9875    -0.0000
 16 H      0.9087     1.0000     0.0913     0.9854     0.9854    -0.0000

  Mayer bond orders larger than 0.1
B(  0-C ,  1-C ) :   0.9336 B(  0-C ,  3-C ) :   0.9586 B(  0-C , 15-H ) :   0.9958 
B(  0-C , 16-H ) :   0.9936 B(  1-C ,  2-C ) :   0.9586 B(  1-C ,  6-H ) :   0.9936 
B(  1-C ,  7-H ) :   0.9958 B(  2-C ,  4-N ) :   0.9815 B(  2-C ,  8-H ) :   0.9897 
B(  2-C ,  9-H ) :   0.9782 B(  3-C ,  4-N ) :   0.9815 B(  3-C , 10-H ) :   0.9782 
B(  3-C , 11-H ) :   0.9897 B(  4-N ,  5-C ) :   0.9894 B(  5-C , 12-H ) :   0.9668 
B(  5-C , 13-H ) :   0.9846 B(  5-C , 14-H ) :   0.9846 

-------
TIMINGS
-------

Total SCF time: 0 days 0 hours 0 min 12 sec 

Total time                  ....      12.781 sec
Sum of individual times     ....      12.525 sec  ( 98.0%)

Fock matrix formation       ....      11.880 sec  ( 92.9%)
Diagonalization             ....       0.087 sec  (  0.7%)
Density matrix formation    ....       0.014 sec  (  0.1%)
Population analysis         ....       0.061 sec  (  0.5%)
Initial guess               ....       0.247 sec  (  1.9%)
Orbital Transformation      ....       0.000 sec  (  0.0%)
Orbital Orthonormalization  ....       0.000 sec  (  0.0%)
DIIS solution               ....       0.000 sec  (  0.0%)
SOSCF solution              ....       0.112 sec  (  0.9%)


           ************************************************************
           *        Program running with 8 parallel MPI-processes     *
           *              working on a common directory               *
           ************************************************************


------------------------------------------------------------------------------- 
                              ORCA-MATRIX DRIVEN CI                            
------------------------------------------------------------------------------- 


Wavefunction type
-----------------
Correlation treatment                      ...      CCSD     
Single excitations                         ... ON
Orbital optimization                       ... OFF
Calculation of Z vector                    ... OFF
Calculation of Brueckner orbitals          ... OFF
Perturbative triple excitations            ... ON
Calculation of F12 correction              ... OFF
Frozen core treatment                      ... chemical core (12 el)
Reference Wavefunction                     ... RHF
  Internal Orbitals:     6 ...   23 ( 18 MO's/ 36 electrons)
  Virtual  Orbitals:    24 ...  333 (310 MO's              )
Number of AO's                             ...    334
Number of electrons                        ...     48
Number of correlated electrons             ...     36

Algorithmic settings
--------------------
Integral transformation                    ... All integrals via the RI transformation
K(C) Formation                             ... RI-DLPNO
   PNO-Integral Storage                    ... ON DISK
   PNO occupation number cut-off           ... 1.000e-07
   Singles PNO occupation number cut-off   ... 3.000e-09
   PNO Mulliken prescreening cut-off       ... 1.000e-03
   Domain cut-off (Mulliken population)    ... 1.000e-03
   PNO Normalization                       ...    1
Maximum number of iterations               ...        50
Convergence tolerance (max. residuum)      ... 1.000e-05
Level shift for amplitude update           ... 2.000e-01
Maximum number of DIIS vectors             ...         7
DIIS turned on at iteration                ...         0
Damping before turning on DIIS             ...     0.500
Damping after turning on DIIS              ...     0.000
Pair specific amplitude update             ... OFF
Natural orbital iterations                 ... OFF
Perturbative natural orbital generation    ... OFF
Printlevel                                 ... 2

Singles Fock matrix elements calculated using PNOs.

Memory handling:
----------------
Maximum memory for working arrays          ...   8000 MB
Data storage in matrix containers          ... UNCOMPRESSED
Data type for integral storage             ... DOUBLE
In-Core Storage of quantities:
   Amplitudes+Sigma Vector      ... NO
   J+K operators                ... NO
   DIIS vectors                 ... NO
   3-external integrals         ... NO
   4-external integrals         ... NO

Localization treatment:
-----------------------
Localization option                        ...    6
Localization threshhold                    ... -1.0e+00
Using relative localization threshhold     ... 1.0e-08
Neglect threshold for strong pairs         ... 1.000e-05 Eh
Prescreening threshold for very weak pairs ... 1.000e-07 Eh

Initializing the integral package          ... done
Localizing the valence orbitals
------------------------------------------------------------------------------
                           ORCA ORBITAL LOCALIZATION
------------------------------------------------------------------------------

Input orbitals are from                  ... N_methylpyrrolidine.proc0.gbw
Output orbitals are to                   ... N_methylpyrrolidine.proc0.loc
Max. number of iterations                ... 128
Localizations seeded randomly            ... off
Convergence tolerance                    ... 1.000e-06
Using relative localization threshhold   ... 1.000e-08
Treshold for strong local MOs            ... 9.500e-01
Treshold for bond MOs                    ... 8.500e-01
Operator                                 ... 0
Orbital range for localization           ... 6 to 23
Localization criterion                   ... FOSTER-BOYS (AUGMENTED HESSIAN)
Doing the dipole integrals     ... o.k.
Initial value of the localization sum :   154.139326
ITERATION   0 : L=  203.2955507651 DL=  4.92e+01 (AVERGE_DL)=    0.5668178872 
ITERATION   1 : L=  207.6963965855 DL=  4.40e+00 (AVERGE_DL)=    0.1695986385 
ITERATION   2 : L=  207.7534623483 DL=  5.71e-02 (AVERGE_DL)=    0.0193126601 
ITERATION   3 : L=  207.7535098087 DL=  4.75e-05 (AVERGE_DL)=    0.0005569553 
ITERATION   4 : L=  207.7535100776 DL=  2.69e-07 (AVERGE_DL)=    0.0000419191 
LOCALIZATION SUM CONVERGED

------------------------------------------------------
AUGMENTED HESSIAN OPTIMIZATION OF FOSTER-BOYS ORBITALS
------------------------------------------------------

Spin operator:           0
Orbital window:          6 to 23
Number of iterations:    128
Gradient tolerance:      1.000e-06
Number of pairs:         153
Davidson threshold:      2000
Diagonalization method:  LAPACK
Iter:    0   L: 207.7535100776   Grad. norm: 7.578240e-04
   *** Likely close to a maximum now. ***
       Augmented Hessian eigenvalues:  8.86e-09 -6.10e+00 -6.34e+00 -8.98e+00 ... 
Iter:    1   L: 207.7535100820   Grad. norm: 1.957346e-09
LOCALIZATION HAS CONVERGED.

Eigenvalues of the Hessian:
  0 -6.096e+00
  1 -6.343e+00
  2 -8.975e+00
  3 -1.234e+01
  4 -1.590e+01
  5 -1.639e+01
  6 -1.814e+01
  7 -1.835e+01
  8 -1.837e+01
  9 -1.849e+01
    ...


------------------------------------------------------------------------------- 
                    LOCALIZED MOLECULAR ORBITAL COMPOSITIONS                   
------------------------------------------------------------------------------- 

The Mulliken populations for each LMO on each atom are computed
The LMO`s will be ordered according to atom index and type
  (A) Strongly localized MO`s have populations of >=0.950 on one atom
  (B) Two center bond orbitals have populations of >=0.850 on two atoms
  (C) Other MO`s are considered to be `delocalized`

FOUND  -   1 strongly local MO`s
       -  17 two center bond MO`s
       -   0 significantly delocalized MO`s

Rather strongly localized orbitals:
MO   6:   4N  -   0.951796
Bond-like localized orbitals:
MO  23:  16H  -   0.471769  and   0C  -   0.561114
MO  22:  15H  -   0.470122  and   0C  -   0.561984
MO  21:  14H  -   0.475136  and   5C  -   0.553453
MO  20:  13H  -   0.475136  and   5C  -   0.553453
MO  19:  12H  -   0.495990  and   5C  -   0.542386
MO  18:  11H  -   0.473236  and   3C  -   0.556011
MO  17:  10H  -   0.494339  and   3C  -   0.548627
MO  16:   9H  -   0.494337  and   2C  -   0.548629
MO  15:   8H  -   0.473236  and   2C  -   0.556011
MO  14:   7H  -   0.470121  and   1C  -   0.561985
MO  13:   6H  -   0.471765  and   1C  -   0.561118
MO  12:   5C  -   0.427557  and   4N  -   0.589796
MO  11:   4N  -   0.595271  and   3C  -   0.422812
MO  10:   4N  -   0.595273  and   2C  -   0.422810
MO   9:   3C  -   0.528263  and   0C  -   0.509346
MO   8:   2C  -   0.528265  and   1C  -   0.509344
MO   7:   1C  -   0.515987  and   0C  -   0.515988
Localized MO's were stored in: N_methylpyrrolidine.proc0.loc

Localizing the core orbitals
------------------------------------------------------------------------------
                           ORCA ORBITAL LOCALIZATION
------------------------------------------------------------------------------

Input orbitals are from                  ... N_methylpyrrolidine.proc0.loc
Output orbitals are to                   ... N_methylpyrrolidine.proc0.loc
Max. number of iterations                ... 128
Localizations seeded randomly            ... off
Convergence tolerance                    ... 1.000e-06
Using relative localization threshhold   ... 1.000e-08
Treshold for strong local MOs            ... 9.500e-01
Treshold for bond MOs                    ... 8.500e-01
Operator                                 ... 0
Orbital range for localization           ... 0 to 5
Localization criterion                   ... FOSTER-BOYS (AUGMENTED HESSIAN)
Doing the dipole integrals     ... o.k.
Initial value of the localization sum :    47.991750
ITERATION   0 : L=   47.9917517087 DL=  1.38e-06 (AVERGE_DL)=    0.0003028758 
ITERATION   1 : L=   47.9917517087 DL=  0.00e+00 (AVERGE_DL)=    0.0000000000 
LOCALIZATION SUM CONVERGED

------------------------------------------------------
AUGMENTED HESSIAN OPTIMIZATION OF FOSTER-BOYS ORBITALS
------------------------------------------------------

Spin operator:           0
Orbital window:          0 to 5
Number of iterations:    128
Gradient tolerance:      1.000e-06
Number of pairs:         15
Davidson threshold:      2000
Diagonalization method:  LAPACK
Iter:    0   L: 47.9917517087   Grad. norm: 1.575379e-06
   *** Likely close to a maximum now. ***
       Augmented Hessian eigenvalues:  3.02e-14 -2.98e+01 -2.99e+01 -2.99e+01 ... 
Iter:    1   L: 47.9917517087   Grad. norm: 3.102980e-20
LOCALIZATION HAS CONVERGED.

Eigenvalues of the Hessian:
  0 -2.984e+01
  1 -2.991e+01
  2 -2.991e+01
  3 -3.372e+01
  4 -3.372e+01
  5 -3.390e+01
  6 -7.546e+01
  7 -7.861e+01
  8 -7.861e+01
  9 -8.430e+01
    ...


------------------------------------------------------------------------------- 
                    LOCALIZED MOLECULAR ORBITAL COMPOSITIONS                   
------------------------------------------------------------------------------- 

The Mulliken populations for each LMO on each atom are computed
The LMO`s will be ordered according to atom index and type
  (A) Strongly localized MO`s have populations of >=0.950 on one atom
  (B) Two center bond orbitals have populations of >=0.850 on two atoms
  (C) Other MO`s are considered to be `delocalized`

FOUND  -   6 strongly local MO`s
       -   0 two center bond MO`s
       -   0 significantly delocalized MO`s

Rather strongly localized orbitals:
MO   5:   5C  -   1.000947
MO   4:   4N  -   0.999678
MO   3:   3C  -   1.001180
MO   2:   2C  -   1.001180
MO   1:   1C  -   1.001376
MO   0:   0C  -   1.001376
Localized MO's were stored in: N_methylpyrrolidine.proc0.loc

Warning: internal orbitals are localized - no re-canonicalization of internal orbitals

--------------------------
CLOSED-SHELL FOCK OPERATOR
--------------------------

RI-JK section for the Fock operator:
  RHF full Fock operator         ... done
  RHF frozen core Fock operator  ... done
Time needed for Fock operator              ...            1.967 sec
Reference energy                           ...   -250.257348306

--------------
DLPNO SETTINGS (2015 fully linear scaling implementation)
--------------

TCutMKN:           1.000e-03
TCutPAO:           1.000e-03
TCutPNO:           1.000e-07
TCutPNOSingles:    3.000e-09
TCutEN:            9.700e-01
TCutPAOExt:        1.000e-01
TCutPairs:         1.000e-05
TCutPre:           1.000e-07
TCutOSV:           1.000e-06
TCutDOij:          1.000e-05
TCutDO:            5.000e-03
TCutC:             1.000e-04
TCutCPAO:          1.000e-03
TCutCMO:           1.000e-03
TScaleDOMP2PreScr: 2.000e+00
TScaleMKNMP2PreScr:1.000e+01
TScalePNOMP2PreScr:1.000e+00
PAO overlap thresh 1.000e-08
Using PNOs for Singles Fock computation
Use new domains
Use fully linear algorithm
TCutTNO:           1.000e-09
TCutMP2Pairs:      1.000e-06
TCutDOStrong:      2.000e-03
TCutMKNStrong:     1.000e-02
TCutMKNWeak:       1.000e-01
TCutDOWeak:        4.000e-03
NTCutTNO:          1

--------------------------
Calculating differential overlap integrals ... ok
--------------------------
ELECTRON PAIR PRESCREENING
--------------------------

Dipole-based pair screening          .... used

   TCutDOij = 1.000000e-05
   TCutPre  = 1.000000e-07
   .... Finished loop over pairs
Total time spent in the prescreening                  ...     0.000 sec
sum of pair energies estimated for screened out pairs ...       0.000000000000 Eh
Thresholds for map construction and integral transformation for crude MP2:
   TCutMKN                    ...     1.0e-02
   TCutDO                     ...     1.0e-02
   TCutPairs                  ...     1.0e-05
   TCutPNO_CrudeMP2           ...     1.0e-07
   TCutPNOSingles_CrudeMP2    ...     3.0e-09
--------------------------------
LOCAL RI TRANSFORMATION (IAVPAO)
--------------------------------

Orbital window:       6 to 23
Number of PAOs:     334
Basis functions:    334 (126 shells)
Aux. functions:     816 (248 shells)

Processing maps (0.0 sec)
Average map sizes:
   Aux shells -> MOs              18.0
   Aux shells -> PAOs            334.0
   MOs        -> AO shells       125.0
   PAOs       -> AO shells       126.0

Calculating integrals (0.6 sec, 37.438 MB)
Sorting integrals (0.1 sec, 37.428 MB)
Total time for the integral transformation: 0.7 sec
--------------------------------
INITIAL GUESS AND PNO GENERATION
--------------------------------

PNO truncation parameters                   .... 
    PAOOverlapThresh   =        1.000e-08

    TCutPairs          =        1.000e-05
    TCutPNO            =        1.000e-07
    TCutPNOSingles     =        3.000e-09
    TCutMP2Pairs       =        1.000e-06
    TCutMKN            =        1.000e-02
    TCutDO             =        1.000e-02

Pair selection                          .... not used
Type of local MP2 treatment                 .... semi-local MP2
Strategy for PNO selection                  .... occupation number selection
Pair density normalization                  .... MP2 norm
Spin component scaling                      .... not used

   .... Finished loop over pairs
Making pair pair interaction lists          ... done

                       ===========================
                        171 OF  171 PAIRS ARE KEPT CCSD PAIRS
                          0 OF  171 PAIRS ARE KEPT MP2 PAIRS FOR (T)
                          0 OF  171 PAIRS ARE SKIPPED
                       ===========================

Total time spent in the initial guess                 ...     1.835 sec
SL-MP2 correlation energy (all non-screened pairs)    ...      -1.046700823060 Eh

Initial PNO correlation energy                        ...      -1.045559052112 Eh
sum of pair energies prescreened and skipped MP2 pairs...       0.000000000000 Eh
sum of pair energies of crude MP2 skipped pairs only  ...       0.000000000000 Eh
sum of MP2 pair energies for pairs that were not kept ...       0.000000000000 Eh
sum of PNO error estimates for the kept pairs         ...      -0.001141770947 Eh
                                                          --------------------
sum of all corrections                                         -0.001141770947
Initial total correlation energy                               -1.046700823060
Thresholds for map construction and integral transformation for fine MP2 and CCSD(T) calculation:
   TCutMKN   ...     1.0e-03
   TCutDO    ...     5.0e-03
   TCutPairs ...     1.0e-05
   TCutCMO   ...     1.0e-03
   TCutCPAO  ...     1.0e-03

Thresholds for map construction and integral transformation for strong Triples:
   TCutMKN   ...     1.0e-02
   TCutDO    ...     1.0e-02
   TCutCMO   ...     1.0e-03
   TCutCPAO  ...     1.0e-03

Thresholds for map construction and integral transformation for weak Triples:
   TCutMKN   ...     1.0e-01
   TCutDO    ...     2.0e-02
   TCutCMO   ...     1.0e-03
   TCutCPAO  ...     1.0e-03

--------------------------------
LOCAL RI TRANSFORMATION (IAVPAO)
--------------------------------

Orbital window:       6 to 23
Number of PAOs:     334
Basis functions:    334 (126 shells)
Aux. functions:     816 (248 shells)

Processing maps (0.0 sec)
Average map sizes:
   Aux shells -> MOs              18.0
   Aux shells -> PAOs            334.0
   MOs        -> AO shells       125.0
   PAOs       -> AO shells       126.0

Calculating integrals (0.7 sec, 37.438 MB)
Sorting integrals (0.1 sec, 37.428 MB)
Total time for the integral transformation: 0.7 sec
--------------------------------
INITIAL GUESS AND PNO GENERATION
--------------------------------

PNO truncation parameters                   .... 
    ScaleTCutPNO       =        1.000e-02
    PAOOverlapThresh   =        1.000e-08

    TCutPairs          =        1.000e-05
    TCutPNO            =        1.000e-07
    TCutPNOSingles     =        3.000e-09
    TCutMP2Pairs       =        1.000e-06
    TCutMKN            =        1.000e-03
    TCutDO             =        5.000e-03

Pair selection                          .... not used
Type of local MP2 treatment                 .... full local PMP2
Strategy for PNO selection                  .... occupation number selection
Pair density normalization                  .... MP2 norm
Spin component scaling                      .... not used

PASS-1: Formation of initial guess LMP2 amplitudes
Initial amplitudes guess done. Entering LMP2 iteration loop:
   Max. no of iterations          ...  50
   Energy convergence tolerance   ...    1.0e-07
   Residual convergence tolerance ...    5.0e-07
   Fock matrix cutoff             ...    1.0e-05 Eh
   DIIS convergence acceleration parameters:
        Max # vectors in DIIS     ... 7
        Start iteration of DIIS   ... 0
        Levelshift                ... 2.000e-01
        Damping factor 1          ... 5.000e-01
        Damping factor 2          ... 1.000e+00
   L-MP2 PNO cut-off              ...   1.0e-09
   L-MP2 PNO cut-off (core)       ...   1.0e-11
                           *** Turning on DIIS ***
LMP2-Iter=   0:  ELMP2= -1.065667765633  DE=   1.9e-02 RMAX=   3.4e-03
LMP2-Iter=   1:  ELMP2= -1.075452351817  DE=   9.8e-03 RMAX=   1.5e-03
LMP2-Iter=   2:  ELMP2= -1.076932738280  DE=   1.5e-03 RMAX=   2.8e-04
LMP2-Iter=   3:  ELMP2= -1.077065652437  DE=   1.3e-04 RMAX=   1.2e-04
LMP2-Iter=   4:  ELMP2= -1.077070048084  DE=   4.4e-06 RMAX=   3.5e-05
LMP2-Iter=   5:  ELMP2= -1.077068868278  DE=   1.2e-06 RMAX=   1.2e-05
LMP2-Iter=   6:  ELMP2= -1.077068779131  DE=   8.9e-08 RMAX=   2.6e-06
LMP2-Iter=   7:  ELMP2= -1.077068793322  DE=   1.4e-08 RMAX=   6.1e-07
LMP2-Iter=   8:  ELMP2= -1.077068797272  DE=   3.9e-09 RMAX=   6.3e-08 => CONVERGED
PASS-2: Formation of Pair natural orbitals
   .... Finished loop over pairs

 PNO Occupation Number Statistics: 
  | Av. % of trace(Dij) retained        ...  99.614316553043
  | sigma^2 in % of trace(Dij) retained ...   3.12e-01
  | Av. % of trace(Di) retained         ...  99.999682670220
  | sigma^2 in % of trace(Di) retained  ...   1.04e-08
 Distributions of % trace(Dij) recovered:
  |       >= 99.9  ...    57 ( 33.3 % of all pairs)
  |   [90.0, 99.0) ...    15 (  8.8 % of all pairs)
  |   [99.0, 99.9) ...    99 ( 57.9 % of all pairs)
 Distributions of % trace(Di) recovered :
  |       >= 99.9  ...    18 (100.0 % of all I-pairs )

Making pair pair interaction lists          ... done

                       ===========================
                        171 OF  171 PAIRS ARE KEPT
                       ===========================

Total time spent in the initial guess                 ...    14.728 sec
L-MP2 correlation energy (all non-screened pairs)     ...      -1.077068797272 Eh
L-MP2 PNO error correction                            ...      -0.000023990523 Eh
                                                          --------------------
Initial total L-MP2 energy (non-screened pairs)       ...      -1.077092787795 Eh

Initial PNO correlation energy                        ...      -1.075988507349 Eh
sum of pair energies estimated for screened out pairs ...       0.000000000000 Eh
sum of MP2 pair energies for pairs that were not kept ...       0.000000000000 Eh
sum of PNO error estimates for the kept pairs         ...      -0.001104280446 Eh
                                                          --------------------
sum of all corrections                                         -0.001104280446
Initial total correlation energy                               -1.077092787795
Thresholds for map construction and integral transformation for fine MP2 and CCSD(T) calculation:
   TCutMKN   ...     1.0e-03
   TCutDO    ...     5.0e-03
   TCutPairs ...     1.0e-05
   TCutCMO   ...     1.0e-03
   TCutCPAO  ...     1.0e-03

Time for aux screen maps:            0.004
Time for maps after fine MP2:            0.012
-----------------------------
LOCAL RI TRANSFORMATION (IJV)
-----------------------------

Orbital window:       6 to 23
Basis functions:    334 (126 shells)
Aux. functions:     816 (248 shells)

Processing maps (0.0 sec)
Average map sizes:
   Aux shells -> MOs(i)           18.0
   Aux shells -> MOs(j)           18.0
   MOs        -> AO shells       125.0

Calculating integrals (0.6 sec, 2.026 MB)
Sorting integrals (0.0 sec, 2.017 MB)
Total time for the integral transformation: 0.7 sec
--------------------------------
LOCAL RI TRANSFORMATION (VABPAO)
--------------------------------

Number of PAOs:     334
Basis functions:    334 (126 shells)
Aux. functions:     816 (248 shells)

Processing maps (0.0 sec)
Average map sizes:
   Aux shells -> PAOs            334.0
   PAOs       -> AO shells       126.0

Calculating integrals (1.9 sec, 1309.868 MB)
Finished


-------------------------------------
Pair Pair Term precalculation with     
RI-(ij|mn) and (im|jn) transformation  
ON THE FLY                             
-------------------------------------

   IBatch   1 (of   2)              ... done (   48.896 sec)
   IBatch   2 (of   2)              ... done (   11.770 sec)
Total EXT                           ...          60.666 sec

---------------------
RI-PNO TRANSFORMATION
---------------------

Total Number of PNOs                   ...  8091
Average number of PNOs per pair        ...    47
Maximal number of PNOs per pair        ...    72
   #pairs with  1 -  5 PNOs   :    0
   #pairs with  6 - 10 PNOs   :    0
   #pairs with 11 - 15 PNOs   :    6
   #pairs with 16 - 20 PNOs   :    7
   #pairs with 21 - 25 PNOs   :    4
   #pairs with 26 - 30 PNOs   :   10
   #pairs with 31 - 35 PNOs   :   19
   #pairs with 36 - 40 PNOs   :   13
   #pairs with 41 - 45 PNOs   :   10
   #pairs with 46 - 50 PNOs   :   20
   #pairs with 51 - 55 PNOs   :   27
   #pairs with 56 - 60 PNOs   :    9
   #pairs with 61 - 65 PNOs   :   20
   #pairs with 66 - 70 PNOs   :   22
   #pairs with 71 - 75 PNOs   :    4

Generation of (ij|ab)[P] integrals            ... on
Generation of (ia|bc)[P],(ja|bc)[P] integrals ... on
Storage of 3 and 4 external integrals         ... on
Generation of ALL (ka|bc)[P] integrals        ... on
Keep RI integrals in memory                   ... off

Ibatch:  1 (of  1)
Starting 2-4 index PNO integral generation ... done

Timings:
Total PNO integral transformation time     ...         24.835 sec
Size of the 3-external file                ...       185 MB
Size of the 4-external file                ...      1378 MB
Size of the IKJL file                      ...         0 MB
Size of the all 3-external file            ...      1666 MB
Size of the 1-external file                ...         3 MB

Making pair/pair overlap matrices          ... done (    2.033 sec)
Size of the pair overlap file              ... 365 MB
Redoing the guess amplitudes               ... done (    0.003 sec)

-------------------------
FINAL STARTUP INFORMATION
-------------------------

E(0)                                       ...   -250.257348306
E(L-MP2)                                   ...     -1.077092788
E(L-MP2) including corrections             ...     -1.077092788
Initial E(tot)                             ...   -251.334441094
<T|T>                                      ...      0.304132075
Number of pairs included                   ... 171
Total number of pairs                      ... 171

------------------------------------------------
                  RHF COUPLED CLUSTER ITERATIONS
------------------------------------------------

Number of PNO amplitudes to be optimized   ...       425129
Number of non-PNO amplitudes               ...     16433100
Untruncated number of regular amplitudes   ...     16433100

Iter       E(tot)           E(Corr)          Delta-E          Residual     Time
  0   -251.304055154     -1.045602568      0.031490220      0.012635479   15.16
                           *** Turning on DIIS ***
  1   -251.353719647     -1.095267061     -0.049664493      0.005218469   12.06
  2   -251.382444115     -1.123991529     -0.028724468      0.002215684   12.29
  3   -251.387661428     -1.129208842     -0.005217313      0.000775019   12.38
  4   -251.388674524     -1.130221938     -0.001013096      0.000572490   12.41
  5   -251.388851605     -1.130399018     -0.000177080      0.000219404   11.82
  6   -251.388894575     -1.130441989     -0.000042971      0.000142994   11.64
  7   -251.388903031     -1.130450445     -0.000008456      0.000058472   12.50
  8   -251.388905568     -1.130452981     -0.000002537      0.000022072   12.51
  9   -251.388905389     -1.130452802      0.000000179      0.000005480   12.54
               --- The Coupled-Cluster iterations have converged ---

----------------------
COUPLED CLUSTER ENERGY
----------------------

E(0)                                       ...   -250.257348306
E(CORR)(strong-pairs)                      ...     -1.130452802
E(CORR)(weak-pairs)                        ...     -0.001104280
E(CORR)(corrected)                         ...     -1.131557083
E(TOT)                                     ...   -251.388905389
Singles Norm <S|S>**1/2                    ...      0.054208595  
T1 diagnostic                              ...      0.009034766  

------------------
LARGEST AMPLITUDES
------------------
  19-> 31  19-> 31       0.031956
  17-> 24  17-> 24       0.029965
  16-> 24  16-> 24       0.029965
  22-> 24  22-> 24       0.029286
  14-> 24  14-> 24       0.029286
  23-> 24  23-> 24       0.029244
  13-> 24  13-> 24       0.029243
  13-> 30  13-> 30       0.029197
  23-> 30  23-> 30       0.029194
  18-> 29  18-> 29       0.028453
  15-> 29  15-> 29       0.028452
  19-> 24  19-> 24       0.028436
  18-> 24  18-> 24       0.028220
  15-> 24  15-> 24       0.028220
   9-> 34   9-> 34       0.027932
   8-> 34   8-> 34       0.027932


-------------------------------------------
DLPNO BASED TRIPLES CORRECTION
-------------------------------------------

Singles multiplier          ...  1.000000
TCutTNO                     ... 1.000e-09
TCutMP2Pairs                ... 1.000e-06
TCutDOStrong                ... 1.000e-02
TCutMKNStrong               ... 1.000e-02
TCutDOWeak                  ... 2.000e-02
TCutMKNWeak                 ... 1.000e-01

Fragment selection                          .... not used
Number of Triples that are to be computed   ...      1122

 . . . . . . . . .
10% done  
20% done  
30% done  
40% done  
50% done  
60% done  
70% done  
80% done  
90% done               (    145.323 sec)
Triples timings:
Total time for T0               ...   153.967 sec
Total time for Iterative (T)    ...     0.000 sec
Total time of overall (T)       ...   161.603 sec

Triples List generation         ...     0.000 sec
TNO generation                  ...     8.636 sec
Pair density generation         ...     0.005 sec
Look up tables                  ...     0.000 sec
Generating 3-index integrals    ...    92.263 sec
  Make 4-ind.int. from 3-ind.int...    18.044 sec
  Projecting amplitudes (D + S) ...    10.348 sec
  Downprojecting integrals      ...     0.003 sec
  Energy contr. (sum over a,b,c)...     7.025 sec
Fitting ET(->0)                 ...     0.000 sec

Everything after 3-index        ...    53.060 sec

Timing details:
 TNO integrals                  ...   108.884 sec
   Reading 3-index integrals    ...     0.252 sec
   Sorting integrals            ...    14.579 sec
       Sorting integrals 1      ...     0.001 sec
       Sorting integrals 2      ...     6.893 sec
       Sorting integrals 3      ...     0.453 sec
       Sorting integrals 4      ...     0.020 sec
       Sorting integrals 5      ...     0.117 sec
       Sorting integrals 6      ...     7.095 sec
   Calculating local VM**-1/2   ...     0.438 sec
   Orthogonal. integrals        ...     0.787 sec
   Multipl. 3-index integrals   ...    92.828 sec
   All concerning IRIab (w/TNO) ...     9.281 sec

 Calculate W0/W1                ...    17.631 sec
 W 3-ext contribution           ...     9.810 sec
 W 3-int contribution           ...     2.422 sec
 Sorting W                      ...     5.165 sec

 V exchange contribution        ...     2.299 sec

 Timings for Triples without generation
     of 3-index integrals       ...    53.058 sec
       0 weak pairs             ...    53.058 sec
       1 weak pair              ...     0.000 sec
       2 weak pairs             ...     0.000 sec
       3 weak pairs             ...     0.000 sec
  Extra time for extrapolation  ...     0.000 sec

Number of Triples   (0, 1, 2, 3 weak pairs; overall):   1122       0       0       0  (  1122)
Number of Atoms     (0, 1, 2, 3 weak pairs; overall):   16.6     0.0     0.0     0.0  (    17)
Number of PAOs      (0, 1, 2, 3 weak pairs; overall):  328.5     0.0     0.0     0.0  (   334)
Number of AuxFcns   (0, 1, 2, 3 weak pairs; overall):  434.9     0.0     0.0     0.0  (   816)
Number of TNOs      (0, 1, 2, 3 weak pairs         ):  111.6     0.0     0.0     0.0
Aver. Number of NTNO, Atoms, PAOs, AuxFcns / Triples:   1122   111.6    16.6   328.5   434.9

Triples Correction (T)                     ...     -0.045419082
Final correlation energy                   ...     -1.176976165
E(CCSD)                                    ...   -251.388905389
E(CCSD(T))                                 ...   -251.434324471


Maximum memory used throughout the entire calculation: 7856.2 MB


------------------------------------------------------------------------------- 
                                     TIMINGS                                   
------------------------------------------------------------------------------- 


Total execution time                   ...      406.193 sec

Localization of occupied MO's          ...        0.562 sec (  0.1%)
Fock Matrix Formation                  ...        1.967 sec (  0.5%)
Global overlap, Fock, MKN matrices     ...        0.215 sec (  0.1%)
Differential overlap integrals         ...        0.110 sec (  0.0%)
Organizing maps                        ...        0.035 sec (  0.0%)
RI 3-index integral generations        ...        3.971 sec (  1.0%)
RI-PNO integral transformation         ...       88.770 sec ( 21.9%)
Initial Guess                          ...       16.628 sec (  4.1%)
DIIS Solver                            ...        1.712 sec (  0.4%)
State Vector Update                    ...        0.030 sec (  0.0%)
Sigma-vector construction              ...      125.021 sec ( 30.8%)
  <D|H|D>(0-ext)                       ...        2.545 sec (  2.0% of sigma)
  <D|H|D>(2-ext Fock)                  ...        0.013 sec (  0.0% of sigma)
  <D|H|D>(2-ext)                       ...       12.080 sec (  9.7% of sigma)
  <D|H|D>(4-ext)                       ...       14.522 sec ( 11.6% of sigma)
  <D|H|D>(4-ext-corr)                  ...       65.064 sec ( 52.0% of sigma)
  CCSD doubles correction              ...        0.173 sec (  0.1% of sigma)
  <S|H|S>                              ...        0.919 sec (  0.7% of sigma)
  <S|H|D>(1-ext)                       ...        0.309 sec (  0.2% of sigma)
  <D|H|S>(1-ext)                       ...        0.010 sec (  0.0% of sigma)
  <S|H|D>(3-ext)                       ...        0.522 sec (  0.4% of sigma)
  Fock-dressing                        ...       13.779 sec ( 11.0% of sigma)
  Singles amplitudes                   ...        0.410 sec (  0.3% of sigma)
  (ik|jl)-dressing                     ...        1.944 sec (  1.6% of sigma)
  (ij|ab),(ia|jb)-dressing             ...        2.734 sec (  2.2% of sigma)
  Pair energies                        ...        0.007 sec (  0.0% of sigma)
Total Time for computing (T)           ...      161.647 sec ( 39.8% of ALL)


-------------------------   --------------------
FINAL SINGLE POINT ENERGY      -251.434324470684
-------------------------   --------------------


                            ***************************************
                            *     ORCA property calculations      *
                            ***************************************

                                    ---------------------
                                    Active property flags
                                    ---------------------
   (+) Dipole Moment


------------------------------------------------------------------------------
                       ORCA ELECTRIC PROPERTIES CALCULATION
------------------------------------------------------------------------------

Dipole Moment Calculation                       ... on
Quadrupole Moment Calculation                   ... off
Polarizability Calculation                      ... off
GBWName                                         ... N_methylpyrrolidine.gbw
Electron density file                           ... N_methylpyrrolidine.scfp.tmp
The origin for moment calculation is the CENTER OF MASS  = (-0.009529,  0.000000 -0.027506)

-------------
DIPOLE MOMENT
-------------
                                X             Y             Z
Electronic contribution:     -0.48729      -0.00003      -1.10921
Nuclear contribution   :      0.45734       0.00002       1.32027
                        -----------------------------------------
Total Dipole Moment    :     -0.02995      -0.00001       0.21107
                        -----------------------------------------
Magnitude (a.u.)       :      0.21318
Magnitude (Debye)      :      0.54186



--------------------
Rotational spectrum 
--------------------
 
Rotational constants in cm-1:     0.222234     0.105120     0.078423 
Rotational constants in MHz :  6662.398710  3151.425339  2351.071294 

 Dipole components along the rotational axes: 
x,y,z [a.u.] :    -0.031395     0.000010     0.210857 
x,y,z [Debye]:    -0.079800     0.000025     0.535955 

 

Timings for individual modules:

Sum of individual times         ...      420.066 sec (=   7.001 min)
GTO integral calculation        ...        0.613 sec (=   0.010 min)   0.1 %
SCF iterations                  ...       12.936 sec (=   0.216 min)   3.1 %
MDCI module                     ...      406.517 sec (=   6.775 min)  96.8 %
                             ****ORCA TERMINATED NORMALLY****
TOTAL RUN TIME: 0 days 0 hours 7 minutes 0 seconds 368 msec
N_methylpyrrolidine.gbw -> /home1/pantazis/klk/xyz/Energy_barrier/N_methylpyrrolidine.gbw
N_methylpyrrolidine.job -> /home1/pantazis/klk/xyz/Energy_barrier/N_methylpyrrolidine.job
N_methylpyrrolidine.loc -> /home1/pantazis/klk/xyz/Energy_barrier/N_methylpyrrolidine.loc
N_methylpyrrolidine.nodes -> /home1/pantazis/klk/xyz/Energy_barrier/N_methylpyrrolidine.nodes
N_methylpyrrolidine.prop -> /home1/pantazis/klk/xyz/Energy_barrier/N_methylpyrrolidine.prop
N_methylpyrrolidine_property.txt -> /home1/pantazis/klk/xyz/Energy_barrier/N_methylpyrrolidine_property.txt
N_methylpyrrolidine.xyz -> /home1/pantazis/klk/xyz/Energy_barrier/N_methylpyrrolidine.xyz
cp: cannot stat N_methylpyrrolidine.asa.inp: No such file or directory
