! Job execution by suborca V 6.07 on ZEUS !
Job started from zeus1, running /scratch/pantazis/N_me_piperidine_sofa_eq__R34RRm/orca/orca copied from /opt/orca on zeussn124 in /scratch/pantazis/N_me_piperidine_sofa_eq__R34RRm
Job execution start: Fri Jun 28 02:10:20 CEST 2019
Shared library path: /scratch/pantazis/N_me_piperidine_sofa_eq__R34RRm/orca:/opt/openmpi_1.10.2/lib:/opt/intel/mkl/lib/intel64:/opt/intel/lib/intel64:
PBS Job ID is: 158330.icqc
izeussn124
izeussn124
izeussn124
izeussn124
izeussn124
izeussn124
izeussn124
izeussn124

                                 *****************
                                 * O   R   C   A *
                                 *****************

           --- An Ab Initio, DFT and Semiempirical electronic structure package ---

                  #######################################################
                  #                        -***-                        #
                  #          Department of theory and spectroscopy      #
                  #               Directorship: Frank Neese             #
                  #        Max Planck Institute fuer Kohlenforschung    #
                  #                Kaiser Wilhelm Platz 1               #
                  #                 D-45470 Muelheim/Ruhr               #
                  #                      Germany                        #
                  #                                                     #
                  #                  All rights reserved                #
                  #                        -***-                        #
                  #######################################################


                         Program Version 4.1.x  -  STABLE  -
                                (SVN: $Rev: 14094$)
                ($Date: 2019-06-14 15:01:15 +0200 (Fri, 14 Jun 2019) $)

                         (BUILD: $Sun Jun 23 06:18:31 CEST 2019$)


 With contributions from (in alphabetic order):
   Daniel Aravena         : Magnetic Properties
   Michael Atanasov       : Ab Initio Ligand Field Theory
   Alexander A. Auer      : GIAO ZORA
   Ute Becker             : Parallelization
   Giovanni Bistoni       : ED, Open-shell LED
   Martin Brehm           : Molecular dynamics
   Dmytro Bykov           : SCF Hessian
   Vijay G. Chilkuri      : MRCI spin determinant printing
   Dipayan Datta          : RHF DLPNO-CCSD density
   Achintya Kumar Dutta   : EOM-CC, STEOM-CC
   Dmitry Ganyushin       : Spin-Orbit,Spin-Spin,Magnetic field MRCI
   Miquel Garcia          : C-PCM Hessian
   Yang Guo               : DLPNO-NEVPT2, CIM, IAO-localization
   Andreas Hansen         : Spin unrestricted coupled pair/coupled cluster methods
   Benjamin Helmich-Paris : CASSCF linear response (MC-RPA)
   Lee Huntington         : MR-EOM, pCC
   Robert Izsak           : Overlap fitted RIJCOSX, COSX-SCS-MP3, EOM
   Christian Kollmar      : KDIIS, OOCD, Brueckner-CCSD(T), CCSD density
   Simone Kossmann        : Meta GGA functionals, TD-DFT gradient, OOMP2, MP2 Hessian
   Martin Krupicka        : AUTO-CI
   Lucas Lang             : DCDCAS
   Dagmar Lenk            : GEPOL surface, SMD
   Dimitrios Liakos       : Extrapolation schemes; parallel MDCI
   Dimitrios Manganas     : ROCIS; embedding schemes
   Dimitrios Pantazis     : SARC Basis sets
   Taras Petrenko         : DFT Hessian,TD-DFT gradient, ASA, ECA, R-Raman, ABS, FL, XAS/XES, NRVS
   Peter Pinski           : DLPNO-MP2, DLPNO-MP2 Gradient
   Christoph Reimann      : Effective Core Potentials
   Marius Retegan         : Local ZFS, SOC
   Christoph Riplinger    : Optimizer, TS searches, QM/MM, DLPNO-CCSD(T), (RO)-DLPNO pert. Triples
   Tobias Risthaus        : Range-separated hybrids, TD-DFT gradient, RPA, STAB
   Michael Roemelt        : Restricted open shell CIS
   Masaaki Saitow         : Open-shell DLPNO
   Barbara Sandhoefer     : DKH picture change effects
   Avijit Sen             : IP-ROCIS
   Kantharuban Sivalingam : CASSCF convergence, NEVPT2, FIC-MRCI
   Bernardo de Souza      : ESD, SOC TD-DFT
   Georgi Stoychev        : AutoAux, RI-MP2 NMR
   Willem Van den Heuvel  : Paramagnetic NMR
   Boris Wezisla          : Elementary symmetry handling
   Frank Wennmohs         : Technical directorship


 We gratefully acknowledge several colleagues who have allowed us to
 interface, adapt or use parts of their codes:
   Stefan Grimme, W. Hujo, H. Kruse,             : VdW corrections, initial TS optimization,
                  C. Bannwarth                     DFT functionals, gCP, sTDA/sTD-DF
   Ed Valeev                                     : LibInt (2-el integral package), F12 methods
   Garnet Chan, S. Sharma, J. Yang, R. Olivares  : DMRG
   Ulf Ekstrom                                   : XCFun DFT Library
   Mihaly Kallay                                 : mrcc  (arbitrary order and MRCC methods)
   Andreas Klamt, Michael Diedenhofen            : otool_cosmo (COSMO solvation model)
   Jiri Pittner, Ondrej Demel                    : Mk-CCSD
   Frank Weinhold                                : gennbo (NPA and NBO analysis)
   Christopher J. Cramer and Donald G. Truhlar   : smd solvation model
   Lars Goerigk                                  : TD-DFT with DH, B97 family of functionals
   V. Asgeirsson, H. Jonsson                     : NEB implementation
   FAccTs GmbH                                   : IRC, NEB, NEB-TS, Multilevel


 Your calculation uses the libint2 library for the computation of 2-el integrals
 For citations please refer to: http://libint.valeyev.net

 This ORCA versions uses:
   CBLAS   interface :  Fast vector & matrix operations
   LAPACKE interface :  Fast linear algebra routines
   SCALAPACK package :  Parallel linear algebra routines




***************************************
The coordinates will be read from file: N_me_piperidine_sofa_eq.xyz
***************************************


----- Orbital basis set information -----
Your calculation utilizes the basis: cc-pVTZ 
       H, B-Ne : Obtained from the ccRepo (grant-hill.group.shef.ac.uk/ccrepo) Feb. 2017
                 T. H. Dunning, Jr., J. Chem. Phys. 90, 1007 (1989)
            He : Obtained from the ccRepo (grant-hill.group.shef.ac.uk/ccrepo) Feb. 2017
                 D. E. Woon, T. H. Dunning, Jr., J. Chem. Phys. 100, 2975 (1994)
  Li-Be, Na-Mg : Obtained from the ccRepo (grant-hill.group.shef.ac.uk/ccrepo) Feb. 2017
                 B. P. Prascher, D. E. Woon, K. A. Peterson, T. H. Dunning, Jr., A. K. Wilson, Theor. Chem. Acc. 128, 69 (2011)
         Al-Ar : Obtained from the ccRepo (grant-hill.group.shef.ac.uk/ccrepo) Feb. 2017
                 D. E. Woon, T. H. Dunning, Jr., J. Chem. Phys. 98, 1358 (1993)
            Ca : Obtained from the Peterson Research Group Website (tyr0.chem.wsu.edu/~kipeters) Feb. 2017
                 J. Koput, K. A. Peterson, J. Phys. Chem. 106, 9595 (2002)
         Sc-Zn : Obtained from the ccRepo (grant-hill.group.shef.ac.uk/ccrepo) Feb. 2017
                 N. B. Balabanov, K. A. Peterson, J. Chem. Phys. 123, 064107 (2005)
                 N. B. Balabanov, K. A. Peterson, J. Chem. Phys. 125, 074110 (2006)
         Ga-Kr : Obtained from the ccRepo (grant-hill.group.shef.ac.uk/ccrepo) Feb. 2017
                 A. K. Wilson, D. E. Woon, K. A. Peterson, T. H. Dunning, Jr., J. Chem. Phys. 110, 7667 (1999)
             Y : Obtained from the ccRepo (grant-hill.group.shef.ac.uk/ccrepo) Feb. 2017
                 K. A. Peterson, D. Figgen, M. Dolg, H. Stoll, J. Chem. Phys. 126, 124101 (2007)
        Ag, Au : Obtained from the Peterson Research Group Website (tyr0.chem.wsu.edu/~kipeters) Feb. 2017
                 K. A. Peterson, C. Puzzarini, Theor. Chem. Acc. 114, 283 (2005)

----- AuxC basis set information -----
Your calculation utilizes the auxiliary basis: cc-pVTZ/C 
  Obtained from the EMSL Basis Set Exchange (bse.pnl.gov) Feb. 2017
  H-He, B-F, Al-Ar, Ga-Kr : F. Weigend, A. Kohn, C. Hattig, J. Chem. Phys. 116, 3175 (2002)
             Li-Be, Na-Mg : C. Haettig, Phys. Chem. Chem. Phys. 7, 59 (2005)
                       Ne : C. Haettig, Phys. Chem. Chem. Phys. 7, 59 (2005)
                            F. Weigend, A. Kohn, C. Hattig, J. Chem. Phys. 116, 3175 (2002)
                    Sc-Zn : J. G. Hill, J. A. Platts, J. Chem. Phys. 128, 044104 (2008)

----- AuxJK basis set information -----
Your calculation utilizes the auxiliary basis: cc-pVTZ/JK 
  H, B-F, Al-Cl, Ga-Br : Obtained from the TURBOMOLE 7.0 basis set library

================================================================================
                                        WARNINGS
                       Please study these warnings very carefully!
================================================================================


WARNING: MDCI localization with Augmented Hessian Foster-Boys
  ===> : Switching off randomization!

WARNING: Post HF methods need fully converged wavefunctions
  ===> : Setting SCFConvForced true
         You can overwrite this default with %scf ConvForced false 


INFO   : the flag for use of LIBINT has been found!

================================================================================
                                       INPUT FILE
================================================================================
NAME = N_me_piperidine_sofa_eq.inp
|  1> ! RHF DLPNO-CCSD(T) cc-pVTZ RIJK cc-pVTZ/JK cc-pVTZ/C
|  2> ! KDIIS SOSCF TightSCF TightPNO
|  3> 
|  4> %pal nprocs 8 end
|  5> 
|  6> %maxcore 8000
|  7> 
|  8> %scf maxiter 300
|  9>      shift shift 0.2 erroff 0.1 end
| 10> end
| 11> 
| 12> * xyzfile 0 1 N_me_piperidine_sofa_eq.xyz 
| 13> 
| 14> 
| 15>                          ****END OF INPUT****
================================================================================

                       ****************************
                       * Single Point Calculation *
                       ****************************

---------------------------------
CARTESIAN COORDINATES (ANGSTROEM)
---------------------------------
  C     -1.148000    1.307600    0.020000
  C     -1.929300   -0.021800   -0.131800
  C     -1.105300   -1.323900   -0.110100
  C      0.317500   -1.135500    0.377300
  N      0.926600   -0.027700   -0.344500
  C      0.372600    1.203400    0.193700
  H     -1.550300    1.878800    0.854600
  H     -1.334400    1.905700   -0.871300
  H     -2.508100    0.012700   -1.051600
  H     -2.662200   -0.071600    0.673600
  H     -1.035100   -1.719600   -1.123100
  H     -1.610200   -2.078500    0.493100
  H      0.893700   -2.041300    0.185200
  H      0.351200   -0.949300    1.466200
  C      2.366200   -0.027100   -0.156600
  H      0.854500    2.048500   -0.298000
  H      0.629900    1.269900    1.267100
  H      2.805300    0.814000   -0.691100
  H      2.646900    0.056400    0.905600
  H      2.789800   -0.947900   -0.553800

----------------------------
CARTESIAN COORDINATES (A.U.)
----------------------------
  NO LB      ZA    FRAG     MASS         X           Y           Z
   0 C     6.0000    0    12.011   -2.169406    2.471006    0.037795
   1 C     6.0000    0    12.011   -3.645849   -0.041196   -0.249066
   2 C     6.0000    0    12.011   -2.088714   -2.501808   -0.208059
   3 C     6.0000    0    12.011    0.599988   -2.145784    0.712994
   4 N     7.0000    0    14.007    1.751020   -0.052345   -0.651011
   5 C     6.0000    0    12.011    0.704112    2.274096    0.366040
   6 H     1.0000    0     1.008   -2.929642    3.550417    1.614960
   7 H     1.0000    0     1.008   -2.521651    3.601251   -1.646518
   8 H     1.0000    0     1.008   -4.739622    0.024000   -1.987236
   9 H     1.0000    0     1.008   -5.030829   -0.135304    1.272920
  10 H     1.0000    0     1.008   -1.956056   -3.249573   -2.122351
  11 H     1.0000    0     1.008   -3.042837   -3.927796    0.931824
  12 H     1.0000    0     1.008    1.688848   -3.857498    0.349977
  13 H     1.0000    0     1.008    0.663672   -1.793917    2.770716
  14 C     6.0000    0    12.011    4.471470   -0.051212   -0.295931
  15 H     1.0000    0     1.008    1.614771    3.871104   -0.563138
  16 H     1.0000    0     1.008    1.190338    2.399763    2.394472
  17 H     1.0000    0     1.008    5.301249    1.538237   -1.305990
  18 H     1.0000    0     1.008    5.001916    0.106581    1.711336
  19 H     1.0000    0     1.008    5.271958   -1.791271   -1.046530

--------------------------------
INTERNAL COORDINATES (ANGSTROEM)
--------------------------------
 C      0   0   0     0.000000000000     0.00000000     0.00000000
 C      1   0   0     1.549444187443     0.00000000     0.00000000
 C      2   1   0     1.541074722393   116.99686954     0.00000000
 C      3   2   1     1.515721992979   113.66684317    13.45208718
 N      4   3   2     1.455753718869   109.14176072   310.14617359
 C      5   4   3     1.453334940748   107.54816056    75.05353244
 H      1   2   3     1.088426336506   109.81668383   235.37077500
 H      1   2   3     1.089442178365   107.73433532   120.33193209
 H      2   1   3     1.087304800872   108.90964281   236.07412773
 H      2   1   3     1.090087890952   107.80821323   121.98131153
 H      3   2   1     1.089805271597   109.15598992   254.76664362
 H      3   2   1     1.090043765176   110.18441518   137.50811703
 H      4   3   2     1.090588139492   109.63768480   190.96363521
 H      4   3   2     1.105219136642   111.49241401    72.28996186
 C      5   4   3     1.451810913997   110.55045017   194.25283821
 H      6   5   4     1.090041517558   108.73373545   177.08327922
 H      6   5   4     1.105808799024   108.76653153    61.18123996
 H     15   5   4     1.089012520589   109.67072141   180.74659225
 H     15   5   4     1.101831920031   112.17368009   300.97051292
 H     15   5   4     1.088612621643   109.77174321    61.63000480

---------------------------
INTERNAL COORDINATES (A.U.)
---------------------------
 C      0   0   0     0.000000000000     0.00000000     0.00000000
 C      1   0   0     2.928025174063     0.00000000     0.00000000
 C      2   1   0     2.912209177232   116.99686954     0.00000000
 C      3   2   1     2.864299461891   113.66684317    13.45208718
 N      4   3   2     2.750975847099   109.14176072   310.14617359
 C      5   4   3     2.746405018873   107.54816056    75.05353244
 H      1   2   3     2.056827692944   109.81668383   235.37077500
 H      1   2   3     2.058747355852   107.73433532   120.33193209
 H      2   1   3     2.054708297746   108.90964281   236.07412773
 H      2   1   3     2.059967575803   107.80821323   121.98131153
 H      3   2   1     2.059433502621   109.15598992   254.76664362
 H      3   2   1     2.059884190172   110.18441518   137.50811703
 H      4   3   2     2.060912908542   109.63768480   190.96363521
 H      4   3   2     2.088561486223   111.49241401    72.28996186
 C      5   4   3     2.743525025692   110.55045017   194.25283821
 H      6   5   4     2.059879942788   108.73373545   177.08327922
 H      6   5   4     2.089675786637   108.76653153    61.18123996
 H     15   5   4     2.057935420325   109.67072141   180.74659225
 H     15   5   4     2.082160574472   112.17368009   300.97051292
 H     15   5   4     2.057179720835   109.77174321    61.63000480

---------------------
BASIS SET INFORMATION
---------------------
There are 3 groups of distinct atoms

 Group   1 Type C   : 18s5p2d1f contracted to 4s3p2d1f pattern {8811/311/11/1}
 Group   2 Type N   : 18s5p2d1f contracted to 4s3p2d1f pattern {8811/311/11/1}
 Group   3 Type H   : 5s2p1d contracted to 3s2p1d pattern {311/11/1}

Atom   0C    basis set group =>   1
Atom   1C    basis set group =>   1
Atom   2C    basis set group =>   1
Atom   3C    basis set group =>   1
Atom   4N    basis set group =>   2
Atom   5C    basis set group =>   1
Atom   6H    basis set group =>   3
Atom   7H    basis set group =>   3
Atom   8H    basis set group =>   3
Atom   9H    basis set group =>   3
Atom  10H    basis set group =>   3
Atom  11H    basis set group =>   3
Atom  12H    basis set group =>   3
Atom  13H    basis set group =>   3
Atom  14C    basis set group =>   1
Atom  15H    basis set group =>   3
Atom  16H    basis set group =>   3
Atom  17H    basis set group =>   3
Atom  18H    basis set group =>   3
Atom  19H    basis set group =>   3
-------------------------------
AUXILIARY BASIS SET INFORMATION
-------------------------------
There are 3 groups of distinct atoms

 Group   1 Type C   : 8s6p5d3f1g contracted to 8s6p5d3f1g pattern {11111111/111111/11111/111/1}
 Group   2 Type N   : 8s6p5d3f1g contracted to 8s6p5d3f1g pattern {11111111/111111/11111/111/1}
 Group   3 Type H   : 4s3p2d1f contracted to 4s3p2d1f pattern {1111/111/11/1}

Atom   0C    basis set group =>   1
Atom   1C    basis set group =>   1
Atom   2C    basis set group =>   1
Atom   3C    basis set group =>   1
Atom   4N    basis set group =>   2
Atom   5C    basis set group =>   1
Atom   6H    basis set group =>   3
Atom   7H    basis set group =>   3
Atom   8H    basis set group =>   3
Atom   9H    basis set group =>   3
Atom  10H    basis set group =>   3
Atom  11H    basis set group =>   3
Atom  12H    basis set group =>   3
Atom  13H    basis set group =>   3
Atom  14C    basis set group =>   1
Atom  15H    basis set group =>   3
Atom  16H    basis set group =>   3
Atom  17H    basis set group =>   3
Atom  18H    basis set group =>   3
Atom  19H    basis set group =>   3
-------------------------------
AUXILIARY BASIS SET INFORMATION
-------------------------------
There are 3 groups of distinct atoms

 Group   1 Type C   : 10s7p5d2f1g contracted to 10s7p5d2f1g pattern {1111111111/1111111/11111/11/1}
 Group   2 Type N   : 10s7p5d2f1g contracted to 10s7p5d2f1g pattern {1111111111/1111111/11111/11/1}
 Group   3 Type H   : 4s3p2d1f contracted to 4s3p2d1f pattern {1111/111/11/1}

Atom   0C    basis set group =>   1
Atom   1C    basis set group =>   1
Atom   2C    basis set group =>   1
Atom   3C    basis set group =>   1
Atom   4N    basis set group =>   2
Atom   5C    basis set group =>   1
Atom   6H    basis set group =>   3
Atom   7H    basis set group =>   3
Atom   8H    basis set group =>   3
Atom   9H    basis set group =>   3
Atom  10H    basis set group =>   3
Atom  11H    basis set group =>   3
Atom  12H    basis set group =>   3
Atom  13H    basis set group =>   3
Atom  14C    basis set group =>   1
Atom  15H    basis set group =>   3
Atom  16H    basis set group =>   3
Atom  17H    basis set group =>   3
Atom  18H    basis set group =>   3
Atom  19H    basis set group =>   3


           ************************************************************
           *        Program running with 8 parallel MPI-processes     *
           *              working on a common directory               *
           ************************************************************
------------------------------------------------------------------------------
                           ORCA GTO INTEGRAL CALCULATION
                           -- RI-GTO INTEGRALS CHOSEN --
------------------------------------------------------------------------------

                         BASIS SET STATISTICS AND STARTUP INFO

Gaussian basis set:
 # of primitive gaussian shells          ...  286
 # of primitive gaussian functions       ...  558
 # of contracted shells                  ...  148
 # of contracted basis functions         ...  392
 Highest angular momentum                ...    3
 Maximum contraction depth               ...    8
Auxiliary gaussian basis set:
 # of primitive gaussian shells          ...  305
 # of primitive gaussian functions       ...  943
 # of contracted shells                  ...  305
 # of contracted aux-basis functions     ...  943
 Highest angular momentum                ...    4
 Maximum contraction depth               ...    1
Ratio of auxiliary to basis functions    ...  2.41
Integral package used                  ... LIBINT
 One Electron integrals                  ... done
 Ordering auxiliary basis shells         ... done
 Integral threshhold             Thresh  ...  2.500e-11
 Primitive cut-off               TCut    ...  2.500e-12
 Pre-screening matrix                    ... done
 Shell pair data                         ... 
 Ordering of the shell pairs             ... done (   0.002 sec) 10488 of 11026 pairs
 Determination of significant pairs      ... done (   0.000 sec)
 Creation of shell pair data             ... done (   0.002 sec)
 Storage of shell pair data              ... done (   0.004 sec)
 Shell pair data done in (   0.009 sec)
 Computing two index integrals           ... done
 Cholesky decomposition of the V-matrix  ... done


Timings:
 Total evaluation time                   ...   4.733 sec (  0.079 min)
 One electron matrix time                ...   4.280 sec (  0.071 min) = 90.4%
 Schwartz matrix evaluation time         ...   0.261 sec (  0.004 min) =  5.5%
 Two index repulsion integral time       ...   0.074 sec (  0.001 min) =  1.6%
 Cholesky decomposition of V             ...   0.082 sec (  0.001 min) =  1.7%
 Three index repulsion integral time     ...   0.000 sec (  0.000 min) =  0.0%



           ************************************************************
           *        Program running with 8 parallel MPI-processes     *
           *              working on a common directory               *
           ************************************************************
-------------------------------------------------------------------------------
                                 ORCA SCF
-------------------------------------------------------------------------------

------------
SCF SETTINGS
------------
Hamiltonian:
 Ab initio Hamiltonian  Method          .... Hartree-Fock(GTOs)
 RI-approximation to the Coulomb term is turned on
   Number of auxiliary basis functions  .... 943
   RI-JK (J+K treated both via RI)      .... on


General Settings:
 Integral files         IntName         .... N_me_piperidine_sofa_eq
 Hartree-Fock type      HFTyp           .... RHF
 Total Charge           Charge          ....    0
 Multiplicity           Mult            ....    1
 Number of Electrons    NEL             ....   56
 Basis Dimension        Dim             ....  392
 Nuclear Repulsion      ENuc            ....    334.2962001940 Eh

Convergence Acceleration:
 DIIS                   CNVDIIS         .... off
 Newton-Raphson         CNVNR           .... off
 SOSCF                  CNVSOSCF        .... on
   Start iteration      SOSCFMaxIt      ....   150
   Startup grad/error   SOSCFStart      ....  0.003300
 Level Shifting         CNVShift        .... on
   Level shift para.    LevelShift      ....    0.2000
   Turn off err/grad.   ShiftErr        ....    0.1000
 Zerner damping         CNVZerner       .... off
 Static damping         CNVDamp         .... off
 Fernandez-Rico         CNVRico         .... off

SCF Procedure:
 Maximum # iterations   MaxIter         ....   300
 SCF integral mode      SCFMode         .... Direct
   Integral package                     .... LIBINT
 Reset frequency        DirectResetFreq ....    20
 Integral Threshold     Thresh          ....  2.500e-11 Eh
 Primitive CutOff       TCut            ....  2.500e-12 Eh

Convergence Tolerance:
 Convergence Check Mode ConvCheckMode   .... Total+1el-Energy
 Convergence forced     ConvForced      .... 1
 Energy Change          TolE            ....  1.000e-08 Eh
 1-El. energy change                    ....  1.000e-05 Eh
 Orbital Gradient       TolG            ....  1.000e-05
 Orbital Rotation angle TolX            ....  1.000e-05


Diagonalization of the overlap matrix:
Smallest eigenvalue                        ... 1.966e-04
Time for diagonalization                   ...    0.031 sec
Threshold for overlap eigenvalues          ... 1.000e-08
Number of eigenvalues below threshold      ... 0
Time for construction of square roots      ...    0.040 sec
Total time needed                          ...    0.072 sec

-------------------
DFT GRID GENERATION
-------------------

General Integration Accuracy     IntAcc      ...  4.340
Radial Grid Type                 RadialGrid  ... Gauss-Chebyshev
Angular Grid (max. acc.)         AngularGrid ... Lebedev-110
Angular grid pruning method      GridPruning ... 3 (G Style)
Weight generation scheme         WeightScheme... Becke
Basis function cutoff            BFCut       ...    1.0000e-11
Integration weight cutoff        WCut        ...    1.0000e-14
Grids for H and He will be reduced by one unit

# of grid points (after initial pruning)     ...  21960 (   0.0 sec)
# of grid points (after weights+screening)   ...  20024 (   0.0 sec)
nearest neighbour list constructed           ...    0.0 sec
Grid point re-assignment to atoms done       ...    0.0 sec
Grid point division into batches done        ...    0.0 sec
Reduced shell lists constructed in    0.2 sec

Total number of grid points                  ...    20024
Total number of batches                      ...      321
Average number of points per batch           ...       62
Average number of grid points per atom       ...     1001
Average number of shells per batch           ...   123.21 (83.25%)
Average number of basis functions per batch  ...   318.74 (81.31%)
Average number of large shells per batch     ...    98.38 (79.85%)
Average number of large basis fcns per batch ...   252.38 (79.18%)
Average number of aux-shells per batch       ...   123.21 (40.40%)
Average number of aux functions per batch    ...   318.74 (33.80%)
Maximum spatial batch extension              ...   2.50,  2.31,  2.47 au
Average spatial batch extension              ...   0.20,  0.20,  0.19 au

Time for grid setup =    0.206 sec

------------------------------
INITIAL GUESS: MODEL POTENTIAL
------------------------------
Loading Hartree-Fock densities                     ... done
Calculating cut-offs                               ... done
Setting up the integral package                    ... done
Initializing the effective Hamiltonian             ... done
Starting the Coulomb interaction                   ... done (   0.1 sec)
Reading the grid                                   ... done
Mapping shells                                     ... done
Starting the XC term evaluation                    ... done (   0.1 sec)
Transforming the Hamiltonian                       ... done (   0.0 sec)
Diagonalizing the Hamiltonian                      ... done (   0.0 sec)
Back transforming the eigenvectors                 ... done (   0.0 sec)
Now organizing SCF variables                       ... done
                      ------------------
                      INITIAL GUESS DONE (   0.5 sec)
                      ------------------
--------------
SCF ITERATIONS
--------------
ITER       Energy         Delta-E        Max-DP      RMS-DP      [F,P]   Gradient Norm
                             ****Turning on KDIIS(Cayley)****
  0   -288.9130793789   0.000000000000 0.01524234  0.00024434  0.1250271   0.147600907
  1   -289.0219759522  -0.108896573326 0.01782581  0.00028179  0.1145526   0.128169495
  2   -289.1138083371  -0.091832384836 0.02914257  0.00048434  0.0919785   0.104088368
  3   -289.2260863939  -0.112278056866 0.04430246  0.00078700  0.0559542   0.064314108
                      *** Initiating the SOSCF procedure ***
                           *** Shutting down KDIIS ***
                      *** Re-Reading the Fockian *** 
                      *** Removing any level shift *** 
ITER      Energy       Delta-E        Grad      Rot      Max-DP    RMS-DP
  4   -289.29978703  -0.0737006384  0.002250  0.002250  0.002676  0.000064
  5   -289.30022130  -0.0004342648  0.000867  0.001180  0.001458  0.000041
  6   -289.30026892  -0.0000476189  0.000427  0.000292  0.000663  0.000017
  7   -289.30028438  -0.0000154657  0.000070  0.000075  0.000242  0.000006
  8   -289.30028481  -0.0000004276  0.000037  0.000030  0.000095  0.000002
  9   -289.30028491  -0.0000000998  0.000008  0.000013  0.000033  0.000001
 10   -289.30028491  -0.0000000055  0.000003  0.000003  0.000015  0.000000
                  ***Gradient check signals convergence***
              ***Rediagonalizing the Fockian in SOSCF/NRSCF***

               *****************************************************
               *                     SUCCESS                       *
               *           SCF CONVERGED AFTER  11 CYCLES          *
               *****************************************************


----------------
TOTAL SCF ENERGY
----------------

Total Energy       :         -289.30028492 Eh           -7872.26097 eV

Components:
Nuclear Repulsion  :          334.29620019 Eh            9096.66207 eV
Electronic Energy  :         -623.59648511 Eh          -16968.92304 eV
One Electron Energy:        -1053.36551846 Eh          -28663.53298 eV
Two Electron Energy:          429.76903335 Eh           11694.60994 eV

Virial components:
Potential Energy   :         -578.33488708 Eh          -15737.29235 eV
Kinetic Energy     :          289.03460217 Eh            7865.03138 eV
Virial Ratio       :            2.00091921


---------------
SCF CONVERGENCE
---------------

  Last Energy change         ...   -8.3503e-10  Tolerance :   1.0000e-08
  Last MAX-Density change    ...    5.5018e-06  Tolerance :   1.0000e-07
  Last RMS-Density change    ...    8.6961e-08  Tolerance :   5.0000e-09
  Last Orbital Gradient      ...    9.0081e-07  Tolerance :   1.0000e-05
  Last Orbital Rotation      ...    1.9083e-06  Tolerance :   1.0000e-05

             **** THE GBW FILE WAS UPDATED (N_me_piperidine_sofa_eq.gbw) ****
             **** DENSITY FILE WAS UPDATED (N_me_piperidine_sofa_eq.scfp.tmp) ****
             **** ENERGY FILE WAS UPDATED (N_me_piperidine_sofa_eq.en.tmp) ****
----------------
ORBITAL ENERGIES
----------------

  NO   OCC          E(Eh)            E(eV) 
   0   2.0000     -15.539624      -422.8547 
   1   2.0000     -11.239135      -305.8324 
   2   2.0000     -11.237877      -305.7982 
   3   2.0000     -11.235650      -305.7376 
   4   2.0000     -11.213199      -305.1266 
   5   2.0000     -11.212643      -305.1115 
   6   2.0000     -11.209793      -305.0340 
   7   2.0000      -1.234075       -33.5809 
   8   2.0000      -1.058741       -28.8098 
   9   2.0000      -1.011287       -27.5185 
  10   2.0000      -0.933760       -25.4089 
  11   2.0000      -0.847172       -23.0527 
  12   2.0000      -0.836131       -22.7523 
  13   2.0000      -0.737054       -20.0563 
  14   2.0000      -0.654313       -17.8047 
  15   2.0000      -0.640512       -17.4292 
  16   2.0000      -0.624657       -16.9978 
  17   2.0000      -0.603990       -16.4354 
  18   2.0000      -0.572467       -15.5776 
  19   2.0000      -0.544191       -14.8082 
  20   2.0000      -0.528726       -14.3874 
  21   2.0000      -0.525387       -14.2965 
  22   2.0000      -0.503431       -13.6990 
  23   2.0000      -0.486580       -13.2405 
  24   2.0000      -0.453423       -12.3383 
  25   2.0000      -0.438590       -11.9346 
  26   2.0000      -0.435586       -11.8529 
  27   2.0000      -0.355749        -9.6804 
  28   0.0000       0.137397         3.7388 
  29   0.0000       0.159812         4.3487 
  30   0.0000       0.167790         4.5658 
  31   0.0000       0.172270         4.6877 
  32   0.0000       0.196022         5.3340 
  33   0.0000       0.203955         5.5499 
  34   0.0000       0.206751         5.6260 
  35   0.0000       0.215687         5.8691 
  36   0.0000       0.238347         6.4857 
  37   0.0000       0.243056         6.6139 
  38   0.0000       0.253316         6.8931 
  39   0.0000       0.262036         7.1304 
  40   0.0000       0.277261         7.5447 
  41   0.0000       0.292398         7.9566 
  42   0.0000       0.317922         8.6511 
  43   0.0000       0.340710         9.2712 
  44   0.0000       0.357307         9.7228 
  45   0.0000       0.366635         9.9766 
  46   0.0000       0.372680        10.1411 
  47   0.0000       0.392944        10.6925 
  48   0.0000       0.410833        11.1793 
  49   0.0000       0.438689        11.9373 
  50   0.0000       0.451462        12.2849 
  51   0.0000       0.461455        12.5568 
  52   0.0000       0.471798        12.8383 
  53   0.0000       0.498172        13.5559 
  54   0.0000       0.520574        14.1655 
  55   0.0000       0.524246        14.2655 
  56   0.0000       0.544928        14.8282 
  57   0.0000       0.560483        15.2515 
  58   0.0000       0.569338        15.4925 
  59   0.0000       0.573350        15.6017 
  60   0.0000       0.591881        16.1059 
  61   0.0000       0.593679        16.1548 
  62   0.0000       0.601472        16.3669 
  63   0.0000       0.613833        16.7033 
  64   0.0000       0.617098        16.7921 
  65   0.0000       0.629730        17.1358 
  66   0.0000       0.638902        17.3854 
  67   0.0000       0.645113        17.5544 
  68   0.0000       0.649903        17.6847 
  69   0.0000       0.654486        17.8095 
  70   0.0000       0.666432        18.1345 
  71   0.0000       0.676871        18.4186 
  72   0.0000       0.678761        18.4700 
  73   0.0000       0.683396        18.5962 
  74   0.0000       0.694935        18.9101 
  75   0.0000       0.695449        18.9241 
  76   0.0000       0.709941        19.3185 
  77   0.0000       0.730727        19.8841 
  78   0.0000       0.751764        20.4565 
  79   0.0000       0.757169        20.6036 
  80   0.0000       0.770615        20.9695 
  81   0.0000       0.804865        21.9015 
  82   0.0000       0.840339        22.8668 
  83   0.0000       0.895708        24.3735 
  84   0.0000       0.923703        25.1352 
  85   0.0000       0.932145        25.3649 
  86   0.0000       0.942719        25.6527 
  87   0.0000       0.959177        26.1005 
  88   0.0000       0.986685        26.8491 
  89   0.0000       1.000092        27.2139 
  90   0.0000       1.012134        27.5416 
  91   0.0000       1.027453        27.9584 
  92   0.0000       1.043001        28.3815 
  93   0.0000       1.070439        29.1281 
  94   0.0000       1.085703        29.5435 
  95   0.0000       1.105603        30.0850 
  96   0.0000       1.123192        30.5636 
  97   0.0000       1.129489        30.7350 
  98   0.0000       1.156353        31.4660 
  99   0.0000       1.166534        31.7430 
 100   0.0000       1.191416        32.4201 
 101   0.0000       1.195203        32.5231 
 102   0.0000       1.212465        32.9929 
 103   0.0000       1.215891        33.0861 
 104   0.0000       1.231249        33.5040 
 105   0.0000       1.242179        33.8014 
 106   0.0000       1.254446        34.1352 
 107   0.0000       1.274094        34.6699 
 108   0.0000       1.281313        34.8663 
 109   0.0000       1.289082        35.0777 
 110   0.0000       1.306365        35.5480 
 111   0.0000       1.316250        35.8170 
 112   0.0000       1.332611        36.2622 
 113   0.0000       1.337817        36.4038 
 114   0.0000       1.344972        36.5985 
 115   0.0000       1.357691        36.9446 
 116   0.0000       1.370837        37.3024 
 117   0.0000       1.392206        37.8839 
 118   0.0000       1.401365        38.1331 
 119   0.0000       1.409742        38.3610 
 120   0.0000       1.414897        38.5013 
 121   0.0000       1.436121        39.0788 
 122   0.0000       1.440733        39.2043 
 123   0.0000       1.451226        39.4899 
 124   0.0000       1.456349        39.6293 
 125   0.0000       1.483982        40.3812 
 126   0.0000       1.489618        40.5346 
 127   0.0000       1.502807        40.8935 
 128   0.0000       1.515346        41.2347 
 129   0.0000       1.526522        41.5388 
 130   0.0000       1.540591        41.9216 
 131   0.0000       1.551469        42.2176 
 132   0.0000       1.573679        42.8220 
 133   0.0000       1.579412        42.9780 
 134   0.0000       1.588135        43.2154 
 135   0.0000       1.598539        43.4985 
 136   0.0000       1.616600        43.9899 
 137   0.0000       1.628359        44.3099 
 138   0.0000       1.648316        44.8529 
 139   0.0000       1.657784        45.1106 
 140   0.0000       1.682673        45.7878 
 141   0.0000       1.696955        46.1765 
 142   0.0000       1.704583        46.3841 
 143   0.0000       1.722536        46.8726 
 144   0.0000       1.738831        47.3160 
 145   0.0000       1.752959        47.7004 
 146   0.0000       1.771228        48.1976 
 147   0.0000       1.795305        48.8527 
 148   0.0000       1.801074        49.0097 
 149   0.0000       1.816307        49.4242 
 150   0.0000       1.832594        49.8674 
 151   0.0000       1.853810        50.4447 
 152   0.0000       1.884868        51.2899 
 153   0.0000       1.900183        51.7066 
 154   0.0000       1.931566        52.5606 
 155   0.0000       1.957307        53.2610 
 156   0.0000       2.013023        54.7771 
 157   0.0000       2.081776        56.6480 
 158   0.0000       2.127348        57.8881 
 159   0.0000       2.172035        59.1041 
 160   0.0000       2.186499        59.4977 
 161   0.0000       2.223309        60.4993 
 162   0.0000       2.253405        61.3183 
 163   0.0000       2.488853        67.7251 
 164   0.0000       2.551353        69.4258 
 165   0.0000       2.587842        70.4188 
 166   0.0000       2.601800        70.7986 
 167   0.0000       2.618017        71.2399 
 168   0.0000       2.638403        71.7946 
 169   0.0000       2.642233        71.8988 
 170   0.0000       2.709696        73.7346 
 171   0.0000       2.723178        74.1014 
 172   0.0000       2.764042        75.2134 
 173   0.0000       2.795871        76.0795 
 174   0.0000       2.803443        76.2856 
 175   0.0000       2.811550        76.5062 
 176   0.0000       2.851312        77.5882 
 177   0.0000       2.873314        78.1868 
 178   0.0000       2.899793        78.9074 
 179   0.0000       2.913266        79.2740 
 180   0.0000       2.922014        79.5120 
 181   0.0000       2.943407        80.0942 
 182   0.0000       2.958615        80.5080 
 183   0.0000       2.998814        81.6019 
 184   0.0000       3.010783        81.9276 
 185   0.0000       3.020046        82.1796 
 186   0.0000       3.033790        82.5536 
 187   0.0000       3.039288        82.7032 
 188   0.0000       3.048191        82.9455 
 189   0.0000       3.069699        83.5307 
 190   0.0000       3.073236        83.6270 
 191   0.0000       3.093783        84.1861 
 192   0.0000       3.101342        84.3918 
 193   0.0000       3.122650        84.9716 
 194   0.0000       3.127534        85.1045 
 195   0.0000       3.138589        85.4054 
 196   0.0000       3.155482        85.8650 
 197   0.0000       3.189662        86.7951 
 198   0.0000       3.193379        86.8963 
 199   0.0000       3.215271        87.4920 
 200   0.0000       3.225204        87.7623 
 201   0.0000       3.252901        88.5159 
 202   0.0000       3.263445        88.8029 
 203   0.0000       3.281545        89.2954 
 204   0.0000       3.304348        89.9159 
 205   0.0000       3.306349        89.9703 
 206   0.0000       3.316596        90.2492 
 207   0.0000       3.322574        90.4118 
 208   0.0000       3.336414        90.7884 
 209   0.0000       3.340645        90.9036 
 210   0.0000       3.360949        91.4561 
 211   0.0000       3.380824        91.9969 
 212   0.0000       3.387255        92.1719 
 213   0.0000       3.389345        92.2288 
 214   0.0000       3.407369        92.7192 
 215   0.0000       3.420053        93.0644 
 216   0.0000       3.425578        93.2147 
 217   0.0000       3.438214        93.5586 
 218   0.0000       3.460186        94.1565 
 219   0.0000       3.469717        94.4158 
 220   0.0000       3.474039        94.5334 
 221   0.0000       3.478891        94.6654 
 222   0.0000       3.494666        95.0947 
 223   0.0000       3.511655        95.5570 
 224   0.0000       3.520997        95.8112 
 225   0.0000       3.535975        96.2188 
 226   0.0000       3.543260        96.4170 
 227   0.0000       3.553452        96.6944 
 228   0.0000       3.566572        97.0513 
 229   0.0000       3.584618        97.5424 
 230   0.0000       3.594325        97.8065 
 231   0.0000       3.609150        98.2100 
 232   0.0000       3.621433        98.5442 
 233   0.0000       3.650310        99.3300 
 234   0.0000       3.656762        99.5056 
 235   0.0000       3.663593        99.6914 
 236   0.0000       3.695826       100.5685 
 237   0.0000       3.713087       101.0382 
 238   0.0000       3.722526       101.2951 
 239   0.0000       3.738211       101.7219 
 240   0.0000       3.755038       102.1798 
 241   0.0000       3.768704       102.5516 
 242   0.0000       3.788133       103.0803 
 243   0.0000       3.800176       103.4080 
 244   0.0000       3.824738       104.0764 
 245   0.0000       3.842630       104.5633 
 246   0.0000       3.853981       104.8721 
 247   0.0000       3.865935       105.1974 
 248   0.0000       3.885482       105.7293 
 249   0.0000       3.894900       105.9856 
 250   0.0000       3.903565       106.2214 
 251   0.0000       3.910513       106.4105 
 252   0.0000       3.932898       107.0196 
 253   0.0000       3.947658       107.4212 
 254   0.0000       3.964143       107.8698 
 255   0.0000       3.978651       108.2646 
 256   0.0000       3.988933       108.5444 
 257   0.0000       4.003267       108.9344 
 258   0.0000       4.018394       109.3461 
 259   0.0000       4.025795       109.5475 
 260   0.0000       4.042829       110.0110 
 261   0.0000       4.050915       110.2310 
 262   0.0000       4.074465       110.8718 
 263   0.0000       4.085845       111.1815 
 264   0.0000       4.103233       111.6546 
 265   0.0000       4.105635       111.7200 
 266   0.0000       4.110844       111.8617 
 267   0.0000       4.139539       112.6426 
 268   0.0000       4.159522       113.1864 
 269   0.0000       4.169145       113.4482 
 270   0.0000       4.189987       114.0153 
 271   0.0000       4.202159       114.3465 
 272   0.0000       4.222178       114.8913 
 273   0.0000       4.245173       115.5170 
 274   0.0000       4.250870       115.6720 
 275   0.0000       4.276547       116.3708 
 276   0.0000       4.282873       116.5429 
 277   0.0000       4.294518       116.8598 
 278   0.0000       4.301537       117.0508 
 279   0.0000       4.326155       117.7207 
 280   0.0000       4.335370       117.9714 
 281   0.0000       4.346004       118.2608 
 282   0.0000       4.367688       118.8508 
 283   0.0000       4.378979       119.1581 
 284   0.0000       4.385886       119.3460 
 285   0.0000       4.393973       119.5661 
 286   0.0000       4.415050       120.1396 
 287   0.0000       4.430104       120.5493 
 288   0.0000       4.438516       120.7782 
 289   0.0000       4.448000       121.0362 
 290   0.0000       4.466193       121.5313 
 291   0.0000       4.471303       121.6703 
 292   0.0000       4.483302       121.9969 
 293   0.0000       4.502673       122.5240 
 294   0.0000       4.512206       122.7834 
 295   0.0000       4.531846       123.3178 
 296   0.0000       4.537511       123.4719 
 297   0.0000       4.553319       123.9021 
 298   0.0000       4.570590       124.3721 
 299   0.0000       4.583275       124.7172 
 300   0.0000       4.596116       125.0667 
 301   0.0000       4.604078       125.2833 
 302   0.0000       4.625029       125.8534 
 303   0.0000       4.645034       126.3978 
 304   0.0000       4.666754       126.9888 
 305   0.0000       4.678787       127.3163 
 306   0.0000       4.700299       127.9016 
 307   0.0000       4.726022       128.6016 
 308   0.0000       4.736088       128.8755 
 309   0.0000       4.753851       129.3589 
 310   0.0000       4.768118       129.7471 
 311   0.0000       4.788135       130.2918 
 312   0.0000       4.804352       130.7331 
 313   0.0000       4.838451       131.6610 
 314   0.0000       4.855818       132.1335 
 315   0.0000       4.868884       132.4891 
 316   0.0000       4.898576       133.2970 
 317   0.0000       4.906499       133.5126 
 318   0.0000       4.914624       133.7337 
 319   0.0000       4.946168       134.5921 
 320   0.0000       4.988006       135.7306 
 321   0.0000       5.017377       136.5298 
 322   0.0000       5.027765       136.8124 
 323   0.0000       5.041937       137.1981 
 324   0.0000       5.067092       137.8826 
 325   0.0000       5.120479       139.3353 
 326   0.0000       5.154769       140.2684 
 327   0.0000       5.171559       140.7253 
 328   0.0000       5.206877       141.6863 
 329   0.0000       5.236747       142.4991 
 330   0.0000       5.260232       143.1382 
 331   0.0000       5.266832       143.3178 
 332   0.0000       5.286457       143.8518 
 333   0.0000       5.309009       144.4655 
 334   0.0000       5.333233       145.1247 
 335   0.0000       5.345117       145.4480 
 336   0.0000       5.362445       145.9195 
 337   0.0000       5.381751       146.4449 
 338   0.0000       5.393238       146.7575 
 339   0.0000       5.428018       147.7039 
 340   0.0000       5.428873       147.7271 
 341   0.0000       5.462160       148.6329 
 342   0.0000       5.478324       149.0728 
 343   0.0000       5.484625       149.2442 
 344   0.0000       5.505636       149.8160 
 345   0.0000       5.517129       150.1287 
 346   0.0000       5.543707       150.8519 
 347   0.0000       5.556252       151.1933 
 348   0.0000       5.566457       151.4710 
 349   0.0000       5.585757       151.9962 
 350   0.0000       5.600231       152.3900 
 351   0.0000       5.614357       152.7744 
 352   0.0000       5.643979       153.5805 
 353   0.0000       5.667306       154.2152 
 354   0.0000       5.688164       154.7828 
 355   0.0000       5.702565       155.1747 
 356   0.0000       5.725329       155.7941 
 357   0.0000       5.764963       156.8726 
 358   0.0000       5.777434       157.2120 
 359   0.0000       5.805500       157.9757 
 360   0.0000       5.827802       158.5826 
 361   0.0000       5.844634       159.0406 
 362   0.0000       5.884741       160.1319 
 363   0.0000       5.896914       160.4632 
 364   0.0000       5.936557       161.5419 
 365   0.0000       5.979801       162.7187 
 366   0.0000       5.995756       163.1528 
 367   0.0000       6.022175       163.8717 
 368   0.0000       6.037313       164.2836 
 369   0.0000       6.093426       165.8105 
 370   0.0000       6.110143       166.2654 
 371   0.0000       6.146065       167.2429 
 372   0.0000       6.201654       168.7556 
 373   0.0000       6.235881       169.6870 
 374   0.0000       6.250053       170.0726 
 375   0.0000       6.295771       171.3167 
 376   0.0000       6.341167       172.5519 
 377   0.0000       6.362617       173.1356 
 378   0.0000       6.374023       173.4460 
 379   0.0000       6.418559       174.6579 
 380   0.0000       6.441096       175.2711 
 381   0.0000       6.462066       175.8418 
 382   0.0000       6.470318       176.0663 
 383   0.0000       6.521951       177.4713 
 384   0.0000       6.555616       178.3874 
 385   0.0000      10.869027       295.7613 
 386   0.0000      11.886372       323.4446 
 387   0.0000      12.849042       349.6402 
 388   0.0000      13.489540       367.0690 
 389   0.0000      13.759652       374.4192 
 390   0.0000      14.089900       383.4057 
 391   0.0000      14.393567       391.6689 

                    ********************************
                    * MULLIKEN POPULATION ANALYSIS *
                    ********************************

-----------------------
MULLIKEN ATOMIC CHARGES
-----------------------
   0 C :   -0.189023
   1 C :   -0.197685
   2 C :   -0.166859
   3 C :   -0.079511
   4 N :   -0.227072
   5 C :   -0.073745
   6 H :    0.100558
   7 H :    0.094955
   8 H :    0.103065
   9 H :    0.094207
  10 H :    0.088506
  11 H :    0.098977
  12 H :    0.096548
  13 H :    0.057992
  14 C :   -0.189299
  15 H :    0.092055
  16 H :    0.050884
  17 H :    0.094762
  18 H :    0.054632
  19 H :    0.096054
Sum of atomic charges:    0.0000000

--------------------------------
MULLIKEN REDUCED ORBITAL CHARGES
--------------------------------
  0 C s       :     3.223709  s :     3.223709
      pz      :     1.011685  p :     2.852232
      px      :     0.880666
      py      :     0.959881
      dz2     :     0.015923  d :     0.106637
      dxz     :     0.017054
      dyz     :     0.028866
      dx2y2   :     0.024321
      dxy     :     0.020471
      f0      :     0.000466  f :     0.006446
      f+1     :     0.000912
      f-1     :     0.001313
      f+2     :     0.000518
      f-2     :     0.000513
      f+3     :     0.001575
      f-3     :     0.001149
  1 C s       :     3.223996  s :     3.223996
      pz      :     1.013723  p :     2.855686
      px      :     0.978171
      py      :     0.863793
      dz2     :     0.015209  d :     0.111510
      dxz     :     0.031948
      dyz     :     0.014510
      dx2y2   :     0.025812
      dxy     :     0.024030
      f0      :     0.000525  f :     0.006494
      f+1     :     0.001419
      f-1     :     0.000706
      f+2     :     0.000454
      f-2     :     0.000581
      f+3     :     0.001616
      f-3     :     0.001193
  2 C s       :     3.207601  s :     3.207601
      pz      :     1.004260  p :     2.843611
      px      :     0.888566
      py      :     0.950784
      dz2     :     0.021670  d :     0.108972
      dxz     :     0.017131
      dyz     :     0.023874
      dx2y2   :     0.021734
      dxy     :     0.024563
      f0      :     0.000964  f :     0.006675
      f+1     :     0.000677
      f-1     :     0.000880
      f+2     :     0.000576
      f-2     :     0.000802
      f+3     :     0.001531
      f-3     :     0.001246
  3 C s       :     3.185866  s :     3.185866
      pz      :     0.919115  p :     2.737957
      px      :     0.911496
      py      :     0.907346
      dz2     :     0.046247  d :     0.145948
      dxz     :     0.016780
      dyz     :     0.019995
      dx2y2   :     0.026398
      dxy     :     0.036528
      f0      :     0.001437  f :     0.009741
      f+1     :     0.000968
      f-1     :     0.001775
      f+2     :     0.001267
      f-2     :     0.001094
      f+3     :     0.001692
      f-3     :     0.001508
  4 N s       :     3.445444  s :     3.445444
      pz      :     1.590600  p :     3.698118
      px      :     1.058476
      py      :     1.049042
      dz2     :     0.007322  d :     0.078873
      dxz     :     0.012470
      dyz     :     0.018748
      dx2y2   :     0.022935
      dxy     :     0.017398
      f0      :     0.000716  f :     0.004638
      f+1     :     0.000609
      f-1     :     0.000533
      f+2     :     0.000599
      f-2     :     0.000632
      f+3     :     0.000763
      f-3     :     0.000786
  5 C s       :     3.194620  s :     3.194620
      pz      :     0.943978  p :     2.728243
      px      :     0.908173
      py      :     0.876092
      dz2     :     0.031948  d :     0.141476
      dxz     :     0.020933
      dyz     :     0.024081
      dx2y2   :     0.030422
      dxy     :     0.034092
      f0      :     0.001486  f :     0.009406
      f+1     :     0.000921
      f-1     :     0.001339
      f+2     :     0.001333
      f-2     :     0.000883
      f+3     :     0.001771
      f-3     :     0.001673
  6 H s       :     0.867322  s :     0.867322
      pz      :     0.007855  p :     0.029595
      px      :     0.010436
      py      :     0.011303
      dz2     :     0.000611  d :     0.002525
      dxz     :     0.000505
      dyz     :     0.000593
      dx2y2   :     0.000473
      dxy     :     0.000344
  7 H s       :     0.873783  s :     0.873783
      pz      :     0.007850  p :     0.028735
      px      :     0.009855
      py      :     0.011030
      dz2     :     0.000607  d :     0.002527
      dxz     :     0.000624
      dyz     :     0.000620
      dx2y2   :     0.000357
      dxy     :     0.000318
  8 H s       :     0.864989  s :     0.864989
      pz      :     0.008274  p :     0.029399
      px      :     0.011432
      py      :     0.009692
      dz2     :     0.000600  d :     0.002548
      dxz     :     0.000709
      dyz     :     0.000643
      dx2y2   :     0.000164
      dxy     :     0.000431
  9 H s       :     0.874355  s :     0.874355
      pz      :     0.007193  p :     0.028944
      px      :     0.011998
      py      :     0.009752
      dz2     :     0.000597  d :     0.002494
      dxz     :     0.000552
      dyz     :     0.000454
      dx2y2   :     0.000284
      dxy     :     0.000608
 10 H s       :     0.880985  s :     0.880985
      pz      :     0.009877  p :     0.027983
      px      :     0.008556
      py      :     0.009551
      dz2     :     0.000682  d :     0.002525
      dxz     :     0.000806
      dyz     :     0.000727
      dx2y2   :     0.000117
      dxy     :     0.000192
 11 H s       :     0.869224  s :     0.869224
      pz      :     0.007546  p :     0.029309
      px      :     0.010058
      py      :     0.011705
      dz2     :     0.000530  d :     0.002490
      dxz     :     0.000274
      dyz     :     0.000447
      dx2y2   :     0.000682
      dxy     :     0.000557
 12 H s       :     0.872878  s :     0.872878
      pz      :     0.007140  p :     0.028025
      px      :     0.010042
      py      :     0.010842
      dz2     :     0.000360  d :     0.002549
      dxz     :     0.000165
      dyz     :     0.000424
      dx2y2   :     0.000966
      dxy     :     0.000634
 13 H s       :     0.915071  s :     0.915071
      pz      :     0.010846  p :     0.024497
      px      :     0.007681
      py      :     0.005969
      dz2     :     0.000809  d :     0.002441
      dxz     :     0.000857
      dyz     :     0.000684
      dx2y2   :     0.000059
      dxy     :     0.000033
 14 C s       :     3.239909  s :     3.239909
      pz      :     0.990896  p :     2.838004
      px      :     0.805551
      py      :     1.041556
      dz2     :     0.019088  d :     0.103955
      dxz     :     0.024310
      dyz     :     0.010639
      dx2y2   :     0.024187
      dxy     :     0.025731
      f0      :     0.001687  f :     0.007432
      f+1     :     0.001097
      f-1     :     0.000151
      f+2     :     0.001433
      f-2     :     0.000162
      f+3     :     0.001702
      f-3     :     0.001200
 15 H s       :     0.877217  s :     0.877217
      pz      :     0.006506  p :     0.028149
      px      :     0.010828
      py      :     0.010815
      dz2     :     0.000514  d :     0.002578
      dxz     :     0.000217
      dyz     :     0.000413
      dx2y2   :     0.000843
      dxy     :     0.000591
 16 H s       :     0.922891  s :     0.922891
      pz      :     0.009044  p :     0.023719
      px      :     0.008502
      py      :     0.006173
      dz2     :     0.000738  d :     0.002506
      dxz     :     0.000786
      dyz     :     0.000797
      dx2y2   :     0.000152
      dxy     :     0.000033
 17 H s       :     0.877875  s :     0.877875
      pz      :     0.008513  p :     0.025129
      px      :     0.007095
      py      :     0.009521
      dz2     :     0.000441  d :     0.002235
      dxz     :     0.000275
      dyz     :     0.000432
      dx2y2   :     0.000527
      dxy     :     0.000560
 18 H s       :     0.921846  s :     0.921846
      pz      :     0.008135  p :     0.021367
      px      :     0.006477
      py      :     0.006755
      dz2     :     0.000701  d :     0.002156
      dxz     :     0.000762
      dyz     :     0.000544
      dx2y2   :     0.000112
      dxy     :     0.000037
 19 H s       :     0.876632  s :     0.876632
      pz      :     0.008435  p :     0.025077
      px      :     0.006868
      py      :     0.009774
      dz2     :     0.000381  d :     0.002237
      dxz     :     0.000183
      dyz     :     0.000451
      dx2y2   :     0.000570
      dxy     :     0.000652


                     *******************************
                     * LOEWDIN POPULATION ANALYSIS *
                     *******************************

----------------------
LOEWDIN ATOMIC CHARGES
----------------------
   0 C :    0.068372
   1 C :    0.071989
   2 C :    0.055745
   3 C :   -0.021660
   4 N :    0.247587
   5 C :   -0.024177
   6 H :   -0.029640
   7 H :   -0.029508
   8 H :   -0.028882
   9 H :   -0.032200
  10 H :   -0.027235
  11 H :   -0.030050
  12 H :   -0.027517
  13 H :   -0.042471
  14 C :    0.037269
  15 H :   -0.029524
  16 H :   -0.045547
  17 H :   -0.032987
  18 H :   -0.045564
  19 H :   -0.033998

-------------------------------
LOEWDIN REDUCED ORBITAL CHARGES
-------------------------------
  0 C s       :     2.659087  s :     2.659087
      pz      :     0.979186  p :     2.827886
      px      :     0.917840
      py      :     0.930860
      dz2     :     0.055801  d :     0.404452
      dxz     :     0.067496
      dyz     :     0.098199
      dx2y2   :     0.094401
      dxy     :     0.088555
      f0      :     0.003526  f :     0.040202
      f+1     :     0.005434
      f-1     :     0.005820
      f+2     :     0.005028
      f-2     :     0.005891
      f+3     :     0.006278
      f-3     :     0.008224
  1 C s       :     2.657665  s :     2.657665
      pz      :     0.980904  p :     2.823628
      px      :     0.935151
      py      :     0.907573
      dz2     :     0.054764  d :     0.406287
      dxz     :     0.104475
      dyz     :     0.059179
      dx2y2   :     0.093307
      dxy     :     0.094562
      f0      :     0.003755  f :     0.040431
      f+1     :     0.005596
      f-1     :     0.004839
      f+2     :     0.007302
      f-2     :     0.004378
      f+3     :     0.006225
      f-3     :     0.008337
  2 C s       :     2.656965  s :     2.656965
      pz      :     0.970476  p :     2.824543
      px      :     0.923605
      py      :     0.930462
      dz2     :     0.076392  d :     0.421541
      dxz     :     0.067624
      dyz     :     0.084499
      dx2y2   :     0.087371
      dxy     :     0.105656
      f0      :     0.005297  f :     0.041205
      f+1     :     0.005036
      f-1     :     0.004329
      f+2     :     0.004935
      f-2     :     0.006395
      f+3     :     0.006782
      f-3     :     0.008431
  3 C s       :     2.663245  s :     2.663245
      pz      :     0.938315  p :     2.763386
      px      :     0.928284
      py      :     0.896787
      dz2     :     0.163107  d :     0.533847
      dxz     :     0.069387
      dyz     :     0.074607
      dx2y2   :     0.101320
      dxy     :     0.125426
      f0      :     0.005789  f :     0.061183
      f+1     :     0.007065
      f-1     :     0.010731
      f+2     :     0.009858
      f-2     :     0.009113
      f+3     :     0.009386
      f-3     :     0.009240
  4 N s       :     2.909076  s :     2.909076
      pz      :     1.436268  p :     3.549428
      px      :     1.058922
      py      :     1.054238
      dz2     :     0.038905  d :     0.273735
      dxz     :     0.038396
      dyz     :     0.047653
      dx2y2   :     0.078626
      dxy     :     0.070155
      f0      :     0.001272  f :     0.020174
      f+1     :     0.001580
      f-1     :     0.002941
      f+2     :     0.003766
      f-2     :     0.002892
      f+3     :     0.002675
      f-3     :     0.005047
  5 C s       :     2.665644  s :     2.665644
      pz      :     0.957695  p :     2.767049
      px      :     0.927499
      py      :     0.881855
      dz2     :     0.125828  d :     0.531329
      dxz     :     0.074910
      dyz     :     0.097698
      dx2y2   :     0.117129
      dxy     :     0.115764
      f0      :     0.007411  f :     0.060155
      f+1     :     0.005597
      f-1     :     0.007783
      f+2     :     0.009490
      f-2     :     0.008992
      f+3     :     0.009930
      f-3     :     0.010953
  6 H s       :     0.844143  s :     0.844143
      pz      :     0.060435  p :     0.156320
      px      :     0.045109
      py      :     0.050776
      dz2     :     0.008824  d :     0.029177
      dxz     :     0.005687
      dyz     :     0.006941
      dx2y2   :     0.004134
      dxy     :     0.003591
  7 H s       :     0.842590  s :     0.842590
      pz      :     0.063678  p :     0.157658
      px      :     0.041937
      py      :     0.052043
      dz2     :     0.008969  d :     0.029261
      dxz     :     0.006294
      dyz     :     0.007619
      dx2y2   :     0.003293
      dxy     :     0.003087
  8 H s       :     0.842556  s :     0.842556
      pz      :     0.065168  p :     0.157020
      px      :     0.051848
      py      :     0.040003
      dz2     :     0.009248  d :     0.029307
      dxz     :     0.008429
      dyz     :     0.006210
      dx2y2   :     0.002187
      dxy     :     0.003233
  9 H s       :     0.844989  s :     0.844989
      pz      :     0.059576  p :     0.158069
      px      :     0.057974
      py      :     0.040518
      dz2     :     0.008650  d :     0.029143
      dxz     :     0.007323
      dyz     :     0.004563
      dx2y2   :     0.003630
      dxy     :     0.004976
 10 H s       :     0.842565  s :     0.842565
      pz      :     0.071018  p :     0.155421
      px      :     0.040200
      py      :     0.044203
      dz2     :     0.009204  d :     0.029249
      dxz     :     0.008648
      dyz     :     0.008745
      dx2y2   :     0.001196
      dxy     :     0.001456
 11 H s       :     0.846566  s :     0.846566
      pz      :     0.050553  p :     0.154752
      px      :     0.047615
      py      :     0.056585
      dz2     :     0.006808  d :     0.028731
      dxz     :     0.003902
      dyz     :     0.005706
      dx2y2   :     0.006473
      dxy     :     0.005842
 12 H s       :     0.850949  s :     0.850949
      pz      :     0.037806  p :     0.147993
      px      :     0.049139
      py      :     0.061049
      dz2     :     0.003443  d :     0.028575
      dxz     :     0.002222
      dyz     :     0.006351
      dx2y2   :     0.008999
      dxy     :     0.007560
 13 H s       :     0.867362  s :     0.867362
      pz      :     0.077390  p :     0.147656
      px      :     0.036983
      py      :     0.033283
      dz2     :     0.009899  d :     0.027453
      dxz     :     0.008701
      dyz     :     0.008061
      dx2y2   :     0.000428
      dxy     :     0.000365
 14 C s       :     2.668425  s :     2.668425
      pz      :     0.986515  p :     2.824886
      px      :     0.841867
      py      :     0.996504
      dz2     :     0.081677  d :     0.420936
      dxz     :     0.114982
      dyz     :     0.039888
      dx2y2   :     0.086968
      dxy     :     0.097420
      f0      :     0.008284  f :     0.048484
      f+1     :     0.006352
      f-1     :     0.000739
      f+2     :     0.010823
      f-2     :     0.004380
      f+3     :     0.009482
      f-3     :     0.008424
 15 H s       :     0.852647  s :     0.852647
      pz      :     0.045223  p :     0.148285
      px      :     0.046118
      py      :     0.056944
      dz2     :     0.005626  d :     0.028592
      dxz     :     0.002689
      dyz     :     0.006297
      dx2y2   :     0.007475
      dxy     :     0.006504
 16 H s       :     0.869412  s :     0.869412
      pz      :     0.077110  p :     0.148429
      px      :     0.039057
      py      :     0.032261
      dz2     :     0.009501  d :     0.027706
      dxz     :     0.008315
      dyz     :     0.008643
      dx2y2   :     0.000952
      dxy     :     0.000295
 17 H s       :     0.857946  s :     0.857946
      pz      :     0.048439  p :     0.147080
      px      :     0.037204
      py      :     0.061438
      dz2     :     0.006026  d :     0.027961
      dxz     :     0.003058
      dyz     :     0.006068
      dx2y2   :     0.006791
      dxy     :     0.006018
 18 H s       :     0.872061  s :     0.872061
      pz      :     0.074303  p :     0.146459
      px      :     0.032715
      py      :     0.039441
      dz2     :     0.008578  d :     0.027044
      dxz     :     0.008023
      dyz     :     0.009061
      dx2y2   :     0.000971
      dxy     :     0.000411
 19 H s       :     0.858825  s :     0.858825
      pz      :     0.044997  p :     0.147173
      px      :     0.036821
      py      :     0.065355
      dz2     :     0.004668  d :     0.028000
      dxz     :     0.002116
      dyz     :     0.006936
      dx2y2   :     0.007337
      dxy     :     0.006943


                      *****************************
                      * MAYER POPULATION ANALYSIS *
                      *****************************

  NA   - Mulliken gross atomic population
  ZA   - Total nuclear charge
  QA   - Mulliken gross atomic charge
  VA   - Mayer's total valence
  BVA  - Mayer's bonded valence
  FA   - Mayer's free valence

  ATOM       NA         ZA         QA         VA         BVA        FA
  0 C      6.1890     6.0000    -0.1890     3.8221     3.8221     0.0000
  1 C      6.1977     6.0000    -0.1977     3.8435     3.8435     0.0000
  2 C      6.1669     6.0000    -0.1669     3.8458     3.8458     0.0000
  3 C      6.0795     6.0000    -0.0795     3.9038     3.9038     0.0000
  4 N      7.2271     7.0000    -0.2271     2.9172     2.9172    -0.0000
  5 C      6.0737     6.0000    -0.0737     3.9046     3.9046     0.0000
  6 H      0.8994     1.0000     0.1006     0.9829     0.9829    -0.0000
  7 H      0.9050     1.0000     0.0950     0.9821     0.9821     0.0000
  8 H      0.8969     1.0000     0.1031     0.9786     0.9786     0.0000
  9 H      0.9058     1.0000     0.0942     0.9810     0.9810     0.0000
 10 H      0.9115     1.0000     0.0885     0.9913     0.9913     0.0000
 11 H      0.9010     1.0000     0.0990     0.9827     0.9827    -0.0000
 12 H      0.9035     1.0000     0.0965     0.9797     0.9797     0.0000
 13 H      0.9420     1.0000     0.0580     0.9864     0.9864     0.0000
 14 C      6.1893     6.0000    -0.1893     3.9232     3.9232    -0.0000
 15 H      0.9079     1.0000     0.0921     0.9813     0.9813     0.0000
 16 H      0.9491     1.0000     0.0509     0.9831     0.9831     0.0000
 17 H      0.9052     1.0000     0.0948     0.9780     0.9780    -0.0000
 18 H      0.9454     1.0000     0.0546     0.9735     0.9735     0.0000
 19 H      0.9039     1.0000     0.0961     0.9786     0.9786    -0.0000

  Mayer bond orders larger than 0.1
B(  0-C ,  1-C ) :   0.9242 B(  0-C ,  5-C ) :   0.9429 B(  0-C ,  6-H ) :   0.9983 
B(  0-C ,  7-H ) :   0.9975 B(  1-C ,  2-C ) :   0.9337 B(  1-C ,  8-H ) :   1.0002 
B(  1-C ,  9-H ) :   0.9997 B(  2-C ,  3-C ) :   0.9638 B(  2-C , 10-H ) :   0.9882 
B(  2-C , 11-H ) :   0.9946 B(  3-C ,  4-N ) :   0.9603 B(  3-C , 12-H ) :   0.9937 
B(  3-C , 13-H ) :   0.9735 B(  4-N ,  5-C ) :   0.9806 B(  4-N , 14-C ) :   0.9850 
B(  5-C , 15-H ) :   0.9939 B(  5-C , 16-H ) :   0.9828 B( 14-C , 17-H ) :   0.9865 
B( 14-C , 18-H ) :   0.9669 B( 14-C , 19-H ) :   0.9865 

-------
TIMINGS
-------

Total SCF time: 0 days 0 hours 0 min 21 sec 

Total time                  ....      21.829 sec
Sum of individual times     ....      21.506 sec  ( 98.5%)

Fock matrix formation       ....      20.575 sec  ( 94.3%)
Diagonalization             ....       0.143 sec  (  0.7%)
Density matrix formation    ....       0.020 sec  (  0.1%)
Population analysis         ....       0.057 sec  (  0.3%)
Initial guess               ....       0.327 sec  (  1.5%)
Orbital Transformation      ....       0.000 sec  (  0.0%)
Orbital Orthonormalization  ....       0.000 sec  (  0.0%)
DIIS solution               ....       0.000 sec  (  0.0%)
SOSCF solution              ....       0.178 sec  (  0.8%)


           ************************************************************
           *        Program running with 8 parallel MPI-processes     *
           *              working on a common directory               *
           ************************************************************


------------------------------------------------------------------------------- 
                              ORCA-MATRIX DRIVEN CI                            
------------------------------------------------------------------------------- 


Wavefunction type
-----------------
Correlation treatment                      ...      CCSD     
Single excitations                         ... ON
Orbital optimization                       ... OFF
Calculation of Z vector                    ... OFF
Calculation of Brueckner orbitals          ... OFF
Perturbative triple excitations            ... ON
Calculation of F12 correction              ... OFF
Frozen core treatment                      ... chemical core (14 el)
Reference Wavefunction                     ... RHF
  Internal Orbitals:     7 ...   27 ( 21 MO's/ 42 electrons)
  Virtual  Orbitals:    28 ...  391 (364 MO's              )
Number of AO's                             ...    392
Number of electrons                        ...     56
Number of correlated electrons             ...     42

Algorithmic settings
--------------------
Integral transformation                    ... All integrals via the RI transformation
K(C) Formation                             ... RI-DLPNO
   PNO-Integral Storage                    ... ON DISK
   PNO occupation number cut-off           ... 1.000e-07
   Singles PNO occupation number cut-off   ... 3.000e-09
   PNO Mulliken prescreening cut-off       ... 1.000e-03
   Domain cut-off (Mulliken population)    ... 1.000e-03
   PNO Normalization                       ...    1
Maximum number of iterations               ...        50
Convergence tolerance (max. residuum)      ... 1.000e-05
Level shift for amplitude update           ... 2.000e-01
Maximum number of DIIS vectors             ...         7
DIIS turned on at iteration                ...         0
Damping before turning on DIIS             ...     0.500
Damping after turning on DIIS              ...     0.000
Pair specific amplitude update             ... OFF
Natural orbital iterations                 ... OFF
Perturbative natural orbital generation    ... OFF
Printlevel                                 ... 2

Singles Fock matrix elements calculated using PNOs.

Memory handling:
----------------
Maximum memory for working arrays          ...   8000 MB
Data storage in matrix containers          ... UNCOMPRESSED
Data type for integral storage             ... DOUBLE
In-Core Storage of quantities:
   Amplitudes+Sigma Vector      ... NO
   J+K operators                ... NO
   DIIS vectors                 ... NO
   3-external integrals         ... NO
   4-external integrals         ... NO

Localization treatment:
-----------------------
Localization option                        ...    6
Localization threshhold                    ... -1.0e+00
Using relative localization threshhold     ... 1.0e-08
Neglect threshold for strong pairs         ... 1.000e-05 Eh
Prescreening threshold for very weak pairs ... 1.000e-07 Eh

Initializing the integral package          ... done
Localizing the valence orbitals
------------------------------------------------------------------------------
                           ORCA ORBITAL LOCALIZATION
------------------------------------------------------------------------------

Input orbitals are from                  ... N_me_piperidine_sofa_eq.proc0.gbw
Output orbitals are to                   ... N_me_piperidine_sofa_eq.proc0.loc
Max. number of iterations                ... 128
Localizations seeded randomly            ... off
Convergence tolerance                    ... 1.000e-06
Using relative localization threshhold   ... 1.000e-08
Treshold for strong local MOs            ... 9.500e-01
Treshold for bond MOs                    ... 8.500e-01
Operator                                 ... 0
Orbital range for localization           ... 7 to 27
Localization criterion                   ... FOSTER-BOYS (AUGMENTED HESSIAN)
Doing the dipole integrals     ... o.k.
Initial value of the localization sum :   222.180291
ITERATION   0 : L=  283.1481625623 DL=  6.10e+01 (AVERGE_DL)=    0.5388164783 
ITERATION   1 : L=  288.3019420664 DL=  5.15e+00 (AVERGE_DL)=    0.1566582496 
ITERATION   2 : L=  288.3595053662 DL=  5.76e-02 (AVERGE_DL)=    0.0165562964 
ITERATION   3 : L=  288.3595422814 DL=  3.69e-05 (AVERGE_DL)=    0.0004192693 
ITERATION   4 : L=  288.3595423896 DL=  1.08e-07 (AVERGE_DL)=    0.0000226957 
LOCALIZATION SUM CONVERGED

------------------------------------------------------
AUGMENTED HESSIAN OPTIMIZATION OF FOSTER-BOYS ORBITALS
------------------------------------------------------

Spin operator:           0
Orbital window:          7 to 27
Number of iterations:    128
Gradient tolerance:      1.000e-06
Number of pairs:         210
Davidson threshold:      2000
Diagonalization method:  LAPACK
Iter:    0   L: 288.3595423896   Grad. norm: 1.122763e-03
   *** Likely close to a maximum now. ***
       Augmented Hessian eigenvalues:  8.91e-09 -6.52e+00 -6.73e+00 -9.67e+00 ... 
Iter:    1   L: 288.3595423940   Grad. norm: 6.923998e-10
LOCALIZATION HAS CONVERGED.

Eigenvalues of the Hessian:
  0 -6.518e+00
  1 -6.725e+00
  2 -9.667e+00
  3 -1.205e+01
  4 -1.581e+01
  5 -1.611e+01
  6 -1.731e+01
  7 -1.742e+01
  8 -1.752e+01
  9 -1.755e+01
    ...


------------------------------------------------------------------------------- 
                    LOCALIZED MOLECULAR ORBITAL COMPOSITIONS                   
------------------------------------------------------------------------------- 

The Mulliken populations for each LMO on each atom are computed
The LMO`s will be ordered according to atom index and type
  (A) Strongly localized MO`s have populations of >=0.950 on one atom
  (B) Two center bond orbitals have populations of >=0.850 on two atoms
  (C) Other MO`s are considered to be `delocalized`

FOUND  -   1 strongly local MO`s
       -  20 two center bond MO`s
       -   0 significantly delocalized MO`s

Rather strongly localized orbitals:
MO   7:   4N  -   0.960572
Bond-like localized orbitals:
MO  27:  19H  -   0.471283  and  14C  -   0.558973
MO  26:  18H  -   0.496513  and  14C  -   0.543171
MO  25:  17H  -   0.472273  and  14C  -   0.558218
MO  24:  16H  -   0.496245  and   5C  -   0.552967
MO  23:  15H  -   0.472236  and   5C  -   0.561484
MO  22:  14C  -   0.430090  and   4N  -   0.588579
MO  21:  13H  -   0.489644  and   3C  -   0.547734
MO  20:  12H  -   0.469642  and   3C  -   0.562797
MO  19:  11H  -   0.468680  and   2C  -   0.566540
MO  18:  10H  -   0.472713  and   2C  -   0.558548
MO  17:   9H  -   0.473611  and   1C  -   0.565882
MO  16:   8H  -   0.468800  and   1C  -   0.568766
MO  15:   7H  -   0.472847  and   0C  -   0.564930
MO  14:   6H  -   0.468412  and   0C  -   0.568576
MO  13:   5C  -   0.422663  and   4N  -   0.593204
MO  12:   5C  -   0.526718  and   0C  -   0.508033
MO  11:   4N  -   0.592350  and   3C  -   0.428545
MO  10:   3C  -   0.531708  and   2C  -   0.505436
MO   9:   2C  -   0.513145  and   1C  -   0.518353
MO   8:   1C  -   0.509885  and   0C  -   0.520375
Localized MO's were stored in: N_me_piperidine_sofa_eq.proc0.loc

Localizing the core orbitals
------------------------------------------------------------------------------
                           ORCA ORBITAL LOCALIZATION
------------------------------------------------------------------------------

Input orbitals are from                  ... N_me_piperidine_sofa_eq.proc0.loc
Output orbitals are to                   ... N_me_piperidine_sofa_eq.proc0.loc
Max. number of iterations                ... 128
Localizations seeded randomly            ... off
Convergence tolerance                    ... 1.000e-06
Using relative localization threshhold   ... 1.000e-08
Treshold for strong local MOs            ... 9.500e-01
Treshold for bond MOs                    ... 8.500e-01
Operator                                 ... 0
Orbital range for localization           ... 0 to 6
Localization criterion                   ... FOSTER-BOYS (AUGMENTED HESSIAN)
Doing the dipole integrals     ... o.k.
Initial value of the localization sum :    69.683834
ITERATION   0 : L=   69.6838354214 DL=  1.89e-06 (AVERGE_DL)=    0.0003000043 
ITERATION   1 : L=   69.6838354214 DL=  0.00e+00 (AVERGE_DL)=    0.0000000000 
LOCALIZATION SUM CONVERGED

------------------------------------------------------
AUGMENTED HESSIAN OPTIMIZATION OF FOSTER-BOYS ORBITALS
------------------------------------------------------

Spin operator:           0
Orbital window:          0 to 6
Number of iterations:    128
Gradient tolerance:      1.000e-06
Number of pairs:         21
Davidson threshold:      2000
Diagonalization method:  LAPACK
Iter:    0   L: 69.6838354214   Grad. norm: 2.061992e-06
   *** Likely close to a maximum now. ***
       Augmented Hessian eigenvalues:  4.62e-14 -3.01e+01 -3.02e+01 -3.03e+01 ... 
Iter:    1   L: 69.6838354214   Grad. norm: 4.674217e-20
LOCALIZATION HAS CONVERGED.

Eigenvalues of the Hessian:
  0 -3.010e+01
  1 -3.017e+01
  2 -3.027e+01
  3 -3.282e+01
  4 -3.362e+01
  5 -3.392e+01
  6 -3.429e+01
  7 -7.866e+01
  8 -8.015e+01
  9 -8.157e+01
    ...


------------------------------------------------------------------------------- 
                    LOCALIZED MOLECULAR ORBITAL COMPOSITIONS                   
------------------------------------------------------------------------------- 

The Mulliken populations for each LMO on each atom are computed
The LMO`s will be ordered according to atom index and type
  (A) Strongly localized MO`s have populations of >=0.950 on one atom
  (B) Two center bond orbitals have populations of >=0.850 on two atoms
  (C) Other MO`s are considered to be `delocalized`

FOUND  -   7 strongly local MO`s
       -   0 two center bond MO`s
       -   0 significantly delocalized MO`s

Rather strongly localized orbitals:
MO   6:  14C  -   1.001024
MO   5:   5C  -   1.001242
MO   4:   4N  -   0.999613
MO   3:   3C  -   1.001390
MO   2:   2C  -   1.001617
MO   1:   1C  -   1.001292
MO   0:   0C  -   1.001494
Localized MO's were stored in: N_me_piperidine_sofa_eq.proc0.loc

Warning: internal orbitals are localized - no re-canonicalization of internal orbitals

--------------------------
CLOSED-SHELL FOCK OPERATOR
--------------------------

RI-JK section for the Fock operator:
  RHF full Fock operator         ... done
  RHF frozen core Fock operator  ... done
Time needed for Fock operator              ...            7.773 sec
Reference energy                           ...   -289.300284916

--------------
DLPNO SETTINGS (2015 fully linear scaling implementation)
--------------

TCutMKN:           1.000e-03
TCutPAO:           1.000e-03
TCutPNO:           1.000e-07
TCutPNOSingles:    3.000e-09
TCutEN:            9.700e-01
TCutPAOExt:        1.000e-01
TCutPairs:         1.000e-05
TCutPre:           1.000e-07
TCutOSV:           1.000e-06
TCutDOij:          1.000e-05
TCutDO:            5.000e-03
TCutC:             1.000e-04
TCutCPAO:          1.000e-03
TCutCMO:           1.000e-03
TScaleDOMP2PreScr: 2.000e+00
TScaleMKNMP2PreScr:1.000e+01
TScalePNOMP2PreScr:1.000e+00
PAO overlap thresh 1.000e-08
Using PNOs for Singles Fock computation
Use new domains
Use fully linear algorithm
TCutTNO:           1.000e-09
TCutMP2Pairs:      1.000e-06
TCutDOStrong:      2.000e-03
TCutMKNStrong:     1.000e-02
TCutMKNWeak:       1.000e-01
TCutDOWeak:        4.000e-03
NTCutTNO:          1

--------------------------
Calculating differential overlap integrals ... ok
--------------------------
ELECTRON PAIR PRESCREENING
--------------------------

Dipole-based pair screening          .... used

   TCutDOij = 1.000000e-05
   TCutPre  = 1.000000e-07
   .... Finished loop over pairs
[...]
   TCutCMO   ...     1.0e-03
   TCutCPAO  ...     1.0e-03

--------------------------------
LOCAL RI TRANSFORMATION (IAVPAO)
--------------------------------

Orbital window:       7 to 27
Number of PAOs:     392
Basis functions:    392 (148 shells)
Aux. functions:     957 (291 shells)

Processing maps (0.0 sec)
Average map sizes:
   Aux shells -> MOs              21.0
   Aux shells -> PAOs            392.0
   MOs        -> AO shells       144.6
   PAOs       -> AO shells       148.0

Calculating integrals (0.8 sec, 60.116 MB)
Sorting integrals (0.1 sec, 60.105 MB)
Total time for the integral transformation: 1.0 sec
--------------------------------
INITIAL GUESS AND PNO GENERATION
--------------------------------

PNO truncation parameters                   .... 
    ScaleTCutPNO       =        1.000e-02
    PAOOverlapThresh   =        1.000e-08

    TCutPairs          =        1.000e-05
    TCutPNO            =        1.000e-07
    TCutPNOSingles     =        3.000e-09
    TCutMP2Pairs       =        1.000e-06
    TCutMKN            =        1.000e-03
    TCutDO             =        5.000e-03

Pair selection                          .... not used
Type of local MP2 treatment                 .... full local PMP2
Strategy for PNO selection                  .... occupation number selection
Pair density normalization                  .... MP2 norm
Spin component scaling                      .... not used

PASS-1: Formation of initial guess LMP2 amplitudes
Initial amplitudes guess done. Entering LMP2 iteration loop:
   Max. no of iterations          ...  50
   Energy convergence tolerance   ...    1.0e-07
   Residual convergence tolerance ...    5.0e-07
   Fock matrix cutoff             ...    1.0e-05 Eh
   DIIS convergence acceleration parameters:
        Max # vectors in DIIS     ... 7
        Start iteration of DIIS   ... 0
        Levelshift                ... 2.000e-01
        Damping factor 1          ... 5.000e-01
        Damping factor 2          ... 1.000e+00
   L-MP2 PNO cut-off              ...   1.0e-09
   L-MP2 PNO cut-off (core)       ...   1.0e-11
                           *** Turning on DIIS ***
LMP2-Iter=   0:  ELMP2= -1.239566246672  DE=   2.2e-02 RMAX=   3.6e-03
LMP2-Iter=   1:  ELMP2= -1.250774048960  DE=   1.1e-02 RMAX=   1.5e-03
LMP2-Iter=   2:  ELMP2= -1.252447609458  DE=   1.7e-03 RMAX=   2.9e-04
LMP2-Iter=   3:  ELMP2= -1.252595284076  DE=   1.5e-04 RMAX=   1.2e-04
LMP2-Iter=   4:  ELMP2= -1.252599557976  DE=   4.3e-06 RMAX=   3.4e-05
LMP2-Iter=   5:  ELMP2= -1.252598182493  DE=   1.4e-06 RMAX=   1.2e-05
LMP2-Iter=   6:  ELMP2= -1.252598077069  DE=   1.1e-07 RMAX=   2.4e-06
LMP2-Iter=   7:  ELMP2= -1.252598088978  DE=   1.2e-08 RMAX=   6.0e-07
LMP2-Iter=   8:  ELMP2= -1.252598093964  DE=   5.0e-09 RMAX=   6.1e-08 => CONVERGED
PASS-2: Formation of Pair natural orbitals
   .... Finished loop over pairs

 PNO Occupation Number Statistics: 
  | Av. % of trace(Dij) retained        ...  99.451595743202
  | sigma^2 in % of trace(Dij) retained ...   5.39e-01
  | Av. % of trace(Di) retained         ...  99.999684543182
  | sigma^2 in % of trace(Di) retained  ...   8.71e-09
 Distributions of % trace(Dij) recovered:
  |       >= 99.9  ...    66 ( 28.6 % of all pairs)
  |   [90.0, 99.0) ...    35 ( 15.2 % of all pairs)
  |   [99.0, 99.9) ...   130 ( 56.3 % of all pairs)
 Distributions of % trace(Di) recovered :
  |       >= 99.9  ...    21 (100.0 % of all I-pairs )

Making pair pair interaction lists          ... done

                       ===========================
                        231 OF  231 PAIRS ARE KEPT
                       ===========================

Total time spent in the initial guess                 ...    23.713 sec
L-MP2 correlation energy (all non-screened pairs)     ...      -1.252598093964 Eh
L-MP2 PNO error correction                            ...      -0.000032912128 Eh
                                                          --------------------
Initial total L-MP2 energy (non-screened pairs)       ...      -1.252631006092 Eh

Initial PNO correlation energy                        ...      -1.251268140884 Eh
sum of pair energies estimated for screened out pairs ...       0.000000000000 Eh
sum of MP2 pair energies for pairs that were not kept ...       0.000000000000 Eh
sum of PNO error estimates for the kept pairs         ...      -0.001362865208 Eh
                                                          --------------------
sum of all corrections                                         -0.001362865208
Initial total correlation energy                               -1.252631006092
Thresholds for map construction and integral transformation for fine MP2 and CCSD(T) calculation:
   TCutMKN   ...     1.0e-03
   TCutDO    ...     5.0e-03
   TCutPairs ...     1.0e-05
   TCutCMO   ...     1.0e-03
   TCutCPAO  ...     1.0e-03

Time for aux screen maps:            0.006
Time for maps after fine MP2:            0.019
-----------------------------
LOCAL RI TRANSFORMATION (IJV)
-----------------------------

Orbital window:       7 to 27
Basis functions:    392 (148 shells)
Aux. functions:     957 (291 shells)

Processing maps (0.0 sec)
Average map sizes:
   Aux shells -> MOs(i)           21.0
   Aux shells -> MOs(j)           21.0
   MOs        -> AO shells       144.6

Calculating integrals (0.8 sec, 3.231 MB)
Sorting integrals (0.0 sec, 3.220 MB)
Total time for the integral transformation: 0.8 sec
--------------------------------
LOCAL RI TRANSFORMATION (VABPAO)
--------------------------------

Number of PAOs:     392
Basis functions:    392 (148 shells)
Aux. functions:     957 (291 shells)

Processing maps (0.0 sec)
Average map sizes:
   Aux shells -> PAOs            392.0
   PAOs       -> AO shells       148.0

Calculating integrals (2.9 sec, 2099.723 MB)
Finished


-------------------------------------
Pair Pair Term precalculation with     
RI-(ij|mn) and (im|jn) transformation  
ON THE FLY                             
-------------------------------------

   IBatch   1 (of   2)              ... done (   57.647 sec)
   IBatch   2 (of   2)              ... done (   43.251 sec)
Total EXT                           ...         100.898 sec

---------------------
RI-PNO TRANSFORMATION
---------------------

Total Number of PNOs                   ...  9886
Average number of PNOs per pair        ...    42
Maximal number of PNOs per pair        ...    71
   #pairs with  1 -  5 PNOs   :    0
   #pairs with  6 - 10 PNOs   :    8
   #pairs with 11 - 15 PNOs   :   10
   #pairs with 16 - 20 PNOs   :   16
   #pairs with 21 - 25 PNOs   :   10
   #pairs with 26 - 30 PNOs   :   23
   #pairs with 31 - 35 PNOs   :   26
   #pairs with 36 - 40 PNOs   :   12
   #pairs with 41 - 45 PNOs   :    8
   #pairs with 46 - 50 PNOs   :   23
   #pairs with 51 - 55 PNOs   :   37
   #pairs with 56 - 60 PNOs   :    5
   #pairs with 61 - 65 PNOs   :   18
   #pairs with 66 - 70 PNOs   :   33
   #pairs with 71 - 75 PNOs   :    2

Generation of (ij|ab)[P] integrals            ... on
Generation of (ia|bc)[P],(ja|bc)[P] integrals ... on
Storage of 3 and 4 external integrals         ... on
Generation of ALL (ka|bc)[P] integrals        ... on
Keep RI integrals in memory                   ... off

Ibatch:  1 (of  1)
Starting 2-4 index PNO integral generation ... done

Timings:
Total PNO integral transformation time     ...         38.879 sec
Size of the 3-external file                ...       212 MB
Size of the 4-external file                ...      1570 MB
Size of the IKJL file                      ...         0 MB
Size of the all 3-external file            ...      2231 MB
Size of the 1-external file                ...         4 MB

Making pair/pair overlap matrices          ... done (    5.336 sec)
Size of the pair overlap file              ... 537 MB
Redoing the guess amplitudes               ... done (    0.005 sec)

-------------------------
FINAL STARTUP INFORMATION
-------------------------

E(0)                                       ...   -289.300284916
E(L-MP2)                                   ...     -1.252631006
E(L-MP2) including corrections             ...     -1.252631006
Initial E(tot)                             ...   -290.552915922
<T|T>                                      ...      0.351481170
Number of pairs included                   ... 231
Total number of pairs                      ... 231

------------------------------------------------
                  RHF COUPLED CLUSTER ITERATIONS
------------------------------------------------

Number of PNO amplitudes to be optimized   ...       497078
Number of non-PNO amplitudes               ...     30606576
Untruncated number of regular amplitudes   ...     30606576

Iter       E(tot)           E(Corr)          Delta-E          Residual     Time
  0   -290.517846383     -1.216198602      0.036432404      0.012838650   14.23
                           *** Turning on DIIS ***
  1   -290.577233432     -1.275585651     -0.059387049      0.005606505   15.75
  2   -290.609993732     -1.308345952     -0.032760300      0.002273709   15.70
  3   -290.615832560     -1.314184779     -0.005838827      0.000813618   14.52
  4   -290.616955335     -1.315307555     -0.001122776      0.000581433   15.02
  5   -290.617150583     -1.315502802     -0.000195247      0.000216541   15.09
  6   -290.617196565     -1.315548784     -0.000045982      0.000141906   15.08
  7   -290.617204990     -1.315557209     -0.000008425      0.000057434   15.07
  8   -290.617207338     -1.315559557     -0.000002348      0.000021699   15.05
  9   -290.617207100     -1.315559319      0.000000238      0.000005282   15.07
               --- The Coupled-Cluster iterations have converged ---

----------------------
COUPLED CLUSTER ENERGY
----------------------

E(0)                                       ...   -289.300284916
E(CORR)(strong-pairs)                      ...     -1.315559319
E(CORR)(weak-pairs)                        ...     -0.001362865
E(CORR)(corrected)                         ...     -1.316922184
E(TOT)                                     ...   -290.617207100
Singles Norm <S|S>**1/2                    ...      0.057478326  
T1 diagnostic                              ...      0.008869098  

------------------
LARGEST AMPLITUDES
------------------
  15-> 34  15-> 34       0.034250
  17-> 34  17-> 34       0.033064
  26-> 35  26-> 35       0.030761
   8-> 38   8-> 38       0.030756
  24-> 28  24-> 28       0.029184
  21-> 28  21-> 28       0.028610
  16-> 34  16-> 34       0.028239
  24-> 35  24-> 35       0.028035
  21-> 34  21-> 34       0.027882
  17-> 28  17-> 28       0.027816
  26-> 28  26-> 28       0.027782
  15-> 28  15-> 28       0.027688
  20-> 34  20-> 34       0.027603
  18-> 28  18-> 28       0.027554
  14-> 28  14-> 28       0.027363
  19-> 28  19-> 28       0.027362


-------------------------------------------
DLPNO BASED TRIPLES CORRECTION
-------------------------------------------

Singles multiplier          ...  1.000000
TCutTNO                     ... 1.000e-09
TCutMP2Pairs                ... 1.000e-06
TCutDOStrong                ... 1.000e-02
TCutMKNStrong               ... 1.000e-02
TCutDOWeak                  ... 2.000e-02
TCutMKNWeak                 ... 1.000e-01

Fragment selection                          .... not used
Number of Triples that are to be computed   ...      1750

 . . . . . . . . .
10% done  
20% done  
30% done  
40% done  
50% done  
60% done  
70% done  
80% done  
90% done               (    270.770 sec)
Triples timings:
Total time for T0               ...   289.263 sec
Total time for Iterative (T)    ...     0.000 sec
Total time of overall (T)       ...   296.897 sec

Triples List generation         ...     0.000 sec
TNO generation                  ...    18.483 sec
Pair density generation         ...     0.006 sec
Look up tables                  ...     0.000 sec
Generating 3-index integrals    ...   191.988 sec
  Make 4-ind.int. from 3-ind.int...    25.281 sec
  Projecting amplitudes (D + S) ...    22.034 sec
  Downprojecting integrals      ...     0.004 sec
  Energy contr. (sum over a,b,c)...     8.376 sec
Fitting ET(->0)                 ...     0.000 sec

Everything after 3-index        ...    78.783 sec

Timing details:
 TNO integrals                  ...   213.430 sec
   Reading 3-index integrals    ...     0.420 sec
   Sorting integrals            ...    25.843 sec
       Sorting integrals 1      ...     0.002 sec
       Sorting integrals 2      ...    16.048 sec
       Sorting integrals 3      ...     0.803 sec
       Sorting integrals 4      ...     0.037 sec
       Sorting integrals 5      ...     0.240 sec
       Sorting integrals 6      ...     8.714 sec
   Calculating local VM**-1/2   ...     0.763 sec
   Orthogonal. integrals        ...     1.208 sec
   Multipl. 3-index integrals   ...   185.197 sec
   All concerning IRIab (w/TNO) ...    13.955 sec

 Calculate W0/W1                ...    23.076 sec
 W 3-ext contribution           ...    12.854 sec
 W 3-int contribution           ...     3.365 sec
 Sorting W                      ...     6.537 sec

 V exchange contribution        ...     2.884 sec

 Timings for Triples without generation
     of 3-index integrals       ...    78.780 sec
       0 weak pairs             ...    78.780 sec
       1 weak pair              ...     0.000 sec
       2 weak pairs             ...     0.000 sec
       3 weak pairs             ...     0.000 sec
  Extra time for extrapolation  ...     0.000 sec

Number of Triples   (0, 1, 2, 3 weak pairs; overall):   1750       0       0       0  (  1750)
Number of Atoms     (0, 1, 2, 3 weak pairs; overall):   19.0     0.0     0.0     0.0  (    20)
Number of PAOs      (0, 1, 2, 3 weak pairs; overall):  376.2     0.0     0.0     0.0  (   392)
Number of AuxFcns   (0, 1, 2, 3 weak pairs; overall):  445.6     0.0     0.0     0.0  (   957)
Number of TNOs      (0, 1, 2, 3 weak pairs         ):  104.8     0.0     0.0     0.0
Aver. Number of NTNO, Atoms, PAOs, AuxFcns / Triples:   1750   104.8    19.0   376.2   445.6

Triples Correction (T)                     ...     -0.052530224
Final correlation energy                   ...     -1.369452409
E(CCSD)                                    ...   -290.617207100
E(CCSD(T))                                 ...   -290.669737324


Maximum memory used throughout the entire calculation: 7932.5 MB


------------------------------------------------------------------------------- 
                                     TIMINGS                                   
------------------------------------------------------------------------------- 


Total execution time                   ...      635.617 sec

Localization of occupied MO's          ...        0.648 sec (  0.1%)
Fock Matrix Formation                  ...        7.773 sec (  1.2%)
Global overlap, Fock, MKN matrices     ...        0.238 sec (  0.0%)
Differential overlap integrals         ...        0.161 sec (  0.0%)
Organizing maps                        ...        0.054 sec (  0.0%)
RI 3-index integral generations        ...        5.743 sec (  0.9%)
RI-PNO integral transformation         ...      145.496 sec ( 22.9%)
Initial Guess                          ...       26.947 sec (  4.2%)
DIIS Solver                            ...        2.105 sec (  0.3%)
State Vector Update                    ...        0.038 sec (  0.0%)
Sigma-vector construction              ...      150.210 sec ( 23.6%)
  <D|H|D>(0-ext)                       ...        3.671 sec (  2.4% of sigma)
  <D|H|D>(2-ext Fock)                  ...        0.015 sec (  0.0% of sigma)
  <D|H|D>(2-ext)                       ...       21.253 sec ( 14.1% of sigma)
  <D|H|D>(4-ext)                       ...       16.653 sec ( 11.1% of sigma)
  <D|H|D>(4-ext-corr)                  ...       78.670 sec ( 52.4% of sigma)
  CCSD doubles correction              ...        0.231 sec (  0.2% of sigma)
  <S|H|S>                              ...        1.079 sec (  0.7% of sigma)
  <S|H|D>(1-ext)                       ...        0.420 sec (  0.3% of sigma)
  <D|H|S>(1-ext)                       ...        0.013 sec (  0.0% of sigma)
  <S|H|D>(3-ext)                       ...        0.627 sec (  0.4% of sigma)
  Fock-dressing                        ...       20.263 sec ( 13.5% of sigma)
  Singles amplitudes                   ...        0.618 sec (  0.4% of sigma)
  (ik|jl)-dressing                     ...        2.759 sec (  1.8% of sigma)
  (ij|ab),(ia|jb)-dressing             ...        2.991 sec (  2.0% of sigma)
  Pair energies                        ...        0.009 sec (  0.0% of sigma)
Total Time for computing (T)           ...      296.982 sec ( 46.7% of ALL)


-------------------------   --------------------
FINAL SINGLE POINT ENERGY      -290.669737324327
-------------------------   --------------------


                            ***************************************
                            *     ORCA property calculations      *
                            ***************************************

                                    ---------------------
                                    Active property flags
                                    ---------------------
   (+) Dipole Moment


------------------------------------------------------------------------------
                       ORCA ELECTRIC PROPERTIES CALCULATION
------------------------------------------------------------------------------

Dipole Moment Calculation                       ... on
Quadrupole Moment Calculation                   ... off
Polarizability Calculation                      ... off
GBWName                                         ... N_me_piperidine_sofa_eq.gbw
Electron density file                           ... N_me_piperidine_sofa_eq.scfp.tmp
The origin for moment calculation is the CENTER OF MASS  = (-0.005258, -0.003360 -0.023756)

-------------
DIPOLE MOMENT
-------------
                                X             Y             Z
Electronic contribution:     -0.27198      -0.17090      -1.08376
Nuclear contribution   :      0.29330       0.18835       1.33031
                        -----------------------------------------
Total Dipole Moment    :      0.02131       0.01745       0.24655
                        -----------------------------------------
Magnitude (a.u.)       :      0.24808
Magnitude (Debye)      :      0.63057



--------------------
Rotational spectrum 
--------------------
 
Rotational constants in cm-1:     0.145119     0.077243     0.055223 
Rotational constants in MHz :  4350.551050  2315.691043  1655.539866 

 Dipole components along the rotational axes: 
x,y,z [a.u.] :     0.019771    -0.017362     0.246682 
x,y,z [Debye]:     0.050253    -0.044132     0.627017 

 

Timings for individual modules:

Sum of individual times         ...      662.901 sec (=  11.048 min)
GTO integral calculation        ...        4.881 sec (=   0.081 min)   0.7 %
SCF iterations                  ...       21.991 sec (=   0.367 min)   3.3 %
MDCI module                     ...      636.030 sec (=  10.600 min)  95.9 %
                             ****ORCA TERMINATED NORMALLY****
TOTAL RUN TIME: 0 days 0 hours 11 minutes 3 seconds 224 msec
N_me_piperidine_sofa_eq.gbw -> /home1/pantazis/klk/xyz/Energy_barrier/N_me_piperidine_sofa_eq.gbw
N_me_piperidine_sofa_eq.job -> /home1/pantazis/klk/xyz/Energy_barrier/N_me_piperidine_sofa_eq.job
N_me_piperidine_sofa_eq.loc -> /home1/pantazis/klk/xyz/Energy_barrier/N_me_piperidine_sofa_eq.loc
N_me_piperidine_sofa_eq.nodes -> /home1/pantazis/klk/xyz/Energy_barrier/N_me_piperidine_sofa_eq.nodes
N_me_piperidine_sofa_eq.prop -> /home1/pantazis/klk/xyz/Energy_barrier/N_me_piperidine_sofa_eq.prop
N_me_piperidine_sofa_eq_property.txt -> /home1/pantazis/klk/xyz/Energy_barrier/N_me_piperidine_sofa_eq_property.txt
N_me_piperidine_sofa_eq.xyz -> /home1/pantazis/klk/xyz/Energy_barrier/N_me_piperidine_sofa_eq.xyz
cp: cannot stat N_me_piperidine_sofa_eq.asa.inp: No such file or directory
