! Job execution by suborca V 6.07 on ZEUS !
Job started from zeus1, running /scratch/pantazis/N_me_piperidine_ch_NI__YClFEw/orca/orca copied from /opt/orca on zeussn124 in /scratch/pantazis/N_me_piperidine_ch_NI__YClFEw
Job execution start: Fri Jun 28 02:08:20 CEST 2019
Shared library path: /scratch/pantazis/N_me_piperidine_ch_NI__YClFEw/orca:/opt/openmpi_1.10.2/lib:/opt/intel/mkl/lib/intel64:/opt/intel/lib/intel64:
PBS Job ID is: 158329.icqc
izeussn124
izeussn124
izeussn124
izeussn124
izeussn124
izeussn124
izeussn124
izeussn124

                                 *****************
                                 * O   R   C   A *
                                 *****************

           --- An Ab Initio, DFT and Semiempirical electronic structure package ---

                  #######################################################
                  #                        -***-                        #
                  #          Department of theory and spectroscopy      #
                  #               Directorship: Frank Neese             #
                  #        Max Planck Institute fuer Kohlenforschung    #
                  #                Kaiser Wilhelm Platz 1               #
                  #                 D-45470 Muelheim/Ruhr               #
                  #                      Germany                        #
                  #                                                     #
                  #                  All rights reserved                #
                  #                        -***-                        #
                  #######################################################


                         Program Version 4.1.x  -  STABLE  -
                                (SVN: $Rev: 14094$)
                ($Date: 2019-06-14 15:01:15 +0200 (Fri, 14 Jun 2019) $)

                         (BUILD: $Sun Jun 23 06:18:31 CEST 2019$)


 With contributions from (in alphabetic order):
   Daniel Aravena         : Magnetic Properties
   Michael Atanasov       : Ab Initio Ligand Field Theory
   Alexander A. Auer      : GIAO ZORA
   Ute Becker             : Parallelization
   Giovanni Bistoni       : ED, Open-shell LED
   Martin Brehm           : Molecular dynamics
   Dmytro Bykov           : SCF Hessian
   Vijay G. Chilkuri      : MRCI spin determinant printing
   Dipayan Datta          : RHF DLPNO-CCSD density
   Achintya Kumar Dutta   : EOM-CC, STEOM-CC
   Dmitry Ganyushin       : Spin-Orbit,Spin-Spin,Magnetic field MRCI
   Miquel Garcia          : C-PCM Hessian
   Yang Guo               : DLPNO-NEVPT2, CIM, IAO-localization
   Andreas Hansen         : Spin unrestricted coupled pair/coupled cluster methods
   Benjamin Helmich-Paris : CASSCF linear response (MC-RPA)
   Lee Huntington         : MR-EOM, pCC
   Robert Izsak           : Overlap fitted RIJCOSX, COSX-SCS-MP3, EOM
   Christian Kollmar      : KDIIS, OOCD, Brueckner-CCSD(T), CCSD density
   Simone Kossmann        : Meta GGA functionals, TD-DFT gradient, OOMP2, MP2 Hessian
   Martin Krupicka        : AUTO-CI
   Lucas Lang             : DCDCAS
   Dagmar Lenk            : GEPOL surface, SMD
   Dimitrios Liakos       : Extrapolation schemes; parallel MDCI
   Dimitrios Manganas     : ROCIS; embedding schemes
   Dimitrios Pantazis     : SARC Basis sets
   Taras Petrenko         : DFT Hessian,TD-DFT gradient, ASA, ECA, R-Raman, ABS, FL, XAS/XES, NRVS
   Peter Pinski           : DLPNO-MP2, DLPNO-MP2 Gradient
   Christoph Reimann      : Effective Core Potentials
   Marius Retegan         : Local ZFS, SOC
   Christoph Riplinger    : Optimizer, TS searches, QM/MM, DLPNO-CCSD(T), (RO)-DLPNO pert. Triples
   Tobias Risthaus        : Range-separated hybrids, TD-DFT gradient, RPA, STAB
   Michael Roemelt        : Restricted open shell CIS
   Masaaki Saitow         : Open-shell DLPNO
   Barbara Sandhoefer     : DKH picture change effects
   Avijit Sen             : IP-ROCIS
   Kantharuban Sivalingam : CASSCF convergence, NEVPT2, FIC-MRCI
   Bernardo de Souza      : ESD, SOC TD-DFT
   Georgi Stoychev        : AutoAux, RI-MP2 NMR
   Willem Van den Heuvel  : Paramagnetic NMR
   Boris Wezisla          : Elementary symmetry handling
   Frank Wennmohs         : Technical directorship


 We gratefully acknowledge several colleagues who have allowed us to
 interface, adapt or use parts of their codes:
   Stefan Grimme, W. Hujo, H. Kruse,             : VdW corrections, initial TS optimization,
                  C. Bannwarth                     DFT functionals, gCP, sTDA/sTD-DF
   Ed Valeev                                     : LibInt (2-el integral package), F12 methods
   Garnet Chan, S. Sharma, J. Yang, R. Olivares  : DMRG
   Ulf Ekstrom                                   : XCFun DFT Library
   Mihaly Kallay                                 : mrcc  (arbitrary order and MRCC methods)
   Andreas Klamt, Michael Diedenhofen            : otool_cosmo (COSMO solvation model)
   Jiri Pittner, Ondrej Demel                    : Mk-CCSD
   Frank Weinhold                                : gennbo (NPA and NBO analysis)
   Christopher J. Cramer and Donald G. Truhlar   : smd solvation model
   Lars Goerigk                                  : TD-DFT with DH, B97 family of functionals
   V. Asgeirsson, H. Jonsson                     : NEB implementation
   FAccTs GmbH                                   : IRC, NEB, NEB-TS, Multilevel


 Your calculation uses the libint2 library for the computation of 2-el integrals
 For citations please refer to: http://libint.valeyev.net

 This ORCA versions uses:
   CBLAS   interface :  Fast vector & matrix operations
   LAPACKE interface :  Fast linear algebra routines
   SCALAPACK package :  Parallel linear algebra routines




***************************************
The coordinates will be read from file: N_me_piperidine_ch_NI.xyz
***************************************


----- Orbital basis set information -----
Your calculation utilizes the basis: cc-pVTZ 
       H, B-Ne : Obtained from the ccRepo (grant-hill.group.shef.ac.uk/ccrepo) Feb. 2017
                 T. H. Dunning, Jr., J. Chem. Phys. 90, 1007 (1989)
            He : Obtained from the ccRepo (grant-hill.group.shef.ac.uk/ccrepo) Feb. 2017
                 D. E. Woon, T. H. Dunning, Jr., J. Chem. Phys. 100, 2975 (1994)
  Li-Be, Na-Mg : Obtained from the ccRepo (grant-hill.group.shef.ac.uk/ccrepo) Feb. 2017
                 B. P. Prascher, D. E. Woon, K. A. Peterson, T. H. Dunning, Jr., A. K. Wilson, Theor. Chem. Acc. 128, 69 (2011)
         Al-Ar : Obtained from the ccRepo (grant-hill.group.shef.ac.uk/ccrepo) Feb. 2017
                 D. E. Woon, T. H. Dunning, Jr., J. Chem. Phys. 98, 1358 (1993)
            Ca : Obtained from the Peterson Research Group Website (tyr0.chem.wsu.edu/~kipeters) Feb. 2017
                 J. Koput, K. A. Peterson, J. Phys. Chem. 106, 9595 (2002)
         Sc-Zn : Obtained from the ccRepo (grant-hill.group.shef.ac.uk/ccrepo) Feb. 2017
                 N. B. Balabanov, K. A. Peterson, J. Chem. Phys. 123, 064107 (2005)
                 N. B. Balabanov, K. A. Peterson, J. Chem. Phys. 125, 074110 (2006)
         Ga-Kr : Obtained from the ccRepo (grant-hill.group.shef.ac.uk/ccrepo) Feb. 2017
                 A. K. Wilson, D. E. Woon, K. A. Peterson, T. H. Dunning, Jr., J. Chem. Phys. 110, 7667 (1999)
             Y : Obtained from the ccRepo (grant-hill.group.shef.ac.uk/ccrepo) Feb. 2017
                 K. A. Peterson, D. Figgen, M. Dolg, H. Stoll, J. Chem. Phys. 126, 124101 (2007)
        Ag, Au : Obtained from the Peterson Research Group Website (tyr0.chem.wsu.edu/~kipeters) Feb. 2017
                 K. A. Peterson, C. Puzzarini, Theor. Chem. Acc. 114, 283 (2005)

----- AuxC basis set information -----
Your calculation utilizes the auxiliary basis: cc-pVTZ/C 
  Obtained from the EMSL Basis Set Exchange (bse.pnl.gov) Feb. 2017
  H-He, B-F, Al-Ar, Ga-Kr : F. Weigend, A. Kohn, C. Hattig, J. Chem. Phys. 116, 3175 (2002)
             Li-Be, Na-Mg : C. Haettig, Phys. Chem. Chem. Phys. 7, 59 (2005)
                       Ne : C. Haettig, Phys. Chem. Chem. Phys. 7, 59 (2005)
                            F. Weigend, A. Kohn, C. Hattig, J. Chem. Phys. 116, 3175 (2002)
                    Sc-Zn : J. G. Hill, J. A. Platts, J. Chem. Phys. 128, 044104 (2008)

----- AuxJK basis set information -----
Your calculation utilizes the auxiliary basis: cc-pVTZ/JK 
  H, B-F, Al-Cl, Ga-Br : Obtained from the TURBOMOLE 7.0 basis set library

================================================================================
                                        WARNINGS
                       Please study these warnings very carefully!
================================================================================


WARNING: MDCI localization with Augmented Hessian Foster-Boys
  ===> : Switching off randomization!

WARNING: Post HF methods need fully converged wavefunctions
  ===> : Setting SCFConvForced true
         You can overwrite this default with %scf ConvForced false 


INFO   : the flag for use of LIBINT has been found!

================================================================================
                                       INPUT FILE
================================================================================
NAME = N_me_piperidine_ch_NI.inp
|  1> ! RHF DLPNO-CCSD(T) cc-pVTZ RIJK cc-pVTZ/JK cc-pVTZ/C
|  2> ! KDIIS SOSCF TightSCF TightPNO
|  3> 
|  4> %pal nprocs 8 end
|  5> 
|  6> %maxcore 8000
|  7> 
|  8> %scf maxiter 300
|  9>      shift shift 0.2 erroff 0.1 end
| 10> end
| 11> 
| 12> * xyzfile 0 1 N_me_piperidine_ch_NI.xyz 
| 13> 
| 14> 
| 15>                          ****END OF INPUT****
================================================================================

                       ****************************
                       * Single Point Calculation *
                       ****************************

---------------------------------
CARTESIAN COORDINATES (ANGSTROEM)
---------------------------------
  C     -1.867800   -0.000100   -0.086200
  C     -1.091300    1.254400    0.305900
  C     -1.091100   -1.254600    0.305800
  C      0.280700    1.250500   -0.363400
  C      0.280900   -1.250500   -0.363400
  N      0.963200    0.000300   -0.138900
  C      2.336700   -0.000000    0.294500
  H     -2.028800   -0.000100   -1.169200
  H     -2.853000   -0.000200    0.381100
  H     -0.959000    1.271000    1.390200
  H     -1.642000    2.153000    0.021300
  H     -1.641700   -2.153200    0.021200
  H     -0.958800   -1.271200    1.390100
  H      0.899700    2.055700    0.030400
  H      0.138300    1.447000   -1.440100
  H      0.138700   -1.446900   -1.440100
  H      0.900100   -2.055400    0.030500
  H      2.859300   -0.874300   -0.097100
  H      2.858000    0.877000   -0.092500
  H      2.459100   -0.002800    1.386000

----------------------------
CARTESIAN COORDINATES (A.U.)
----------------------------
  NO LB      ZA    FRAG     MASS         X           Y           Z
   0 C     6.0000    0    12.011   -3.529630   -0.000189   -0.162894
   1 C     6.0000    0    12.011   -2.062258    2.370472    0.578067
   2 C     6.0000    0    12.011   -2.061880   -2.370850    0.577878
   3 C     6.0000    0    12.011    0.530446    2.363103   -0.686726
   4 C     6.0000    0    12.011    0.530824   -2.363103   -0.686726
   5 N     7.0000    0    14.007    1.820184    0.000567   -0.262483
   6 C     6.0000    0    12.011    4.415723   -0.000000    0.556524
   7 H     1.0000    0     1.008   -3.833876   -0.000189   -2.209468
   8 H     1.0000    0     1.008   -5.391389   -0.000378    0.720175
   9 H     1.0000    0     1.008   -1.812247    2.401842    2.627097
  10 H     1.0000    0     1.008   -3.102930    4.068580    0.040251
  11 H     1.0000    0     1.008   -3.102363   -4.068958    0.040062
  12 H     1.0000    0     1.008   -1.811869   -2.402220    2.626908
  13 H     1.0000    0     1.008    1.700187    3.884710    0.057448
  14 H     1.0000    0     1.008    0.261349    2.734434   -2.721395
  15 H     1.0000    0     1.008    0.262105   -2.734245   -2.721395
  16 H     1.0000    0     1.008    1.700942   -3.884143    0.057637
  17 H     1.0000    0     1.008    5.403294   -1.652188   -0.183492
  18 H     1.0000    0     1.008    5.400837    1.657290   -0.174800
  19 H     1.0000    0     1.008    4.647026   -0.005291    2.619160

--------------------------------
INTERNAL COORDINATES (ANGSTROEM)
--------------------------------
 C      0   0   0     0.000000000000     0.00000000     0.00000000
 C      1   0   0     1.526586030985     0.00000000     0.00000000
 C      1   2   0     1.526662090968   110.52028523     0.00000000
 C      2   1   3     1.526552226424   110.02576389    57.95991647
 C      3   1   2     1.526508909244   110.02870818   302.04245000
 N      4   2   1     1.441945401185   111.06042009   309.25532666
 C      6   4   2     1.440256192488   119.89498234   227.54923048
 H      1   2   3     1.094901822083   109.19901103   239.86274203
 H      1   2   3     1.090407419270   110.46140025   122.54926287
 H      2   1   3     1.092467546429   109.20886739   298.30149116
 H      2   1   3     1.091672849346   110.66347820   179.66636621
 H      3   1   2     1.091622407245   110.66325274   180.32896806
 H      3   1   2     1.092467546429   109.20489091    61.69621442
 H      4   2   1     1.089305503520   110.50750143   188.91386338
 H      4   2   1     1.103708702512   108.13746487    71.96098907
 H      5   3   1     1.103665116781   108.14331374   288.03875349
 H      5   3   1     1.089233611307   110.51272677   171.06817465
 H      7   6   4     1.091266149938   110.41875878   211.66005189
 H      7   6   4     1.091169872201   110.40829747   329.45098545
 H      7   6   4     1.098345050519   113.91111565    90.55403746

---------------------------
INTERNAL COORDINATES (A.U.)
---------------------------
 C      0   0   0     0.000000000000     0.00000000     0.00000000
 C      1   0   0     2.884829518432     0.00000000     0.00000000
 C      1   2   0     2.884973250970   110.52028523     0.00000000
 C      2   1   3     2.884765637069   110.02576389    57.95991647
 C      3   1   2     2.884683779461   110.02870818   302.04245000
 N      4   2   1     2.724881908308   111.06042009   309.25532666
 C      6   4   2     2.721689766486   119.89498234   227.54923048
 H      1   2   3     2.069064587268   109.19901103   239.86274203
 H      1   2   3     2.060571396817   110.46140025   122.54926287
 H      2   1   3     2.064464472947   109.20886739   298.30149116
 H      2   1   3     2.062962713102   110.66347820   179.66636621
 H      3   1   2     2.062867391345   110.66325274   180.32896806
 H      3   1   2     2.064464472947   109.20489091    61.69621442
 H      4   2   1     2.058489077827   110.50750143   188.91386338
 H      4   2   1     2.085707179373   108.13746487    71.96098907
 H      5   3   1     2.085624814279   108.14331374   288.03875349
 H      5   3   1     2.058353221231   110.51272677   171.06817465
 H      7   6   4     2.062194162601   110.41875878   211.66005189
 H      7   6   4     2.062012224046   110.40829747   329.45098545
 H      7   6   4     2.075571346029   113.91111565    90.55403746

---------------------
BASIS SET INFORMATION
---------------------
There are 3 groups of distinct atoms

 Group   1 Type C   : 18s5p2d1f contracted to 4s3p2d1f pattern {8811/311/11/1}
 Group   2 Type N   : 18s5p2d1f contracted to 4s3p2d1f pattern {8811/311/11/1}
 Group   3 Type H   : 5s2p1d contracted to 3s2p1d pattern {311/11/1}

Atom   0C    basis set group =>   1
Atom   1C    basis set group =>   1
Atom   2C    basis set group =>   1
Atom   3C    basis set group =>   1
Atom   4C    basis set group =>   1
Atom   5N    basis set group =>   2
Atom   6C    basis set group =>   1
Atom   7H    basis set group =>   3
Atom   8H    basis set group =>   3
Atom   9H    basis set group =>   3
Atom  10H    basis set group =>   3
Atom  11H    basis set group =>   3
Atom  12H    basis set group =>   3
Atom  13H    basis set group =>   3
Atom  14H    basis set group =>   3
Atom  15H    basis set group =>   3
Atom  16H    basis set group =>   3
Atom  17H    basis set group =>   3
Atom  18H    basis set group =>   3
Atom  19H    basis set group =>   3
-------------------------------
AUXILIARY BASIS SET INFORMATION
-------------------------------
There are 3 groups of distinct atoms

 Group   1 Type C   : 8s6p5d3f1g contracted to 8s6p5d3f1g pattern {11111111/111111/11111/111/1}
 Group   2 Type N   : 8s6p5d3f1g contracted to 8s6p5d3f1g pattern {11111111/111111/11111/111/1}
 Group   3 Type H   : 4s3p2d1f contracted to 4s3p2d1f pattern {1111/111/11/1}

Atom   0C    basis set group =>   1
Atom   1C    basis set group =>   1
Atom   2C    basis set group =>   1
Atom   3C    basis set group =>   1
Atom   4C    basis set group =>   1
Atom   5N    basis set group =>   2
Atom   6C    basis set group =>   1
Atom   7H    basis set group =>   3
Atom   8H    basis set group =>   3
Atom   9H    basis set group =>   3
Atom  10H    basis set group =>   3
Atom  11H    basis set group =>   3
Atom  12H    basis set group =>   3
Atom  13H    basis set group =>   3
Atom  14H    basis set group =>   3
Atom  15H    basis set group =>   3
Atom  16H    basis set group =>   3
Atom  17H    basis set group =>   3
Atom  18H    basis set group =>   3
Atom  19H    basis set group =>   3
-------------------------------
AUXILIARY BASIS SET INFORMATION
-------------------------------
There are 3 groups of distinct atoms

 Group   1 Type C   : 10s7p5d2f1g contracted to 10s7p5d2f1g pattern {1111111111/1111111/11111/11/1}
 Group   2 Type N   : 10s7p5d2f1g contracted to 10s7p5d2f1g pattern {1111111111/1111111/11111/11/1}
 Group   3 Type H   : 4s3p2d1f contracted to 4s3p2d1f pattern {1111/111/11/1}

Atom   0C    basis set group =>   1
Atom   1C    basis set group =>   1
Atom   2C    basis set group =>   1
Atom   3C    basis set group =>   1
Atom   4C    basis set group =>   1
Atom   5N    basis set group =>   2
Atom   6C    basis set group =>   1
Atom   7H    basis set group =>   3
Atom   8H    basis set group =>   3
Atom   9H    basis set group =>   3
Atom  10H    basis set group =>   3
Atom  11H    basis set group =>   3
Atom  12H    basis set group =>   3
Atom  13H    basis set group =>   3
Atom  14H    basis set group =>   3
Atom  15H    basis set group =>   3
Atom  16H    basis set group =>   3
Atom  17H    basis set group =>   3
Atom  18H    basis set group =>   3
Atom  19H    basis set group =>   3


           ************************************************************
           *        Program running with 8 parallel MPI-processes     *
           *              working on a common directory               *
           ************************************************************
------------------------------------------------------------------------------
                           ORCA GTO INTEGRAL CALCULATION
                           -- RI-GTO INTEGRALS CHOSEN --
------------------------------------------------------------------------------

                         BASIS SET STATISTICS AND STARTUP INFO

Gaussian basis set:
 # of primitive gaussian shells          ...  286
 # of primitive gaussian functions       ...  558
 # of contracted shells                  ...  148
 # of contracted basis functions         ...  392
 Highest angular momentum                ...    3
 Maximum contraction depth               ...    8
Auxiliary gaussian basis set:
 # of primitive gaussian shells          ...  305
 # of primitive gaussian functions       ...  943
 # of contracted shells                  ...  305
 # of contracted aux-basis functions     ...  943
 Highest angular momentum                ...    4
 Maximum contraction depth               ...    1
Ratio of auxiliary to basis functions    ...  2.41
Integral package used                  ... LIBINT
 One Electron integrals                  ... done
 Ordering auxiliary basis shells         ... done
 Integral threshhold             Thresh  ...  2.500e-11
 Primitive cut-off               TCut    ...  2.500e-12
 Pre-screening matrix                    ... done
 Shell pair data                         ... 
 Ordering of the shell pairs             ... done (   0.002 sec) 10520 of 11026 pairs
 Determination of significant pairs      ... done (   0.000 sec)
 Creation of shell pair data             ... done (   0.002 sec)
 Storage of shell pair data              ... done (   0.004 sec)
 Shell pair data done in (   0.008 sec)
 Computing two index integrals           ... done
 Cholesky decomposition of the V-matrix  ... done


Timings:
 Total evaluation time                   ...   0.596 sec (  0.010 min)
 One electron matrix time                ...   0.153 sec (  0.003 min) = 25.7%
 Schwartz matrix evaluation time         ...   0.246 sec (  0.004 min) = 41.3%
 Two index repulsion integral time       ...   0.090 sec (  0.002 min) = 15.1%
 Cholesky decomposition of V             ...   0.071 sec (  0.001 min) = 12.0%
 Three index repulsion integral time     ...   0.000 sec (  0.000 min) =  0.0%



           ************************************************************
           *        Program running with 8 parallel MPI-processes     *
           *              working on a common directory               *
           ************************************************************
-------------------------------------------------------------------------------
                                 ORCA SCF
-------------------------------------------------------------------------------

------------
SCF SETTINGS
------------
Hamiltonian:
 Ab initio Hamiltonian  Method          .... Hartree-Fock(GTOs)
 RI-approximation to the Coulomb term is turned on
   Number of auxiliary basis functions  .... 943
   RI-JK (J+K treated both via RI)      .... on


General Settings:
 Integral files         IntName         .... N_me_piperidine_ch_NI
 Hartree-Fock type      HFTyp           .... RHF
 Total Charge           Charge          ....    0
 Multiplicity           Mult            ....    1
 Number of Electrons    NEL             ....   56
 Basis Dimension        Dim             ....  392
 Nuclear Repulsion      ENuc            ....    335.0281993743 Eh

Convergence Acceleration:
 DIIS                   CNVDIIS         .... off
 Newton-Raphson         CNVNR           .... off
 SOSCF                  CNVSOSCF        .... on
   Start iteration      SOSCFMaxIt      ....   150
   Startup grad/error   SOSCFStart      ....  0.003300
 Level Shifting         CNVShift        .... on
   Level shift para.    LevelShift      ....    0.2000
   Turn off err/grad.   ShiftErr        ....    0.1000
 Zerner damping         CNVZerner       .... off
 Static damping         CNVDamp         .... off
 Fernandez-Rico         CNVRico         .... off

SCF Procedure:
 Maximum # iterations   MaxIter         ....   300
 SCF integral mode      SCFMode         .... Direct
   Integral package                     .... LIBINT
 Reset frequency        DirectResetFreq ....    20
 Integral Threshold     Thresh          ....  2.500e-11 Eh
 Primitive CutOff       TCut            ....  2.500e-12 Eh

Convergence Tolerance:
 Convergence Check Mode ConvCheckMode   .... Total+1el-Energy
 Convergence forced     ConvForced      .... 1
 Energy Change          TolE            ....  1.000e-08 Eh
 1-El. energy change                    ....  1.000e-05 Eh
 Orbital Gradient       TolG            ....  1.000e-05
 Orbital Rotation angle TolX            ....  1.000e-05


Diagonalization of the overlap matrix:
Smallest eigenvalue                        ... 2.737e-04
Time for diagonalization                   ...    0.029 sec
Threshold for overlap eigenvalues          ... 1.000e-08
Number of eigenvalues below threshold      ... 0
Time for construction of square roots      ...    0.043 sec
Total time needed                          ...    0.072 sec

-------------------
DFT GRID GENERATION
-------------------

General Integration Accuracy     IntAcc      ...  4.340
Radial Grid Type                 RadialGrid  ... Gauss-Chebyshev
Angular Grid (max. acc.)         AngularGrid ... Lebedev-110
Angular grid pruning method      GridPruning ... 3 (G Style)
Weight generation scheme         WeightScheme... Becke
Basis function cutoff            BFCut       ...    1.0000e-11
Integration weight cutoff        WCut        ...    1.0000e-14
Grids for H and He will be reduced by one unit

# of grid points (after initial pruning)     ...  21960 (   0.0 sec)
# of grid points (after weights+screening)   ...  20052 (   0.0 sec)
nearest neighbour list constructed           ...    0.0 sec
Grid point re-assignment to atoms done       ...    0.0 sec
Grid point division into batches done        ...    0.0 sec
Reduced shell lists constructed in    0.1 sec

Total number of grid points                  ...    20052
Total number of batches                      ...      322
Average number of points per batch           ...       62
Average number of grid points per atom       ...     1003
Average number of shells per batch           ...   125.12 (84.54%)
Average number of basis functions per batch  ...   325.21 (82.96%)
Average number of large shells per batch     ...   100.07 (79.98%)
Average number of large basis fcns per batch ...   258.17 (79.38%)
Average number of aux-shells per batch       ...   125.12 (41.02%)
Average number of aux functions per batch    ...   325.21 (34.49%)
Maximum spatial batch extension              ...   2.80,  3.30,  2.17 au
Average spatial batch extension              ...   0.19,  0.21,  0.18 au

Time for grid setup =    0.169 sec

------------------------------
INITIAL GUESS: MODEL POTENTIAL
------------------------------
Loading Hartree-Fock densities                     ... done
Calculating cut-offs                               ... done
Setting up the integral package                    ... done
Initializing the effective Hamiltonian             ... done
Starting the Coulomb interaction                   ... done (   0.1 sec)
Reading the grid                                   ... done
Mapping shells                                     ... done
Starting the XC term evaluation                    ... done (   0.1 sec)
Transforming the Hamiltonian                       ... done (   0.0 sec)
Diagonalizing the Hamiltonian                      ... done (   0.0 sec)
Back transforming the eigenvectors                 ... done (   0.0 sec)
Now organizing SCF variables                       ... done
                      ------------------
                      INITIAL GUESS DONE (   0.5 sec)
                      ------------------
--------------
SCF ITERATIONS
--------------
ITER       Energy         Delta-E        Max-DP      RMS-DP      [F,P]   Gradient Norm
                             ****Turning on KDIIS(Cayley)****
  0   -288.9013252306   0.000000000000 0.01401442  0.00025409  0.1308178   0.149535562
  1   -289.0157005337  -0.114375303087 0.01787780  0.00028651  0.1200433   0.129532850
  2   -289.1103489712  -0.094648437483 0.02928294  0.00049364  0.0963721   0.105254002
  3   -289.2262340083  -0.115885037150 0.04447204  0.00079810  0.0586066   0.065062095
                      *** Initiating the SOSCF procedure ***
                           *** Shutting down KDIIS ***
                      *** Re-Reading the Fockian *** 
                      *** Removing any level shift *** 
ITER      Energy       Delta-E        Grad      Rot      Max-DP    RMS-DP
  4   -289.30246652  -0.0762325145  0.002962  0.002962  0.004756  0.000072
  5   -289.30294211  -0.0004755837  0.001140  0.001808  0.003316  0.000051
  6   -289.30300813  -0.0000660216  0.000701  0.000520  0.001428  0.000023
  7   -289.30303133  -0.0000232012  0.000085  0.000185  0.000401  0.000010
  8   -289.30303206  -0.0000007315  0.000040  0.000096  0.000179  0.000004
  9   -289.30303221  -0.0000001525  0.000014  0.000024  0.000060  0.000001
 10   -289.30303223  -0.0000000129  0.000005  0.000010  0.000033  0.000001
                  ***Gradient check signals convergence***
              ***Rediagonalizing the Fockian in SOSCF/NRSCF***

               *****************************************************
               *                     SUCCESS                       *
               *           SCF CONVERGED AFTER  11 CYCLES          *
               *****************************************************


----------------
TOTAL SCF ENERGY
----------------

Total Energy       :         -289.30303223 Eh           -7872.33573 eV

Components:
Nuclear Repulsion  :          335.02819937 Eh            9116.58078 eV
Electronic Energy  :         -624.33123160 Eh          -16988.91651 eV
One Electron Energy:        -1054.92437026 Eh          -28705.95150 eV
Two Electron Energy:          430.59313865 Eh           11717.03499 eV

Virial components:
Potential Energy   :         -578.31726007 Eh          -15736.81269 eV
Kinetic Energy     :          289.01422784 Eh            7864.47696 eV
Virial Ratio       :            2.00099927


---------------
SCF CONVERGENCE
---------------

  Last Energy change         ...   -1.7609e-09  Tolerance :   1.0000e-08
  Last MAX-Density change    ...    1.1386e-05  Tolerance :   1.0000e-07
  Last RMS-Density change    ...    1.6936e-07  Tolerance :   5.0000e-09
  Last Orbital Gradient      ...    1.5668e-06  Tolerance :   1.0000e-05
  Last Orbital Rotation      ...    4.4299e-06  Tolerance :   1.0000e-05

             **** THE GBW FILE WAS UPDATED (N_me_piperidine_ch_NI.gbw) ****
             **** DENSITY FILE WAS UPDATED (N_me_piperidine_ch_NI.scfp.tmp) ****
             **** ENERGY FILE WAS UPDATED (N_me_piperidine_ch_NI.en.tmp) ****
----------------
ORBITAL ENERGIES
----------------

  NO   OCC          E(Eh)            E(eV) 
   0   2.0000     -15.519758      -422.3141 
   1   2.0000     -11.240616      -305.8727 
   2   2.0000     -11.240588      -305.8720 
   3   2.0000     -11.237965      -305.8006 
   4   2.0000     -11.211238      -305.0733 
   5   2.0000     -11.208625      -305.0022 
   6   2.0000     -11.208541      -304.9999 
   7   2.0000      -1.219605       -33.1871 
   8   2.0000      -1.064994       -28.9799 
   9   2.0000      -1.013564       -27.5805 
  10   2.0000      -0.934959       -25.4415 
  11   2.0000      -0.846473       -23.0337 
  12   2.0000      -0.828020       -22.5316 
  13   2.0000      -0.745172       -20.2772 
  14   2.0000      -0.656303       -17.8589 
  15   2.0000      -0.626225       -17.0405 
  16   2.0000      -0.618358       -16.8264 
  17   2.0000      -0.599528       -16.3140 
  18   2.0000      -0.573033       -15.5930 
  19   2.0000      -0.557598       -15.1730 
  20   2.0000      -0.538680       -14.6582 
  21   2.0000      -0.530103       -14.4248 
  22   2.0000      -0.500153       -13.6098 
  23   2.0000      -0.481024       -13.0893 
  24   2.0000      -0.466459       -12.6930 
  25   2.0000      -0.445755       -12.1296 
  26   2.0000      -0.445108       -12.1120 
  27   2.0000      -0.310630        -8.4527 
  28   0.0000       0.138891         3.7794 
  29   0.0000       0.161438         4.3929 
  30   0.0000       0.166107         4.5200 
  31   0.0000       0.167726         4.5641 
  32   0.0000       0.200912         5.4671 
  33   0.0000       0.204495         5.5646 
  34   0.0000       0.206790         5.6270 
  35   0.0000       0.219344         5.9686 
  36   0.0000       0.224699         6.1144 
  37   0.0000       0.238124         6.4797 
  38   0.0000       0.241284         6.5657 
  39   0.0000       0.256429         6.9778 
  40   0.0000       0.270477         7.3601 
  41   0.0000       0.276567         7.5258 
  42   0.0000       0.314438         8.5563 
  43   0.0000       0.335017         9.1163 
  44   0.0000       0.350961         9.5501 
  45   0.0000       0.373732        10.1698 
  46   0.0000       0.379060        10.3147 
  47   0.0000       0.385853        10.4996 
  48   0.0000       0.406094        11.0504 
  49   0.0000       0.425178        11.5697 
  50   0.0000       0.435232        11.8433 
  51   0.0000       0.439299        11.9539 
  52   0.0000       0.468940        12.7605 
  53   0.0000       0.488411        13.2903 
  54   0.0000       0.488970        13.3056 
  55   0.0000       0.523938        14.2571 
  56   0.0000       0.549578        14.9548 
  57   0.0000       0.557402        15.1677 
  58   0.0000       0.564241        15.3538 
  59   0.0000       0.581672        15.8281 
  60   0.0000       0.590468        16.0675 
  61   0.0000       0.605243        16.4695 
  62   0.0000       0.611899        16.6506 
  63   0.0000       0.615562        16.7503 
  64   0.0000       0.618892        16.8409 
  65   0.0000       0.631144        17.1743 
  66   0.0000       0.642858        17.4930 
  67   0.0000       0.643014        17.4973 
  68   0.0000       0.662124        18.0173 
  69   0.0000       0.670454        18.2440 
  70   0.0000       0.672986        18.3129 
  71   0.0000       0.673136        18.3170 
  72   0.0000       0.682337        18.5673 
  73   0.0000       0.690626        18.7929 
  74   0.0000       0.698293        19.0015 
  75   0.0000       0.711733        19.3672 
  76   0.0000       0.714988        19.4558 
  77   0.0000       0.734525        19.9874 
  78   0.0000       0.761241        20.7144 
  79   0.0000       0.788111        21.4456 
  80   0.0000       0.805718        21.9247 
  81   0.0000       0.823558        22.4102 
  82   0.0000       0.823693        22.4138 
  83   0.0000       0.868855        23.6427 
  84   0.0000       0.877563        23.8797 
  85   0.0000       0.952860        25.9286 
  86   0.0000       0.959477        26.1087 
  87   0.0000       0.972334        26.4586 
  88   0.0000       0.978906        26.6374 
  89   0.0000       0.986195        26.8357 
  90   0.0000       0.997605        27.1462 
  91   0.0000       1.029453        28.0129 
  92   0.0000       1.053346        28.6630 
  93   0.0000       1.074381        29.2354 
  94   0.0000       1.075075        29.2543 
  95   0.0000       1.102155        29.9912 
  96   0.0000       1.115640        30.3581 
  97   0.0000       1.121484        30.5171 
  98   0.0000       1.135901        30.9094 
  99   0.0000       1.167671        31.7739 
 100   0.0000       1.168016        31.7833 
 101   0.0000       1.180033        32.1103 
 102   0.0000       1.196372        32.5550 
 103   0.0000       1.224097        33.3094 
 104   0.0000       1.233189        33.5568 
 105   0.0000       1.234522        33.5930 
 106   0.0000       1.258067        34.2337 
 107   0.0000       1.288956        35.0743 
 108   0.0000       1.289975        35.1020 
 109   0.0000       1.304106        35.4865 
 110   0.0000       1.305399        35.5217 
 111   0.0000       1.317132        35.8410 
 112   0.0000       1.328526        36.1510 
 113   0.0000       1.342725        36.5374 
 114   0.0000       1.354283        36.8519 
 115   0.0000       1.360366        37.0174 
 116   0.0000       1.383032        37.6342 
 117   0.0000       1.393185        37.9105 
 118   0.0000       1.396259        37.9941 
 119   0.0000       1.401765        38.1440 
 120   0.0000       1.424113        38.7521 
 121   0.0000       1.434045        39.0224 
 122   0.0000       1.437082        39.1050 
 123   0.0000       1.477415        40.2025 
 124   0.0000       1.481369        40.3101 
 125   0.0000       1.492728        40.6192 
 126   0.0000       1.497922        40.7605 
 127   0.0000       1.502319        40.8802 
 128   0.0000       1.519339        41.3433 
 129   0.0000       1.521434        41.4003 
 130   0.0000       1.539892        41.9026 
 131   0.0000       1.540260        41.9126 
 132   0.0000       1.563673        42.5497 
 133   0.0000       1.566851        42.6362 
 134   0.0000       1.578554        42.9546 
 135   0.0000       1.601698        43.5844 
 136   0.0000       1.603298        43.6280 
 137   0.0000       1.628692        44.3190 
 138   0.0000       1.651924        44.9511 
 139   0.0000       1.667091        45.3638 
 140   0.0000       1.678298        45.6688 
 141   0.0000       1.695412        46.1345 
 142   0.0000       1.702899        46.3382 
 143   0.0000       1.709362        46.5141 
 144   0.0000       1.727366        47.0040 
 145   0.0000       1.744807        47.4786 
 146   0.0000       1.771934        48.2168 
 147   0.0000       1.779890        48.4333 
 148   0.0000       1.790950        48.7342 
 149   0.0000       1.809230        49.2316 
 150   0.0000       1.832609        49.8678 
 151   0.0000       1.861321        50.6491 
 152   0.0000       1.876917        51.0735 
 153   0.0000       1.929065        52.4925 
 154   0.0000       1.939117        52.7661 
 155   0.0000       1.964333        53.4522 
 156   0.0000       1.977301        53.8051 
 157   0.0000       2.047006        55.7019 
 158   0.0000       2.150517        58.5185 
 159   0.0000       2.161584        58.8197 
 160   0.0000       2.163600        58.8745 
 161   0.0000       2.265020        61.6343 
 162   0.0000       2.333974        63.5107 
 163   0.0000       2.525781        68.7300 
 164   0.0000       2.548613        69.3513 
 165   0.0000       2.632550        71.6353 
 166   0.0000       2.633275        71.6551 
 167   0.0000       2.651974        72.1639 
 168   0.0000       2.665968        72.5447 
 169   0.0000       2.694740        73.3276 
 170   0.0000       2.766147        75.2707 
 171   0.0000       2.783214        75.7351 
 172   0.0000       2.792357        75.9839 
 173   0.0000       2.807508        76.3962 
 174   0.0000       2.809972        76.4632 
 175   0.0000       2.824602        76.8613 
 176   0.0000       2.846460        77.4561 
 177   0.0000       2.884890        78.5019 
 178   0.0000       2.897731        78.8513 
 179   0.0000       2.921070        79.4864 
 180   0.0000       2.926209        79.6262 
 181   0.0000       2.940102        80.0042 
 182   0.0000       2.954737        80.4025 
 183   0.0000       2.967956        80.7622 
 184   0.0000       2.986030        81.2540 
 185   0.0000       2.992864        81.4400 
 186   0.0000       3.009144        81.8830 
 187   0.0000       3.025081        82.3166 
 188   0.0000       3.032591        82.5210 
 189   0.0000       3.035194        82.5918 
 190   0.0000       3.065948        83.4287 
 191   0.0000       3.070302        83.5472 
 192   0.0000       3.082420        83.8769 
 193   0.0000       3.110382        84.6378 
 194   0.0000       3.143107        85.5283 
 195   0.0000       3.170058        86.2617 
 196   0.0000       3.178265        86.4850 
 197   0.0000       3.187999        86.7499 
 198   0.0000       3.200925        87.1016 
 199   0.0000       3.206757        87.2603 
 200   0.0000       3.216657        87.5297 
 201   0.0000       3.239035        88.1386 
 202   0.0000       3.260721        88.7287 
 203   0.0000       3.277025        89.1724 
 204   0.0000       3.295608        89.6781 
 205   0.0000       3.328549        90.5744 
 206   0.0000       3.331476        90.6541 
 207   0.0000       3.342862        90.9639 
 208   0.0000       3.344211        91.0006 
 209   0.0000       3.369998        91.7023 
 210   0.0000       3.371744        91.7498 
 211   0.0000       3.393628        92.3453 
 212   0.0000       3.396877        92.4337 
 213   0.0000       3.418376        93.0187 
 214   0.0000       3.425317        93.2076 
 215   0.0000       3.425607        93.2155 
 216   0.0000       3.452440        93.9457 
 217   0.0000       3.458367        94.1069 
 218   0.0000       3.470637        94.4408 
 219   0.0000       3.494522        95.0908 
 220   0.0000       3.500194        95.2451 
 221   0.0000       3.506341        95.4124 
 222   0.0000       3.523108        95.8686 
 223   0.0000       3.532186        96.1157 
 224   0.0000       3.532447        96.1228 
 225   0.0000       3.562432        96.9387 
 226   0.0000       3.568228        97.0964 
 227   0.0000       3.574654        97.2713 
 228   0.0000       3.592019        97.7438 
 229   0.0000       3.602742        98.0356 
 230   0.0000       3.623427        98.5985 
 231   0.0000       3.634006        98.8863 
 232   0.0000       3.641172        99.0813 
 233   0.0000       3.653620        99.4200 
 234   0.0000       3.666846        99.7799 
 235   0.0000       3.676244       100.0357 
 236   0.0000       3.699396       100.6657 
 237   0.0000       3.706019       100.8459 
 238   0.0000       3.741575       101.8134 
 239   0.0000       3.745551       101.9216 
 240   0.0000       3.748275       101.9957 
 241   0.0000       3.772575       102.6570 
 242   0.0000       3.773019       102.6691 
 243   0.0000       3.797758       103.3423 
 244   0.0000       3.817125       103.8693 
 245   0.0000       3.818609       103.9096 
 246   0.0000       3.830064       104.2214 
 247   0.0000       3.861683       105.0817 
 248   0.0000       3.874173       105.4216 
 249   0.0000       3.878804       105.5476 
 250   0.0000       3.912683       106.4695 
 251   0.0000       3.917129       106.5905 
 252   0.0000       3.939600       107.2020 
 253   0.0000       3.968368       107.9848 
 254   0.0000       3.987360       108.5016 
 255   0.0000       3.996360       108.7465 
 256   0.0000       4.004784       108.9757 
 257   0.0000       4.015917       109.2787 
 258   0.0000       4.043197       110.0210 
 259   0.0000       4.051698       110.2523 
 260   0.0000       4.057805       110.4185 
 261   0.0000       4.068021       110.6965 
 262   0.0000       4.073890       110.8562 
 263   0.0000       4.085781       111.1797 
 264   0.0000       4.111192       111.8712 
 265   0.0000       4.112032       111.8941 
 266   0.0000       4.130048       112.3843 
 267   0.0000       4.141341       112.6916 
 268   0.0000       4.157940       113.1433 
 269   0.0000       4.171209       113.5044 
 270   0.0000       4.177679       113.6804 
 271   0.0000       4.203691       114.3882 
 272   0.0000       4.207719       114.4978 
 273   0.0000       4.229757       115.0975 
 274   0.0000       4.244072       115.4871 
 275   0.0000       4.278391       116.4209 
 276   0.0000       4.287725       116.6749 
 277   0.0000       4.299037       116.9827 
 278   0.0000       4.317418       117.4829 
 279   0.0000       4.323569       117.6503 
 280   0.0000       4.341502       118.1383 
 281   0.0000       4.344091       118.2087 
 282   0.0000       4.348562       118.3304 
 283   0.0000       4.366706       118.8241 
 284   0.0000       4.380159       119.1902 
 285   0.0000       4.385702       119.3410 
 286   0.0000       4.419176       120.2519 
 287   0.0000       4.426258       120.4446 
 288   0.0000       4.434778       120.6764 
 289   0.0000       4.439914       120.8162 
 290   0.0000       4.465780       121.5201 
 291   0.0000       4.469745       121.6279 
 292   0.0000       4.484866       122.0394 
 293   0.0000       4.511304       122.7588 
 294   0.0000       4.514814       122.8543 
 295   0.0000       4.523241       123.0836 
 296   0.0000       4.536679       123.4493 
 297   0.0000       4.559672       124.0750 
 298   0.0000       4.560068       124.0858 
 299   0.0000       4.577173       124.5512 
 300   0.0000       4.589472       124.8859 
 301   0.0000       4.595888       125.0605 
 302   0.0000       4.600109       125.1753 
 303   0.0000       4.657792       126.7450 
 304   0.0000       4.658405       126.7617 
 305   0.0000       4.663215       126.8925 
 306   0.0000       4.679782       127.3433 
 307   0.0000       4.690371       127.6315 
 308   0.0000       4.715289       128.3095 
 309   0.0000       4.719322       128.4193 
 310   0.0000       4.752193       129.3137 
 311   0.0000       4.768163       129.7483 
 312   0.0000       4.780041       130.0715 
 313   0.0000       4.816216       131.0559 
 314   0.0000       4.853983       132.0836 
 315   0.0000       4.871404       132.5576 
 316   0.0000       4.903532       133.4319 
 317   0.0000       4.908927       133.5787 
 318   0.0000       4.961148       134.9997 
 319   0.0000       4.979676       135.5039 
 320   0.0000       4.999938       136.0552 
 321   0.0000       5.035929       137.0346 
 322   0.0000       5.055832       137.5762 
 323   0.0000       5.068618       137.9241 
 324   0.0000       5.099469       138.7636 
 325   0.0000       5.100869       138.8017 
 326   0.0000       5.133068       139.6779 
 327   0.0000       5.176509       140.8600 
 328   0.0000       5.196597       141.4066 
 329   0.0000       5.202739       141.5737 
 330   0.0000       5.214340       141.8894 
 331   0.0000       5.248908       142.8301 
 332   0.0000       5.269698       143.3958 
 333   0.0000       5.283290       143.7656 
 334   0.0000       5.312995       144.5739 
 335   0.0000       5.320490       144.7779 
 336   0.0000       5.367346       146.0529 
 337   0.0000       5.389277       146.6497 
 338   0.0000       5.391395       146.7073 
 339   0.0000       5.398999       146.9142 
 340   0.0000       5.424338       147.6037 
 341   0.0000       5.426526       147.6633 
 342   0.0000       5.463240       148.6623 
 343   0.0000       5.472846       148.9237 
 344   0.0000       5.473392       148.9386 
 345   0.0000       5.509711       149.9269 
 346   0.0000       5.573738       151.6691 
 347   0.0000       5.575769       151.7244 
 348   0.0000       5.599443       152.3686 
 349   0.0000       5.605366       152.5298 
 350   0.0000       5.623367       153.0196 
 351   0.0000       5.626696       153.1102 
 352   0.0000       5.653932       153.8513 
 353   0.0000       5.678092       154.5087 
 354   0.0000       5.694646       154.9592 
 355   0.0000       5.751482       156.5058 
 356   0.0000       5.755869       156.6252 
 357   0.0000       5.799735       157.8188 
 358   0.0000       5.821005       158.3976 
 359   0.0000       5.840793       158.9361 
 360   0.0000       5.859019       159.4320 
 361   0.0000       5.862249       159.5199 
 362   0.0000       5.869629       159.7207 
 363   0.0000       5.887622       160.2103 
 364   0.0000       5.917292       161.0177 
 365   0.0000       5.927669       161.3001 
 366   0.0000       5.957380       162.1086 
 367   0.0000       5.967656       162.3882 
 368   0.0000       6.008546       163.5009 
 369   0.0000       6.030108       164.0876 
 370   0.0000       6.077530       165.3780 
 371   0.0000       6.123681       166.6338 
 372   0.0000       6.189685       168.4299 
 373   0.0000       6.217914       169.1980 
 374   0.0000       6.255499       170.2208 
 375   0.0000       6.341139       172.5512 
 376   0.0000       6.366106       173.2305 
 377   0.0000       6.367801       173.2767 
 378   0.0000       6.382214       173.6689 
 379   0.0000       6.406726       174.3359 
 380   0.0000       6.424058       174.8075 
 381   0.0000       6.466084       175.9511 
 382   0.0000       6.480663       176.3478 
 383   0.0000       6.520951       177.4441 
 384   0.0000       6.594208       179.4375 
 385   0.0000      11.291836       307.2665 
 386   0.0000      12.974558       353.0557 
 387   0.0000      13.261457       360.8626 
 388   0.0000      13.593690       369.9031 
 389   0.0000      13.800014       375.5175 
 390   0.0000      13.908723       378.4756 
 391   0.0000      14.332378       390.0038 

                    ********************************
                    * MULLIKEN POPULATION ANALYSIS *
                    ********************************

-----------------------
MULLIKEN ATOMIC CHARGES
-----------------------
   0 C :   -0.188146
   1 C :   -0.180595
   2 C :   -0.180668
   3 C :   -0.081831
   4 C :   -0.081762
   5 N :   -0.224186
   6 C :   -0.189152
   7 H :    0.083760
   8 H :    0.108501
   9 H :    0.083250
  10 H :    0.100417
  11 H :    0.100465
  12 H :    0.083257
  13 H :    0.095141
  14 H :    0.068279
  15 H :    0.068393
  16 H :    0.095198
  17 H :    0.081996
  18 H :    0.082105
  19 H :    0.075577
Sum of atomic charges:    0.0000000

--------------------------------
MULLIKEN REDUCED ORBITAL CHARGES
--------------------------------
  0 C s       :     3.204931  s :     3.204931
      pz      :     0.994511  p :     2.858861
      px      :     0.981630
      py      :     0.882719
      dz2     :     0.032664  d :     0.117493
      dxz     :     0.015781
      dyz     :     0.015583
      dx2y2   :     0.031258
      dxy     :     0.022207
      f0      :     0.001394  f :     0.006862
      f+1     :     0.000489
      f-1     :     0.000759
      f+2     :     0.000460
      f-2     :     0.000849
      f+3     :     0.001556
      f-3     :     0.001354
  1 C s       :     3.203378  s :     3.203378
      pz      :     0.983744  p :     2.861187
      px      :     0.914458
      py      :     0.962985
      dz2     :     0.034327  d :     0.109289
      dxz     :     0.016809
      dyz     :     0.010389
      dx2y2   :     0.022082
      dxy     :     0.025681
      f0      :     0.001392  f :     0.006741
      f+1     :     0.000813
      f-1     :     0.000457
      f+2     :     0.000793
      f-2     :     0.000609
      f+3     :     0.001533
      f-3     :     0.001144
  2 C s       :     3.203399  s :     3.203399
      pz      :     0.983763  p :     2.861237
      px      :     0.914436
      py      :     0.963038
      dz2     :     0.034326  d :     0.109291
      dxz     :     0.016810
      dyz     :     0.010389
      dx2y2   :     0.022087
      dxy     :     0.025679
      f0      :     0.001392  f :     0.006740
      f+1     :     0.000813
      f-1     :     0.000457
      f+2     :     0.000793
      f-2     :     0.000609
      f+3     :     0.001533
      f-3     :     0.001144
  3 C s       :     3.199379  s :     3.199379
      pz      :     0.974557  p :     2.717541
      px      :     0.905545
      py      :     0.837438
      dz2     :     0.033819  d :     0.154761
      dxz     :     0.021520
      dyz     :     0.031338
      dx2y2   :     0.027699
      dxy     :     0.040386
      f0      :     0.001975  f :     0.010151
      f+1     :     0.001004
      f-1     :     0.000876
      f+2     :     0.001234
      f-2     :     0.001250
      f+3     :     0.001941
      f-3     :     0.001872
  4 C s       :     3.199330  s :     3.199330
      pz      :     0.974612  p :     2.717597
      px      :     0.905603
      py      :     0.837382
      dz2     :     0.033816  d :     0.154690
      dxz     :     0.021494
      dyz     :     0.031320
      dx2y2   :     0.027683
      dxy     :     0.040378
      f0      :     0.001974  f :     0.010144
      f+1     :     0.001003
      f-1     :     0.000875
      f+2     :     0.001234
      f-2     :     0.001248
      f+3     :     0.001940
      f-3     :     0.001871
  5 N s       :     3.367616  s :     3.367616
      pz      :     1.681926  p :     3.781200
      px      :     1.080674
      py      :     1.018601
      dz2     :     0.005465  d :     0.070260
      dxz     :     0.007888
      dyz     :     0.010034
      dx2y2   :     0.023475
      dxy     :     0.023399
      f0      :     0.000761  f :     0.005109
      f+1     :     0.000674
      f-1     :     0.000810
      f+2     :     0.000491
      f-2     :     0.000493
      f+3     :     0.000902
      f-3     :     0.000977
  6 C s       :     3.251942  s :     3.251942
      pz      :     0.978458  p :     2.811482
      px      :     0.804616
      py      :     1.028407
      dz2     :     0.028568  d :     0.117677
      dxz     :     0.030707
      dyz     :     0.008150
      dx2y2   :     0.021986
      dxy     :     0.028265
      f0      :     0.001790  f :     0.008052
      f+1     :     0.001637
      f-1     :     0.000077
      f+2     :     0.001314
      f-2     :     0.000313
      f+3     :     0.001915
      f-3     :     0.001005
  7 H s       :     0.885686  s :     0.885686
      pz      :     0.010964  p :     0.028102
      px      :     0.008147
      py      :     0.008992
      dz2     :     0.000642  d :     0.002452
      dxz     :     0.000752
      dyz     :     0.000955
      dx2y2   :     0.000016
      dxy     :     0.000088
  8 H s       :     0.860067  s :     0.860067
      pz      :     0.006873  p :     0.028971
      px      :     0.012780
      py      :     0.009317
      dz2     :     0.000462  d :     0.002462
      dxz     :     0.000468
      dyz     :     0.000110
      dx2y2   :     0.000467
      dxy     :     0.000955
  9 H s       :     0.886236  s :     0.886236
      pz      :     0.011838  p :     0.028011
      px      :     0.008053
      py      :     0.008119
      dz2     :     0.000741  d :     0.002502
      dxz     :     0.000907
      dyz     :     0.000784
      dx2y2   :     0.000015
      dxy     :     0.000055
 10 H s       :     0.867593  s :     0.867593
      pz      :     0.007231  p :     0.029505
      px      :     0.010405
      py      :     0.011869
      dz2     :     0.000345  d :     0.002485
      dxz     :     0.000186
      dyz     :     0.000405
      dx2y2   :     0.000904
      dxy     :     0.000645
 11 H s       :     0.867543  s :     0.867543
      pz      :     0.007231  p :     0.029507
      px      :     0.010405
      py      :     0.011870
      dz2     :     0.000345  d :     0.002485
      dxz     :     0.000186
      dyz     :     0.000405
      dx2y2   :     0.000904
      dxy     :     0.000645
 12 H s       :     0.886229  s :     0.886229
      pz      :     0.011838  p :     0.028012
      px      :     0.008055
      py      :     0.008120
      dz2     :     0.000741  d :     0.002502
      dxz     :     0.000907
      dyz     :     0.000784
      dx2y2   :     0.000015
      dxy     :     0.000055
 13 H s       :     0.874722  s :     0.874722
      pz      :     0.007515  p :     0.027636
      px      :     0.010371
      py      :     0.009749
      dz2     :     0.000428  d :     0.002501
      dxz     :     0.000228
      dyz     :     0.000382
      dx2y2   :     0.000868
      dxy     :     0.000595
 14 H s       :     0.906170  s :     0.906170
      pz      :     0.010852  p :     0.023190
      px      :     0.007016
      py      :     0.005322
      dz2     :     0.000743  d :     0.002361
      dxz     :     0.000838
      dyz     :     0.000675
      dx2y2   :     0.000028
      dxy     :     0.000077
 15 H s       :     0.906048  s :     0.906048
      pz      :     0.010854  p :     0.023198
      px      :     0.007020
      py      :     0.005325
      dz2     :     0.000743  d :     0.002361
      dxz     :     0.000838
      dyz     :     0.000675
      dx2y2   :     0.000028
      dxy     :     0.000077
 16 H s       :     0.874663  s :     0.874663
      pz      :     0.007516  p :     0.027638
      px      :     0.010370
      py      :     0.009753
      dz2     :     0.000428  d :     0.002500
      dxz     :     0.000228
      dyz     :     0.000382
      dx2y2   :     0.000868
      dxy     :     0.000595
 17 H s       :     0.890989  s :     0.890989
      pz      :     0.007968  p :     0.024815
      px      :     0.007398
      py      :     0.009448
      dz2     :     0.000379  d :     0.002201
      dxz     :     0.000200
      dyz     :     0.000409
      dx2y2   :     0.000574
      dxy     :     0.000638
 18 H s       :     0.890842  s :     0.890842
      pz      :     0.007981  p :     0.024851
      px      :     0.007410
      py      :     0.009460
      dz2     :     0.000377  d :     0.002201
      dxz     :     0.000197
      dyz     :     0.000410
      dx2y2   :     0.000575
      dxy     :     0.000641
 19 H s       :     0.902164  s :     0.902164
      pz      :     0.008645  p :     0.020172
      px      :     0.004580
      py      :     0.006948
      dz2     :     0.000791  d :     0.002087
      dxz     :     0.000685
      dyz     :     0.000582
      dx2y2   :     0.000035
      dxy     :    -0.000007


                     *******************************
                     * LOEWDIN POPULATION ANALYSIS *
                     *******************************

----------------------
LOEWDIN ATOMIC CHARGES
----------------------
   0 C :    0.054956
   1 C :    0.054579
   2 C :    0.054598
   3 C :   -0.019450
   4 C :   -0.019062
   5 N :    0.266289
   6 C :    0.030759
   7 H :   -0.028150
   8 H :   -0.029772
   9 H :   -0.029699
  10 H :   -0.029735
  11 H :   -0.029757
  12 H :   -0.029689
  13 H :   -0.027418
  14 H :   -0.038620
  15 H :   -0.038609
  16 H :   -0.027439
  17 H :   -0.034220
  18 H :   -0.034186
  19 H :   -0.045377

-------------------------------
LOEWDIN REDUCED ORBITAL CHARGES
-------------------------------
  0 C s       :     2.654099  s :     2.654099
      pz      :     0.962063  p :     2.818554
      px      :     0.943830
      py      :     0.912661
      dz2     :     0.108959  d :     0.431126
      dxz     :     0.056574
      dyz     :     0.059890
      dx2y2   :     0.114325
      dxy     :     0.091378
      f0      :     0.006047  f :     0.041265
      f+1     :     0.002525
      f-1     :     0.005566
      f+2     :     0.005251
      f-2     :     0.006437
      f+3     :     0.006560
      f-3     :     0.008879
  1 C s       :     2.657682  s :     2.657682
      pz      :     0.958150  p :     2.820648
      px      :     0.926101
      py      :     0.936397
      dz2     :     0.122614  d :     0.426194
      dxz     :     0.065085
      dyz     :     0.040360
      dx2y2   :     0.088196
      dxy     :     0.109940
      f0      :     0.005643  f :     0.040897
      f+1     :     0.005753
      f-1     :     0.003504
      f+2     :     0.006288
      f-2     :     0.005641
      f+3     :     0.006646
      f-3     :     0.007421
  2 C s       :     2.657673  s :     2.657673
      pz      :     0.958156  p :     2.820651
      px      :     0.926096
      py      :     0.936399
      dz2     :     0.122606  d :     0.426182
      dxz     :     0.065088
      dyz     :     0.040351
      dx2y2   :     0.088203
      dxy     :     0.109934
      f0      :     0.005644  f :     0.040895
      f+1     :     0.005754
      f-1     :     0.003503
      f+2     :     0.006287
      f-2     :     0.005640
      f+3     :     0.006646
      f-3     :     0.007421
  3 C s       :     2.659991  s :     2.659991
      pz      :     0.967513  p :     2.756193
      px      :     0.922856
      py      :     0.865824
      dz2     :     0.125757  d :     0.541032
      dxz     :     0.079341
      dyz     :     0.100183
      dx2y2   :     0.094983
      dxy     :     0.140768
      f0      :     0.008825  f :     0.062234
      f+1     :     0.006330
      f-1     :     0.005475
      f+2     :     0.008879
      f-2     :     0.010579
      f+3     :     0.010675
      f-3     :     0.011470
  4 C s       :     2.660027  s :     2.660027
      pz      :     0.967576  p :     2.756150
      px      :     0.922886
      py      :     0.865688
      dz2     :     0.125715  d :     0.540704
      dxz     :     0.079255
      dyz     :     0.100096
      dx2y2   :     0.094919
      dxy     :     0.140720
      f0      :     0.008817  f :     0.062180
      f+1     :     0.006326
      f-1     :     0.005471
      f+2     :     0.008876
      f-2     :     0.010564
      f+3     :     0.010668
      f-3     :     0.011457
  5 N s       :     2.845545  s :     2.845545
      pz      :     1.452168  p :     3.603064
      px      :     1.092650
      py      :     1.058246
      dz2     :     0.022609  d :     0.267398
      dxz     :     0.031139
      dyz     :     0.037905
      dx2y2   :     0.087620
      dxy     :     0.088124
      f0      :     0.001946  f :     0.017704
      f+1     :     0.002316
      f-1     :     0.001778
      f+2     :     0.001633
      f-2     :     0.002112
      f+3     :     0.001874
      f-3     :     0.006046
  6 C s       :     2.664500  s :     2.664500
      pz      :     0.980291  p :     2.818867
      px      :     0.843171
      py      :     0.995405
      dz2     :     0.121215  d :     0.435300
      dxz     :     0.111754
      dyz     :     0.025759
      dx2y2   :     0.077722
      dxy     :     0.098850
      f0      :     0.007220  f :     0.050575
      f+1     :     0.009317
      f-1     :     0.000632
      f+2     :     0.010965
      f-2     :     0.006201
      f+3     :     0.010123
      f-3     :     0.006115
  7 H s       :     0.846357  s :     0.846357
      pz      :     0.074580  p :     0.153180
      px      :     0.038836
      py      :     0.039763
      dz2     :     0.009311  d :     0.028614
      dxz     :     0.009663
      dyz     :     0.009073
      dx2y2   :     0.000084
      dxy     :     0.000482
  8 H s       :     0.846141  s :     0.846141
      pz      :     0.045747  p :     0.155015
      px      :     0.068365
      py      :     0.040904
      dz2     :     0.005627  d :     0.028615
      dxz     :     0.007466
      dyz     :     0.001225
      dx2y2   :     0.006041
      dxy     :     0.008256
  9 H s       :     0.847210  s :     0.847210
      pz      :     0.075163  p :     0.153663
      px      :     0.039994
      py      :     0.038507
      dz2     :     0.009708  d :     0.028826
      dxz     :     0.009499
      dyz     :     0.009112
      dx2y2   :     0.000057
      dxy     :     0.000451
 10 H s       :     0.847453  s :     0.847453
      pz      :     0.041035  p :     0.153832
      px      :     0.049499
      py      :     0.063298
      dz2     :     0.003979  d :     0.028450
      dxz     :     0.002687
      dyz     :     0.005932
      dx2y2   :     0.008517
      dxy     :     0.007336
 11 H s       :     0.847447  s :     0.847447
      pz      :     0.041044  p :     0.153854
      px      :     0.049502
      py      :     0.063309
      dz2     :     0.003979  d :     0.028455
      dxz     :     0.002687
      dyz     :     0.005933
      dx2y2   :     0.008519
      dxy     :     0.007337
 12 H s       :     0.847197  s :     0.847197
      pz      :     0.075162  p :     0.153666
      px      :     0.039995
      py      :     0.038508
      dz2     :     0.009708  d :     0.028826
      dxz     :     0.009499
      dyz     :     0.009112
      dx2y2   :     0.000057
      dxy     :     0.000451
 13 H s       :     0.850066  s :     0.850066
      pz      :     0.044698  p :     0.148751
      px      :     0.050103
      py      :     0.053951
      dz2     :     0.004903  d :     0.028601
      dxz     :     0.003627
      dyz     :     0.005243
      dx2y2   :     0.007890
      dxy     :     0.006937
 14 H s       :     0.864046  s :     0.864046
      pz      :     0.076114  p :     0.147526
      px      :     0.037842
      py      :     0.033570
      dz2     :     0.009265  d :     0.027048
      dxz     :     0.008911
      dyz     :     0.007840
      dx2y2   :     0.000375
      dxy     :     0.000657
 15 H s       :     0.864014  s :     0.864014
      pz      :     0.076118  p :     0.147542
      px      :     0.037847
      py      :     0.033577
      dz2     :     0.009267  d :     0.027052
      dxz     :     0.008914
      dyz     :     0.007841
      dx2y2   :     0.000375
      dxy     :     0.000656
 16 H s       :     0.850058  s :     0.850058
      pz      :     0.044712  p :     0.148775
      px      :     0.050119
      py      :     0.053944
      dz2     :     0.004905  d :     0.028606
      dxz     :     0.003630
      dyz     :     0.005243
      dx2y2   :     0.007890
      dxy     :     0.006938
 17 H s       :     0.858655  s :     0.858655
      pz      :     0.044396  p :     0.147733
      px      :     0.040692
      py      :     0.062645
      dz2     :     0.004707  d :     0.027832
      dxz     :     0.002812
      dyz     :     0.005846
      dx2y2   :     0.007556
      dxy     :     0.006911
 18 H s       :     0.858582  s :     0.858582
      pz      :     0.044310  p :     0.147760
      px      :     0.040651
      py      :     0.062799
      dz2     :     0.004670  d :     0.027844
      dxz     :     0.002780
      dyz     :     0.005883
      dx2y2   :     0.007569
      dxy     :     0.006942
 19 H s       :     0.871051  s :     0.871051
      pz      :     0.075686  p :     0.147655
      px      :     0.031583
      py      :     0.040387
      dz2     :     0.009086  d :     0.026671
      dxz     :     0.007607
      dyz     :     0.009633
      dx2y2   :     0.000322
      dxy     :     0.000022


                      *****************************
                      * MAYER POPULATION ANALYSIS *
                      *****************************

  NA   - Mulliken gross atomic population
  ZA   - Total nuclear charge
  QA   - Mulliken gross atomic charge
  VA   - Mayer's total valence
  BVA  - Mayer's bonded valence
  FA   - Mayer's free valence

  ATOM       NA         ZA         QA         VA         BVA        FA
  0 C      6.1881     6.0000    -0.1881     3.8601     3.8601    -0.0000
  1 C      6.1806     6.0000    -0.1806     3.8570     3.8570    -0.0000
  2 C      6.1807     6.0000    -0.1807     3.8571     3.8571     0.0000
  3 C      6.0818     6.0000    -0.0818     3.9262     3.9262    -0.0000
  4 C      6.0818     6.0000    -0.0818     3.9260     3.9260     0.0000
  5 N      7.2242     7.0000    -0.2242     2.9745     2.9745     0.0000
  6 C      6.1892     6.0000    -0.1892     3.9370     3.9370     0.0000
  7 H      0.9162     1.0000     0.0838     0.9870     0.9870     0.0000
  8 H      0.8915     1.0000     0.1085     0.9768     0.9768    -0.0000
  9 H      0.9167     1.0000     0.0833     0.9907     0.9907    -0.0000
 10 H      0.8996     1.0000     0.1004     0.9848     0.9848    -0.0000
 11 H      0.8995     1.0000     0.1005     0.9848     0.9848     0.0000
 12 H      0.9167     1.0000     0.0833     0.9907     0.9907     0.0000
 13 H      0.9049     1.0000     0.0951     0.9777     0.9777     0.0000
 14 H      0.9317     1.0000     0.0683     0.9738     0.9738     0.0000
 15 H      0.9316     1.0000     0.0684     0.9739     0.9739    -0.0000
 16 H      0.9048     1.0000     0.0952     0.9777     0.9777     0.0000
 17 H      0.9180     1.0000     0.0820     0.9720     0.9720    -0.0000
 18 H      0.9179     1.0000     0.0821     0.9721     0.9721     0.0000
 19 H      0.9244     1.0000     0.0756     0.9519     0.9519     0.0000

  Mayer bond orders larger than 0.1
B(  0-C ,  1-C ) :   0.9523 B(  0-C ,  2-C ) :   0.9523 B(  0-C ,  7-H ) :   0.9836 
B(  0-C ,  8-H ) :   0.9964 B(  1-C ,  3-C ) :   0.9462 B(  1-C ,  9-H ) :   0.9833 
B(  1-C , 10-H ) :   0.9937 B(  2-C ,  4-C ) :   0.9462 B(  2-C , 11-H ) :   0.9937 
B(  2-C , 12-H ) :   0.9833 B(  3-C ,  5-N ) :   0.9981 B(  3-C , 13-H ) :   0.9936 
B(  3-C , 14-H ) :   0.9804 B(  4-C ,  5-N ) :   0.9978 B(  4-C , 15-H ) :   0.9804 
B(  4-C , 16-H ) :   0.9936 B(  5-N ,  6-C ) :   1.0117 B(  6-C , 17-H ) :   0.9818 
B(  6-C , 18-H ) :   0.9819 B(  6-C , 19-H ) :   0.9655 

-------
TIMINGS
-------

Total SCF time: 0 days 0 hours 0 min 18 sec 

Total time                  ....      18.875 sec
Sum of individual times     ....      18.561 sec  ( 98.3%)

Fock matrix formation       ....      17.728 sec  ( 93.9%)
Diagonalization             ....       0.128 sec  (  0.7%)
Density matrix formation    ....       0.022 sec  (  0.1%)
Population analysis         ....       0.055 sec  (  0.3%)
Initial guess               ....       0.305 sec  (  1.6%)
Orbital Transformation      ....       0.000 sec  (  0.0%)
Orbital Orthonormalization  ....       0.000 sec  (  0.0%)
DIIS solution               ....       0.000 sec  (  0.0%)
SOSCF solution              ....       0.153 sec  (  0.8%)


           ************************************************************
           *        Program running with 8 parallel MPI-processes     *
           *              working on a common directory               *
           ************************************************************


------------------------------------------------------------------------------- 
                              ORCA-MATRIX DRIVEN CI                            
------------------------------------------------------------------------------- 


Wavefunction type
-----------------
Correlation treatment                      ...      CCSD     
Single excitations                         ... ON
Orbital optimization                       ... OFF
Calculation of Z vector                    ... OFF
Calculation of Brueckner orbitals          ... OFF
Perturbative triple excitations            ... ON
Calculation of F12 correction              ... OFF
Frozen core treatment                      ... chemical core (14 el)
Reference Wavefunction                     ... RHF
  Internal Orbitals:     7 ...   27 ( 21 MO's/ 42 electrons)
  Virtual  Orbitals:    28 ...  391 (364 MO's              )
Number of AO's                             ...    392
Number of electrons                        ...     56
Number of correlated electrons             ...     42

Algorithmic settings
--------------------
Integral transformation                    ... All integrals via the RI transformation
K(C) Formation                             ... RI-DLPNO
   PNO-Integral Storage                    ... ON DISK
   PNO occupation number cut-off           ... 1.000e-07
   Singles PNO occupation number cut-off   ... 3.000e-09
   PNO Mulliken prescreening cut-off       ... 1.000e-03
   Domain cut-off (Mulliken population)    ... 1.000e-03
   PNO Normalization                       ...    1
Maximum number of iterations               ...        50
Convergence tolerance (max. residuum)      ... 1.000e-05
Level shift for amplitude update           ... 2.000e-01
Maximum number of DIIS vectors             ...         7
DIIS turned on at iteration                ...         0
Damping before turning on DIIS             ...     0.500
Damping after turning on DIIS              ...     0.000
Pair specific amplitude update             ... OFF
Natural orbital iterations                 ... OFF
Perturbative natural orbital generation    ... OFF
Printlevel                                 ... 2

Singles Fock matrix elements calculated using PNOs.

Memory handling:
----------------
Maximum memory for working arrays          ...   8000 MB
Data storage in matrix containers          ... UNCOMPRESSED
Data type for integral storage             ... DOUBLE
In-Core Storage of quantities:
   Amplitudes+Sigma Vector      ... NO
   J+K operators                ... NO
   DIIS vectors                 ... NO
   3-external integrals         ... NO
   4-external integrals         ... NO

Localization treatment:
-----------------------
Localization option                        ...    6
Localization threshhold                    ... -1.0e+00
Using relative localization threshhold     ... 1.0e-08
Neglect threshold for strong pairs         ... 1.000e-05 Eh
Prescreening threshold for very weak pairs ... 1.000e-07 Eh

Initializing the integral package          ... done
Localizing the valence orbitals
------------------------------------------------------------------------------
                           ORCA ORBITAL LOCALIZATION
------------------------------------------------------------------------------

Input orbitals are from                  ... N_me_piperidine_ch_NI.proc0.gbw
Output orbitals are to                   ... N_me_piperidine_ch_NI.proc0.loc
Max. number of iterations                ... 128
Localizations seeded randomly            ... off
Convergence tolerance                    ... 1.000e-06
Using relative localization threshhold   ... 1.000e-08
Treshold for strong local MOs            ... 9.500e-01
Treshold for bond MOs                    ... 8.500e-01
Operator                                 ... 0
Orbital range for localization           ... 7 to 27
Localization criterion                   ... FOSTER-BOYS (AUGMENTED HESSIAN)
Doing the dipole integrals     ... o.k.
Initial value of the localization sum :   212.897639
ITERATION   0 : L=  277.3950509618 DL=  6.45e+01 (AVERGE_DL)=    0.5541935893 
ITERATION   1 : L=  284.0129007360 DL=  6.62e+00 (AVERGE_DL)=    0.1775206195 
ITERATION   2 : L=  284.1388557615 DL=  1.26e-01 (AVERGE_DL)=    0.0244905254 
ITERATION   3 : L=  284.1392331851 DL=  3.77e-04 (AVERGE_DL)=    0.0013406175 
ITERATION   4 : L=  284.1392602249 DL=  2.70e-05 (AVERGE_DL)=    0.0003588327 
ITERATION   5 : L=  284.1392635673 DL=  3.34e-06 (AVERGE_DL)=    0.0001261588 
ITERATION   6 : L=  284.1392640040 DL=  4.37e-07 (AVERGE_DL)=    0.0000456061 
LOCALIZATION SUM CONVERGED

------------------------------------------------------
AUGMENTED HESSIAN OPTIMIZATION OF FOSTER-BOYS ORBITALS
------------------------------------------------------

Spin operator:           0
Orbital window:          7 to 27
Number of iterations:    128
Gradient tolerance:      1.000e-06
Number of pairs:         210
Davidson threshold:      2000
Diagonalization method:  LAPACK
Iter:    0   L: 284.1392640040   Grad. norm: 1.152597e-03
   *** Likely close to a maximum now. ***
       Augmented Hessian eigenvalues:  1.40e-07 -1.24e+00 -3.77e+00 -3.84e+00 ... 
Iter:    1   L: 284.1392640743   Grad. norm: 3.761764e-07
LOCALIZATION HAS CONVERGED.

Eigenvalues of the Hessian:
  0 -1.241e+00
  1 -3.769e+00
  2 -3.843e+00
  3 -1.388e+01
  4 -1.723e+01
  5 -1.754e+01
  6 -1.771e+01
  7 -1.784e+01
  8 -1.799e+01
  9 -1.802e+01
    ...


------------------------------------------------------------------------------- 
                    LOCALIZED MOLECULAR ORBITAL COMPOSITIONS                   
------------------------------------------------------------------------------- 

The Mulliken populations for each LMO on each atom are computed
The LMO`s will be ordered according to atom index and type
  (A) Strongly localized MO`s have populations of >=0.950 on one atom
  (B) Two center bond orbitals have populations of >=0.850 on two atoms
  (C) Other MO`s are considered to be `delocalized`

FOUND  -   0 strongly local MO`s
       -  21 two center bond MO`s
       -   0 significantly delocalized MO`s

Bond-like localized orbitals:
MO  27:  19H  -   0.493348  and   6C  -   0.547272
MO  26:  18H  -   0.482565  and   6C  -   0.550110
MO  25:  17H  -   0.482699  and   6C  -   0.550046
MO  24:  16H  -   0.471891  and   4C  -   0.563779
MO  23:  15H  -   0.489031  and   4C  -   0.553006
MO  22:  14H  -   0.489108  and   3C  -   0.552955
MO  21:  13H  -   0.471924  and   3C  -   0.563756
MO  20:  12H  -   0.475048  and   2C  -   0.550538
MO  19:  11H  -   0.466174  and   2C  -   0.567336
MO  18:  10H  -   0.466198  and   1C  -   0.567313
MO  17:   9H  -   0.475046  and   1C  -   0.550539
MO  16:   8H  -   0.464563  and   0C  -   0.570237
MO  15:   7H  -   0.475856  and   0C  -   0.551094
MO  14:   6C  -   0.431435  and   5N  -   0.594905
MO  13:   5N  -   0.604644  and   4C  -   0.414225
MO  12:   5N  -   0.604589  and   3C  -   0.414278
MO  11:   5N  -   0.925731  and   3C  -   0.030807
MO  10:   4C  -   0.521588  and   2C  -   0.514301
MO   9:   3C  -   0.521574  and   1C  -   0.514335
MO   8:   2C  -   0.516975  and   0C  -   0.515655
MO   7:   1C  -   0.516959  and   0C  -   0.515672
Localized MO's were stored in: N_me_piperidine_ch_NI.proc0.loc

Localizing the core orbitals
------------------------------------------------------------------------------
                           ORCA ORBITAL LOCALIZATION
------------------------------------------------------------------------------

Input orbitals are from                  ... N_me_piperidine_ch_NI.proc0.loc
Output orbitals are to                   ... N_me_piperidine_ch_NI.proc0.loc
Max. number of iterations                ... 128
Localizations seeded randomly            ... off
Convergence tolerance                    ... 1.000e-06
Using relative localization threshhold   ... 1.000e-08
Treshold for strong local MOs            ... 9.500e-01
Treshold for bond MOs                    ... 8.500e-01
Operator                                 ... 0
Orbital range for localization           ... 0 to 6
Localization criterion                   ... FOSTER-BOYS (AUGMENTED HESSIAN)
Doing the dipole integrals     ... o.k.
Initial value of the localization sum :    68.760616
ITERATION   0 : L=   68.7606173654 DL=  1.77e-06 (AVERGE_DL)=    0.0002899208 
ITERATION   1 : L=   68.7606173654 DL=  0.00e+00 (AVERGE_DL)=    0.0000000000 
LOCALIZATION SUM CONVERGED

------------------------------------------------------
AUGMENTED HESSIAN OPTIMIZATION OF FOSTER-BOYS ORBITALS
------------------------------------------------------

Spin operator:           0
Orbital window:          0 to 6
Number of iterations:    128
Gradient tolerance:      1.000e-06
Number of pairs:         21
Davidson threshold:      2000
Diagonalization method:  LAPACK
Iter:    0   L: 68.7606173654   Grad. norm: 1.362025e-06
   *** Likely close to a maximum now. ***
       Augmented Hessian eigenvalues:  2.03e-14 -2.96e+01 -2.97e+01 -2.97e+01 ... 
Iter:    1   L: 68.7606173654   Grad. norm: 2.576495e-20
LOCALIZATION HAS CONVERGED.

Eigenvalues of the Hessian:
  0 -2.963e+01
  1 -2.970e+01
  2 -2.971e+01
  3 -3.329e+01
  4 -3.329e+01
  5 -3.329e+01
  6 -3.329e+01
  7 -8.559e+01
  8 -8.560e+01
  9 -8.888e+01
    ...


------------------------------------------------------------------------------- 
                    LOCALIZED MOLECULAR ORBITAL COMPOSITIONS                   
------------------------------------------------------------------------------- 

The Mulliken populations for each LMO on each atom are computed
The LMO`s will be ordered according to atom index and type
  (A) Strongly localized MO`s have populations of >=0.950 on one atom
  (B) Two center bond orbitals have populations of >=0.850 on two atoms
  (C) Other MO`s are considered to be `delocalized`

FOUND  -   7 strongly local MO`s
       -   0 two center bond MO`s
       -   0 significantly delocalized MO`s

Rather strongly localized orbitals:
MO   6:   6C  -   1.000706
MO   5:   5N  -   0.999787
MO   4:   4C  -   1.001175
MO   3:   3C  -   1.001175
MO   2:   2C  -   1.001558
MO   1:   1C  -   1.001558
MO   0:   0C  -   1.001579
Localized MO's were stored in: N_me_piperidine_ch_NI.proc0.loc

Warning: internal orbitals are localized - no re-canonicalization of internal orbitals

--------------------------
CLOSED-SHELL FOCK OPERATOR
--------------------------

RI-JK section for the Fock operator:
  RHF full Fock operator         ... done
  RHF frozen core Fock operator  ... done
Time needed for Fock operator              ...            2.838 sec
Reference energy                           ...   -289.303032228

--------------
DLPNO SETTINGS (2015 fully linear scaling implementation)
--------------

TCutMKN:           1.000e-03
TCutPAO:           1.000e-03
TCutPNO:           1.000e-07
TCutPNOSingles:    3.000e-09
TCutEN:            9.700e-01
TCutPAOExt:        1.000e-01
TCutPairs:         1.000e-05
TCutPre:           1.000e-07
TCutOSV:           1.000e-06
TCutDOij:          1.000e-05
TCutDO:            5.000e-03
TCutC:             1.000e-04
TCutCPAO:          1.000e-03
TCutCMO:           1.000e-03
TScaleDOMP2PreScr: 2.000e+00
TScaleMKNMP2PreScr:1.000e+01
TScalePNOMP2PreScr:1.000e+00
PAO overlap thresh 1.000e-08
Using PNOs for Singles Fock computation
Use new domains
Use fully linear algorithm
TCutTNO:           1.000e-09
TCutMP2Pairs:      1.000e-06
TCutDOStrong:      2.000e-03
TCutMKNStrong:     1.000e-02
TCutMKNWeak:       1.000e-01
TCutDOWeak:        4.000e-03
NTCutTNO:          1

--------------------------
Calculating differential overlap integrals ... ok
--------------------------
ELECTRON PAIR PRESCREENING
--------------------------

Dipole-based pair screening          .... used

[...]
   TCutDO    ...     2.0e-02
   TCutCMO   ...     1.0e-03
   TCutCPAO  ...     1.0e-03

--------------------------------
LOCAL RI TRANSFORMATION (IAVPAO)
--------------------------------

Orbital window:       7 to 27
Number of PAOs:     392
Basis functions:    392 (148 shells)
Aux. functions:     957 (291 shells)

Processing maps (0.0 sec)
Average map sizes:
   Aux shells -> MOs              21.0
   Aux shells -> PAOs            392.0
   MOs        -> AO shells       144.6
   PAOs       -> AO shells       148.0

Calculating integrals (0.8 sec, 60.116 MB)
Sorting integrals (0.1 sec, 60.105 MB)
Total time for the integral transformation: 0.9 sec
--------------------------------
INITIAL GUESS AND PNO GENERATION
--------------------------------

PNO truncation parameters                   .... 
    ScaleTCutPNO       =        1.000e-02
    PAOOverlapThresh   =        1.000e-08

    TCutPairs          =        1.000e-05
    TCutPNO            =        1.000e-07
    TCutPNOSingles     =        3.000e-09
    TCutMP2Pairs       =        1.000e-06
    TCutMKN            =        1.000e-03
    TCutDO             =        5.000e-03

Pair selection                          .... not used
Type of local MP2 treatment                 .... full local PMP2
Strategy for PNO selection                  .... occupation number selection
Pair density normalization                  .... MP2 norm
Spin component scaling                      .... not used

PASS-1: Formation of initial guess LMP2 amplitudes
Initial amplitudes guess done. Entering LMP2 iteration loop:
   Max. no of iterations          ...  50
   Energy convergence tolerance   ...    1.0e-07
   Residual convergence tolerance ...    5.0e-07
   Fock matrix cutoff             ...    1.0e-05 Eh
   DIIS convergence acceleration parameters:
        Max # vectors in DIIS     ... 7
        Start iteration of DIIS   ... 0
        Levelshift                ... 2.000e-01
        Damping factor 1          ... 5.000e-01
        Damping factor 2          ... 1.000e+00
   L-MP2 PNO cut-off              ...   1.0e-09
   L-MP2 PNO cut-off (core)       ...   1.0e-11
                           *** Turning on DIIS ***
LMP2-Iter=   0:  ELMP2= -1.237510427308  DE=   2.1e-02 RMAX=   3.1e-03
LMP2-Iter=   1:  ELMP2= -1.248147454037  DE=   1.1e-02 RMAX=   1.5e-03
LMP2-Iter=   2:  ELMP2= -1.249677539529  DE=   1.5e-03 RMAX=   1.9e-04
LMP2-Iter=   3:  ELMP2= -1.249798388127  DE=   1.2e-04 RMAX=   5.7e-05
LMP2-Iter=   4:  ELMP2= -1.249799993303  DE=   1.6e-06 RMAX=   1.1e-05
LMP2-Iter=   5:  ELMP2= -1.249798995360  DE=   1.0e-06 RMAX=   3.2e-06
LMP2-Iter=   6:  ELMP2= -1.249798947737  DE=   4.8e-08 RMAX=   7.5e-07
LMP2-Iter=   7:  ELMP2= -1.249798954674  DE=   6.9e-09 RMAX=   1.6e-07
LMP2-Iter=   8:  ELMP2= -1.249798955602  DE=   9.3e-10 RMAX=   2.7e-08 => CONVERGED
PASS-2: Formation of Pair natural orbitals
   .... Finished loop over pairs

 PNO Occupation Number Statistics: 
  | Av. % of trace(Dij) retained        ...  99.469046477213
  | sigma^2 in % of trace(Dij) retained ...   4.82e-01
  | Av. % of trace(Di) retained         ...  99.999695393297
  | sigma^2 in % of trace(Di) retained  ...   1.07e-08
 Distributions of % trace(Dij) recovered:
  |       >= 99.9  ...    66 ( 28.6 % of all pairs)
  |   [90.0, 99.0) ...    34 ( 14.7 % of all pairs)
  |   [99.0, 99.9) ...   131 ( 56.7 % of all pairs)
 Distributions of % trace(Di) recovered :
  |       >= 99.9  ...    21 (100.0 % of all I-pairs )

Making pair pair interaction lists          ... done

                       ===========================
                        231 OF  231 PAIRS ARE KEPT
                       ===========================

Total time spent in the initial guess                 ...    21.878 sec
L-MP2 correlation energy (all non-screened pairs)     ...      -1.249798955602 Eh
L-MP2 PNO error correction                            ...      -0.000032410438 Eh
                                                          --------------------
Initial total L-MP2 energy (non-screened pairs)       ...      -1.249831366040 Eh

Initial PNO correlation energy                        ...      -1.248460882060 Eh
sum of pair energies estimated for screened out pairs ...       0.000000000000 Eh
sum of MP2 pair energies for pairs that were not kept ...       0.000000000000 Eh
sum of PNO error estimates for the kept pairs         ...      -0.001370483980 Eh
                                                          --------------------
sum of all corrections                                         -0.001370483980
Initial total correlation energy                               -1.249831366040
Thresholds for map construction and integral transformation for fine MP2 and CCSD(T) calculation:
   TCutMKN   ...     1.0e-03
   TCutDO    ...     5.0e-03
   TCutPairs ...     1.0e-05
   TCutCMO   ...     1.0e-03
   TCutCPAO  ...     1.0e-03

Time for aux screen maps:            0.006
Time for maps after fine MP2:            0.017
-----------------------------
LOCAL RI TRANSFORMATION (IJV)
-----------------------------

Orbital window:       7 to 27
Basis functions:    392 (148 shells)
Aux. functions:     957 (291 shells)

Processing maps (0.0 sec)
Average map sizes:
   Aux shells -> MOs(i)           21.0
   Aux shells -> MOs(j)           21.0
   MOs        -> AO shells       144.6

Calculating integrals (0.8 sec, 3.231 MB)
Sorting integrals (0.0 sec, 3.220 MB)
Total time for the integral transformation: 0.8 sec
--------------------------------
LOCAL RI TRANSFORMATION (VABPAO)
--------------------------------

Number of PAOs:     392
Basis functions:    392 (148 shells)
Aux. functions:     957 (291 shells)

Processing maps (0.0 sec)
Average map sizes:
   Aux shells -> PAOs            392.0
   PAOs       -> AO shells       148.0

Calculating integrals (2.7 sec, 2090.344 MB)
Finished


-------------------------------------
Pair Pair Term precalculation with     
RI-(ij|mn) and (im|jn) transformation  
ON THE FLY                             
-------------------------------------

   IBatch   1 (of   2)              ... done (   67.966 sec)
   IBatch   2 (of   2)              ... done (   37.236 sec)
Total EXT                           ...         105.213 sec

---------------------
RI-PNO TRANSFORMATION
---------------------

Total Number of PNOs                   ...  9887
Average number of PNOs per pair        ...    42
Maximal number of PNOs per pair        ...    73
   #pairs with  1 -  5 PNOs   :    0
   #pairs with  6 - 10 PNOs   :   12
   #pairs with 11 - 15 PNOs   :   10
   #pairs with 16 - 20 PNOs   :   10
   #pairs with 21 - 25 PNOs   :    8
   #pairs with 26 - 30 PNOs   :   28
   #pairs with 31 - 35 PNOs   :   23
   #pairs with 36 - 40 PNOs   :    8
   #pairs with 41 - 45 PNOs   :   12
   #pairs with 46 - 50 PNOs   :   32
   #pairs with 51 - 55 PNOs   :   29
   #pairs with 56 - 60 PNOs   :    2
   #pairs with 61 - 65 PNOs   :   25
   #pairs with 66 - 70 PNOs   :   26
   #pairs with 71 - 75 PNOs   :    6

Generation of (ij|ab)[P] integrals            ... on
Generation of (ia|bc)[P],(ja|bc)[P] integrals ... on
Storage of 3 and 4 external integrals         ... on
Generation of ALL (ka|bc)[P] integrals        ... on
Keep RI integrals in memory                   ... off

Ibatch:  1 (of  1)
Starting 2-4 index PNO integral generation ... done

Timings:
Total PNO integral transformation time     ...         41.740 sec
Size of the 3-external file                ...       214 MB
Size of the 4-external file                ...      1599 MB
Size of the IKJL file                      ...         0 MB
Size of the all 3-external file            ...      2256 MB
Size of the 1-external file                ...         4 MB

Making pair/pair overlap matrices          ... done (    4.665 sec)
Size of the pair overlap file              ... 537 MB
Redoing the guess amplitudes               ... done (    0.005 sec)

-------------------------
FINAL STARTUP INFORMATION
-------------------------

E(0)                                       ...   -289.303032228
E(L-MP2)                                   ...     -1.249831366
E(L-MP2) including corrections             ...     -1.249831366
Initial E(tot)                             ...   -290.552863594
<T|T>                                      ...      0.350597476
Number of pairs included                   ... 231
Total number of pairs                      ... 231

------------------------------------------------
                  RHF COUPLED CLUSTER ITERATIONS
------------------------------------------------

Number of PNO amplitudes to be optimized   ...       499653
Number of non-PNO amplitudes               ...     30606576
Untruncated number of regular amplitudes   ...     30606576

Iter       E(tot)           E(Corr)          Delta-E          Residual     Time
  0   -290.519694586     -1.215291874      0.034539492      0.012427196   20.73
                           *** Turning on DIIS ***
  1   -290.577790546     -1.273387833     -0.058095960      0.005986415   21.84
  2   -290.610289790     -1.305887078     -0.032499244      0.001713861   15.65
  3   -290.615960285     -1.311557572     -0.005670495      0.000454336   15.58
  4   -290.617036447     -1.312633735     -0.001076163      0.000250608   14.77
  5   -290.617209343     -1.312806631     -0.000172895      0.000107241   14.94
  6   -290.617245768     -1.312843055     -0.000036425      0.000057202   15.27
  7   -290.617250597     -1.312847885     -0.000004829      0.000025831   14.96
  8   -290.617252012     -1.312849300     -0.000001415      0.000010623   22.28
  9   -290.617252184     -1.312849472     -0.000000172      0.000003178   16.14
               --- The Coupled-Cluster iterations have converged ---

----------------------
COUPLED CLUSTER ENERGY
----------------------

E(0)                                       ...   -289.303032228
E(CORR)(strong-pairs)                      ...     -1.312849472
E(CORR)(weak-pairs)                        ...     -0.001370484
E(CORR)(corrected)                         ...     -1.314219956
E(TOT)                                     ...   -290.617252184
Singles Norm <S|S>**1/2                    ...      0.057530754  
T1 diagnostic                              ...      0.008877188  

------------------
LARGEST AMPLITUDES
------------------
  27-> 35  27-> 35       0.035317
  10-> 38  10-> 38       0.029052
   9-> 38   9-> 38       0.029040
  22-> 28  22-> 28       0.028878
  23-> 28  23-> 28       0.028875
  27-> 28  27-> 28       0.027927
  15-> 34  15-> 34       0.027820
  15-> 28  15-> 28       0.027806
  20-> 28  20-> 28       0.027718
  17-> 28  17-> 28       0.027717
  18-> 28  18-> 28       0.026959
  19-> 28  19-> 28       0.026955
  25-> 28  25-> 28       0.026664
  26-> 28  26-> 28       0.026652
  16-> 28  16-> 28       0.026605
  22-> 34  22-> 34       0.026557


-------------------------------------------
DLPNO BASED TRIPLES CORRECTION
-------------------------------------------

Singles multiplier          ...  1.000000
TCutTNO                     ... 1.000e-09
TCutMP2Pairs                ... 1.000e-06
TCutDOStrong                ... 1.000e-02
TCutMKNStrong               ... 1.000e-02
TCutDOWeak                  ... 2.000e-02
TCutMKNWeak                 ... 1.000e-01

Fragment selection                          .... not used
Number of Triples that are to be computed   ...      1750

 . . . . . . . . .
10% done  
20% done  
30% done  
40% done  
50% done  
60% done  
70% done  
80% done  
90% done               (    280.902 sec)
Triples timings:
Total time for T0               ...   299.556 sec
Total time for Iterative (T)    ...     0.000 sec
Total time of overall (T)       ...   307.168 sec

Triples List generation         ...     0.000 sec
TNO generation                  ...    18.645 sec
Pair density generation         ...     0.005 sec
Look up tables                  ...     0.000 sec
Generating 3-index integrals    ...   197.032 sec
  Make 4-ind.int. from 3-ind.int...    25.897 sec
  Projecting amplitudes (D + S) ...    23.252 sec
  Downprojecting integrals      ...     0.004 sec
  Energy contr. (sum over a,b,c)...     9.838 sec
Fitting ET(->0)                 ...     0.000 sec

Everything after 3-index        ...    83.870 sec

Timing details:
 TNO integrals                  ...   220.614 sec
   Reading 3-index integrals    ...     0.453 sec
   Sorting integrals            ...    26.787 sec
       Sorting integrals 1      ...     0.002 sec
       Sorting integrals 2      ...    16.326 sec
       Sorting integrals 3      ...     0.724 sec
       Sorting integrals 4      ...     0.039 sec
       Sorting integrals 5      ...     0.255 sec
       Sorting integrals 6      ...     9.441 sec
   Calculating local VM**-1/2   ...     0.761 sec
   Orthogonal. integrals        ...     1.318 sec
   Multipl. 3-index integrals   ...   191.296 sec
   All concerning IRIab (w/TNO) ...    13.693 sec

 Calculate W0/W1                ...    24.869 sec
 W 3-ext contribution           ...    13.569 sec
 W 3-int contribution           ...     3.628 sec
 Sorting W                      ...     7.335 sec

 V exchange contribution        ...     3.224 sec

 Timings for Triples without generation
     of 3-index integrals       ...    83.867 sec
       0 weak pairs             ...    83.867 sec
       1 weak pair              ...     0.000 sec
       2 weak pairs             ...     0.000 sec
       3 weak pairs             ...     0.000 sec
  Extra time for extrapolation  ...     0.000 sec

Number of Triples   (0, 1, 2, 3 weak pairs; overall):   1750       0       0       0  (  1750)
Number of Atoms     (0, 1, 2, 3 weak pairs; overall):   19.1     0.0     0.0     0.0  (    20)
Number of PAOs      (0, 1, 2, 3 weak pairs; overall):  378.7     0.0     0.0     0.0  (   392)
Number of AuxFcns   (0, 1, 2, 3 weak pairs; overall):  451.4     0.0     0.0     0.0  (   957)
Number of TNOs      (0, 1, 2, 3 weak pairs         ):  104.8     0.0     0.0     0.0
Aver. Number of NTNO, Atoms, PAOs, AuxFcns / Triples:   1750   104.8    19.1   378.7   451.4

Triples Correction (T)                     ...     -0.052149829
Final correlation energy                   ...     -1.366369784
E(CCSD)                                    ...   -290.617252184
E(CCSD(T))                                 ...   -290.669402012


Maximum memory used throughout the entire calculation: 7813.2 MB


------------------------------------------------------------------------------- 
                                     TIMINGS                                   
------------------------------------------------------------------------------- 


Total execution time                   ...      666.688 sec

Localization of occupied MO's          ...        0.614 sec (  0.1%)
Fock Matrix Formation                  ...        2.838 sec (  0.4%)
Global overlap, Fock, MKN matrices     ...        0.217 sec (  0.0%)
Differential overlap integrals         ...        0.142 sec (  0.0%)
Organizing maps                        ...        0.051 sec (  0.0%)
RI 3-index integral generations        ...        5.399 sec (  0.8%)
RI-PNO integral transformation         ...      151.998 sec ( 22.8%)
Initial Guess                          ...       25.104 sec (  3.8%)
DIIS Solver                            ...        2.010 sec (  0.3%)
State Vector Update                    ...        0.038 sec (  0.0%)
Sigma-vector construction              ...      171.812 sec ( 25.8%)
  <D|H|D>(0-ext)                       ...        3.806 sec (  2.2% of sigma)
  <D|H|D>(2-ext Fock)                  ...        0.015 sec (  0.0% of sigma)
  <D|H|D>(2-ext)                       ...       21.796 sec ( 12.7% of sigma)
  <D|H|D>(4-ext)                       ...       17.235 sec ( 10.0% of sigma)
  <D|H|D>(4-ext-corr)                  ...       89.953 sec ( 52.4% of sigma)
  CCSD doubles correction              ...        0.236 sec (  0.1% of sigma)
  <S|H|S>                              ...        1.070 sec (  0.6% of sigma)
  <S|H|D>(1-ext)                       ...        0.478 sec (  0.3% of sigma)
  <D|H|S>(1-ext)                       ...        0.013 sec (  0.0% of sigma)
  <S|H|D>(3-ext)                       ...        0.643 sec (  0.4% of sigma)
  Fock-dressing                        ...       28.088 sec ( 16.3% of sigma)
  Singles amplitudes                   ...        0.619 sec (  0.4% of sigma)
  (ik|jl)-dressing                     ...        2.807 sec (  1.6% of sigma)
  (ij|ab),(ia|jb)-dressing             ...        3.016 sec (  1.8% of sigma)
  Pair energies                        ...        0.009 sec (  0.0% of sigma)
Total Time for computing (T)           ...      307.251 sec ( 46.1% of ALL)


-------------------------   --------------------
FINAL SINGLE POINT ENERGY      -290.669402012462
-------------------------   --------------------


                            ***************************************
                            *     ORCA property calculations      *
                            ***************************************

                                    ---------------------
                                    Active property flags
                                    ---------------------
   (+) Dipole Moment


------------------------------------------------------------------------------
                       ORCA ELECTRIC PROPERTIES CALCULATION
------------------------------------------------------------------------------

Dipole Moment Calculation                       ... on
Quadrupole Moment Calculation                   ... off
Polarizability Calculation                      ... off
GBWName                                         ... N_me_piperidine_ch_NI.gbw
Electron density file                           ... N_me_piperidine_ch_NI.scfp.tmp
The origin for moment calculation is the CENTER OF MASS  = (-0.003290,  0.000004 -0.007832)

-------------
DIPOLE MOMENT
-------------
                                X             Y             Z
Electronic contribution:     -0.16188       0.00021      -0.38725
Nuclear contribution   :      0.18594      -0.00040       0.43615
                        -----------------------------------------
Total Dipole Moment    :      0.02407      -0.00018       0.04890
                        -----------------------------------------
Magnitude (a.u.)       :      0.05450
Magnitude (Debye)      :      0.13853



--------------------
Rotational spectrum 
--------------------
 
Rotational constants in cm-1:     0.139748     0.079056     0.056736 
Rotational constants in MHz :  4189.552539  2370.030840  1700.905144 

 Dipole components along the rotational axes: 
x,y,z [a.u.] :     0.023773     0.000184     0.049044 
x,y,z [Debye]:     0.060427     0.000468     0.124660 

 

Timings for individual modules:

Sum of individual times         ...      686.828 sec (=  11.447 min)
GTO integral calculation        ...        0.719 sec (=   0.012 min)   0.1 %
SCF iterations                  ...       19.007 sec (=   0.317 min)   2.8 %
MDCI module                     ...      667.102 sec (=  11.118 min)  97.1 %
                             ****ORCA TERMINATED NORMALLY****
TOTAL RUN TIME: 0 days 0 hours 11 minutes 27 seconds 197 msec
N_me_piperidine_ch_NI.gbw -> /home1/pantazis/klk/xyz/Energy_barrier/N_me_piperidine_ch_NI.gbw
N_me_piperidine_ch_NI.job -> /home1/pantazis/klk/xyz/Energy_barrier/N_me_piperidine_ch_NI.job
N_me_piperidine_ch_NI.loc -> /home1/pantazis/klk/xyz/Energy_barrier/N_me_piperidine_ch_NI.loc
N_me_piperidine_ch_NI.nodes -> /home1/pantazis/klk/xyz/Energy_barrier/N_me_piperidine_ch_NI.nodes
N_me_piperidine_ch_NI.prop -> /home1/pantazis/klk/xyz/Energy_barrier/N_me_piperidine_ch_NI.prop
N_me_piperidine_ch_NI_property.txt -> /home1/pantazis/klk/xyz/Energy_barrier/N_me_piperidine_ch_NI_property.txt
N_me_piperidine_ch_NI.xyz -> /home1/pantazis/klk/xyz/Energy_barrier/N_me_piperidine_ch_NI.xyz
cp: cannot stat N_me_piperidine_ch_NI.asa.inp: No such file or directory
