! Job execution by suborca V 6.07 on ZEUS !
Job started from zeus1, running /scratch/pantazis/NAPA_g_plus__KwcZp4/orca/orca copied from /opt/orca on zeussn127 in /scratch/pantazis/NAPA_g_plus__KwcZp4
Job execution start: Fri Jun 28 00:44:25 CEST 2019
Shared library path: /scratch/pantazis/NAPA_g_plus__KwcZp4/orca:/opt/openmpi_1.10.2/lib:/opt/intel/mkl/lib/intel64:/opt/intel/lib/intel64:
PBS Job ID is: 158263.icqc
izeussn127
izeussn127
izeussn127
izeussn127
izeussn127
izeussn127
izeussn127
izeussn127

                                 *****************
                                 * O   R   C   A *
                                 *****************

           --- An Ab Initio, DFT and Semiempirical electronic structure package ---

                  #######################################################
                  #                        -***-                        #
                  #          Department of theory and spectroscopy      #
                  #               Directorship: Frank Neese             #
                  #        Max Planck Institute fuer Kohlenforschung    #
                  #                Kaiser Wilhelm Platz 1               #
                  #                 D-45470 Muelheim/Ruhr               #
                  #                      Germany                        #
                  #                                                     #
                  #                  All rights reserved                #
                  #                        -***-                        #
                  #######################################################


                         Program Version 4.1.x  -  STABLE  -
                                (SVN: $Rev: 14094$)
                ($Date: 2019-06-14 15:01:15 +0200 (Fri, 14 Jun 2019) $)

                         (BUILD: $Sun Jun 23 06:18:31 CEST 2019$)


 With contributions from (in alphabetic order):
   Daniel Aravena         : Magnetic Properties
   Michael Atanasov       : Ab Initio Ligand Field Theory
   Alexander A. Auer      : GIAO ZORA
   Ute Becker             : Parallelization
   Giovanni Bistoni       : ED, Open-shell LED
   Martin Brehm           : Molecular dynamics
   Dmytro Bykov           : SCF Hessian
   Vijay G. Chilkuri      : MRCI spin determinant printing
   Dipayan Datta          : RHF DLPNO-CCSD density
   Achintya Kumar Dutta   : EOM-CC, STEOM-CC
   Dmitry Ganyushin       : Spin-Orbit,Spin-Spin,Magnetic field MRCI
   Miquel Garcia          : C-PCM Hessian
   Yang Guo               : DLPNO-NEVPT2, CIM, IAO-localization
   Andreas Hansen         : Spin unrestricted coupled pair/coupled cluster methods
   Benjamin Helmich-Paris : CASSCF linear response (MC-RPA)
   Lee Huntington         : MR-EOM, pCC
   Robert Izsak           : Overlap fitted RIJCOSX, COSX-SCS-MP3, EOM
   Christian Kollmar      : KDIIS, OOCD, Brueckner-CCSD(T), CCSD density
   Simone Kossmann        : Meta GGA functionals, TD-DFT gradient, OOMP2, MP2 Hessian
   Martin Krupicka        : AUTO-CI
   Lucas Lang             : DCDCAS
   Dagmar Lenk            : GEPOL surface, SMD
   Dimitrios Liakos       : Extrapolation schemes; parallel MDCI
   Dimitrios Manganas     : ROCIS; embedding schemes
   Dimitrios Pantazis     : SARC Basis sets
   Taras Petrenko         : DFT Hessian,TD-DFT gradient, ASA, ECA, R-Raman, ABS, FL, XAS/XES, NRVS
   Peter Pinski           : DLPNO-MP2, DLPNO-MP2 Gradient
   Christoph Reimann      : Effective Core Potentials
   Marius Retegan         : Local ZFS, SOC
   Christoph Riplinger    : Optimizer, TS searches, QM/MM, DLPNO-CCSD(T), (RO)-DLPNO pert. Triples
   Tobias Risthaus        : Range-separated hybrids, TD-DFT gradient, RPA, STAB
   Michael Roemelt        : Restricted open shell CIS
   Masaaki Saitow         : Open-shell DLPNO
   Barbara Sandhoefer     : DKH picture change effects
   Avijit Sen             : IP-ROCIS
   Kantharuban Sivalingam : CASSCF convergence, NEVPT2, FIC-MRCI
   Bernardo de Souza      : ESD, SOC TD-DFT
   Georgi Stoychev        : AutoAux, RI-MP2 NMR
   Willem Van den Heuvel  : Paramagnetic NMR
   Boris Wezisla          : Elementary symmetry handling
   Frank Wennmohs         : Technical directorship


 We gratefully acknowledge several colleagues who have allowed us to
 interface, adapt or use parts of their codes:
   Stefan Grimme, W. Hujo, H. Kruse,             : VdW corrections, initial TS optimization,
                  C. Bannwarth                     DFT functionals, gCP, sTDA/sTD-DF
   Ed Valeev                                     : LibInt (2-el integral package), F12 methods
   Garnet Chan, S. Sharma, J. Yang, R. Olivares  : DMRG
   Ulf Ekstrom                                   : XCFun DFT Library
   Mihaly Kallay                                 : mrcc  (arbitrary order and MRCC methods)
   Andreas Klamt, Michael Diedenhofen            : otool_cosmo (COSMO solvation model)
   Jiri Pittner, Ondrej Demel                    : Mk-CCSD
   Frank Weinhold                                : gennbo (NPA and NBO analysis)
   Christopher J. Cramer and Donald G. Truhlar   : smd solvation model
   Lars Goerigk                                  : TD-DFT with DH, B97 family of functionals
   V. Asgeirsson, H. Jonsson                     : NEB implementation
   FAccTs GmbH                                   : IRC, NEB, NEB-TS, Multilevel


 Your calculation uses the libint2 library for the computation of 2-el integrals
 For citations please refer to: http://libint.valeyev.net

 This ORCA versions uses:
   CBLAS   interface :  Fast vector & matrix operations
   LAPACKE interface :  Fast linear algebra routines
   SCALAPACK package :  Parallel linear algebra routines




***************************************
The coordinates will be read from file: NAPA_g_plus.xyz
***************************************


----- Orbital basis set information -----
Your calculation utilizes the basis: cc-pVTZ 
       H, B-Ne : Obtained from the ccRepo (grant-hill.group.shef.ac.uk/ccrepo) Feb. 2017
                 T. H. Dunning, Jr., J. Chem. Phys. 90, 1007 (1989)
            He : Obtained from the ccRepo (grant-hill.group.shef.ac.uk/ccrepo) Feb. 2017
                 D. E. Woon, T. H. Dunning, Jr., J. Chem. Phys. 100, 2975 (1994)
  Li-Be, Na-Mg : Obtained from the ccRepo (grant-hill.group.shef.ac.uk/ccrepo) Feb. 2017
                 B. P. Prascher, D. E. Woon, K. A. Peterson, T. H. Dunning, Jr., A. K. Wilson, Theor. Chem. Acc. 128, 69 (2011)
         Al-Ar : Obtained from the ccRepo (grant-hill.group.shef.ac.uk/ccrepo) Feb. 2017
                 D. E. Woon, T. H. Dunning, Jr., J. Chem. Phys. 98, 1358 (1993)
            Ca : Obtained from the Peterson Research Group Website (tyr0.chem.wsu.edu/~kipeters) Feb. 2017
                 J. Koput, K. A. Peterson, J. Phys. Chem. 106, 9595 (2002)
         Sc-Zn : Obtained from the ccRepo (grant-hill.group.shef.ac.uk/ccrepo) Feb. 2017
                 N. B. Balabanov, K. A. Peterson, J. Chem. Phys. 123, 064107 (2005)
                 N. B. Balabanov, K. A. Peterson, J. Chem. Phys. 125, 074110 (2006)
         Ga-Kr : Obtained from the ccRepo (grant-hill.group.shef.ac.uk/ccrepo) Feb. 2017
                 A. K. Wilson, D. E. Woon, K. A. Peterson, T. H. Dunning, Jr., J. Chem. Phys. 110, 7667 (1999)
             Y : Obtained from the ccRepo (grant-hill.group.shef.ac.uk/ccrepo) Feb. 2017
                 K. A. Peterson, D. Figgen, M. Dolg, H. Stoll, J. Chem. Phys. 126, 124101 (2007)
        Ag, Au : Obtained from the Peterson Research Group Website (tyr0.chem.wsu.edu/~kipeters) Feb. 2017
                 K. A. Peterson, C. Puzzarini, Theor. Chem. Acc. 114, 283 (2005)

----- AuxC basis set information -----
Your calculation utilizes the auxiliary basis: cc-pVTZ/C 
  Obtained from the EMSL Basis Set Exchange (bse.pnl.gov) Feb. 2017
  H-He, B-F, Al-Ar, Ga-Kr : F. Weigend, A. Kohn, C. Hattig, J. Chem. Phys. 116, 3175 (2002)
             Li-Be, Na-Mg : C. Haettig, Phys. Chem. Chem. Phys. 7, 59 (2005)
                       Ne : C. Haettig, Phys. Chem. Chem. Phys. 7, 59 (2005)
                            F. Weigend, A. Kohn, C. Hattig, J. Chem. Phys. 116, 3175 (2002)
                    Sc-Zn : J. G. Hill, J. A. Platts, J. Chem. Phys. 128, 044104 (2008)

----- AuxJK basis set information -----
Your calculation utilizes the auxiliary basis: cc-pVTZ/JK 
  H, B-F, Al-Cl, Ga-Br : Obtained from the TURBOMOLE 7.0 basis set library

================================================================================
                                        WARNINGS
                       Please study these warnings very carefully!
================================================================================


WARNING: MDCI localization with Augmented Hessian Foster-Boys
  ===> : Switching off randomization!

WARNING: Post HF methods need fully converged wavefunctions
  ===> : Setting SCFConvForced true
         You can overwrite this default with %scf ConvForced false 


INFO   : the flag for use of LIBINT has been found!

================================================================================
                                       INPUT FILE
================================================================================
NAME = NAPA_g_plus.inp
|  1> ! RHF DLPNO-CCSD(T) cc-pVTZ RIJK cc-pVTZ/JK cc-pVTZ/C
|  2> ! KDIIS SOSCF TightSCF TightPNO
|  3> 
|  4> %pal nprocs 8 end
|  5> 
|  6> %maxcore 8000
|  7> 
|  8> %scf maxiter 300
|  9>      shift shift 0.2 erroff 0.1 end
| 10> end
| 11> 
| 12> * xyzfile 0 1 NAPA_g_plus.xyz 
| 13> 
| 14> 
| 15>                          ****END OF INPUT****
================================================================================

                       ****************************
                       * Single Point Calculation *
                       ****************************

---------------------------------
CARTESIAN COORDINATES (ANGSTROEM)
---------------------------------
  C     -3.786680    0.631320   -0.794520
  C     -3.209040   -0.617060   -1.047870
  C     -2.097270   -1.045520   -0.319120
  C     -1.541230   -0.230390    0.681860
  C     -2.134020    1.018760    0.930290
  C     -3.246390    1.449710    0.199420
  C     -0.334240   -0.671850    1.492970
  C      1.039040   -0.539560    0.792480
  C      1.370960   -1.760410   -0.111710
  N      2.588240   -1.695410   -0.704880
  N      1.135120    0.736050    0.081300
  C      2.297890    1.406490   -0.130420
  O      3.397270    0.936670    0.189380
  C      2.180410    2.767190   -0.788070
  O      0.608200   -2.715270   -0.238470
  H      2.616890    3.514600   -0.119330
  H      1.151410    3.053050   -1.021470
  H      2.771360    2.765690   -1.708240
  H      1.820440   -0.523320    1.562440
  H      2.886560   -2.481100   -1.264580
  H      0.267840    1.135170   -0.254330
  H      3.228360   -0.932970   -0.496460
  H     -0.293440   -0.074570    2.409710
  H     -0.444080   -1.719780    1.783870
  H     -1.730830    1.654010    1.716210
  H     -1.645900   -2.011690   -0.519710
  H     -3.627750   -1.263210   -1.814420
  H     -3.691720    2.417220    0.413950
  H     -4.653090    0.959120   -1.361810

----------------------------
CARTESIAN COORDINATES (A.U.)
----------------------------
  NO LB      ZA    FRAG     MASS         X           Y           Z
   0 C     6.0000    0    12.011   -7.155788    1.193022   -1.501425
   1 C     6.0000    0    12.011   -6.064207   -1.166074   -1.980187
   2 C     6.0000    0    12.011   -3.963266   -1.975746   -0.603049
   3 C     6.0000    0    12.011   -2.912503   -0.435374    1.288529
   4 C     6.0000    0    12.011   -4.032713    1.925177    1.757993
   5 C     6.0000    0    12.011   -6.134788    2.739555    0.376849
   6 C     6.0000    0    12.011   -0.631622   -1.269613    2.821304
   7 C     6.0000    0    12.011    1.963501   -1.019621    1.497570
   8 C     6.0000    0    12.011    2.590739   -3.326693   -0.211101
   9 N     7.0000    0    14.007    4.891065   -3.203861   -1.332030
  10 N     7.0000    0    14.007    2.145066    1.390933    0.153635
  11 C     6.0000    0    12.011    4.342383    2.657881   -0.246458
  12 O     8.0000    0    15.999    6.419910    1.770050    0.357876
  13 C     6.0000    0    12.011    4.120378    5.229231   -1.489236
  14 O     8.0000    0    15.999    1.149331   -5.131117   -0.450643
  15 H     1.0000    0     1.008    4.945205    6.641631   -0.225501
  16 H     1.0000    0     1.008    2.175850    5.769428   -1.930299
  17 H     1.0000    0     1.008    5.237111    5.226397   -3.228106
  18 H     1.0000    0     1.008    3.440133   -0.988931    2.952584
  19 H     1.0000    0     1.008    5.454808   -4.688600   -2.389710
  20 H     1.0000    0     1.008    0.506144    2.145160   -0.480614
  21 H     1.0000    0     1.008    6.100716   -1.763058   -0.938173
  22 H     1.0000    0     1.008   -0.554521   -0.140917    4.553692
  23 H     1.0000    0     1.008   -0.839190   -3.249913    3.371026
  24 H     1.0000    0     1.008   -3.270795    3.125626    3.243167
  25 H     1.0000    0     1.008   -3.110300   -3.801543   -0.982110
  26 H     1.0000    0     1.008   -6.855454   -2.387121   -3.428757
  27 H     1.0000    0     1.008   -6.976340    4.567884    0.782252
  28 H     1.0000    0     1.008   -8.793066    1.812474   -2.573448

--------------------------------
INTERNAL COORDINATES (ANGSTROEM)
--------------------------------
 C      0   0   0     0.000000000000     0.00000000     0.00000000
 C      1   0   0     1.398680383969     0.00000000     0.00000000
 C      2   1   0     1.396669992160   120.53340891     0.00000000
 C      3   2   1     1.405552688055   120.56970385     0.07274910
 C      4   3   2     1.404810724439   118.33870295     0.18466538
 C      1   2   3     1.396277980848   119.49010251   359.76732136
 C      4   3   2     1.519740511995   121.72349859   179.84115472
 C      7   4   3     1.547283051869   116.00390365    78.51247451
 C      8   7   4     1.555057929789   112.67818212   275.66055612
 N      9   8   7     1.355671880397   114.10600071   182.09607142
 N      8   7   4     1.463621956278   110.65611848    43.00299668
 C     11   8   7     1.358804336503   124.18788203   150.54964722
 O     12  11   8     1.237594140581   122.18073285     5.07692137
 C     12  11   8     1.515852751061   116.37102998   184.84570594
 O      9   8   7     1.228669416401   122.52091005   359.94989579
 H     14  12  11     1.093777713295   108.49392355   121.38391618
 H     14  12  11     1.093175420324   113.59760651   359.85436581
 H     14  12  11     1.093589036796   108.78020030   237.97226837
 H      8   7   4     1.097127202835   108.40159800   159.25397763
 H     10   9   8     1.009736445069   118.06734663   176.66320580
 H     11   8   7     1.011987583768   116.65540813   331.51325861
 H     10   9   8     1.017107302304   120.75637624     4.30796827
 H      7   4   3     1.094906510164   108.54213561   199.50423169
 H      7   4   3     1.093089621440   109.92026748   317.05170525
 H      5   4   3     1.088014239337   119.37581293   178.66260751
 H      3   2   1     1.085106305345   120.51810079   180.34740893
 H      2   1   3     1.086474476967   119.96375224   179.77610239
 H      6   1   2     1.086470215837   120.25833879   180.66195082
 H      1   2   3     1.086249083866   120.27521941   180.18169684

---------------------------
INTERNAL COORDINATES (A.U.)
---------------------------
 C      0   0   0     0.000000000000     0.00000000     0.00000000
 C      1   0   0     2.643122874589     0.00000000     0.00000000
 C      2   1   0     2.639323784648   120.53340891     0.00000000
 C      3   2   1     2.656109647222   120.56970385     0.07274910
 C      4   3   2     2.654707539186   118.33870295     0.18466538
 C      1   2   3     2.638582990627   119.49010251   359.76732136
 C      4   3   2     2.871893362297   121.72349859   179.84115472
 C      7   4   3     2.923941219690   116.00390365    78.51247451
 C      8   7   4     2.938633609684   112.67818212   275.66055612
 N      9   8   7     2.561848581409   114.10600071   182.09607142
 N      8   7   4     2.765844660960   110.65611848    43.00299668
 C     11   8   7     2.567768065576   124.18788203   150.54964722
 O     12  11   8     2.338713990643   122.18073285     5.07692137
 C     12  11   8     2.864546558857   116.37102998   184.84570594
 O      9   8   7     2.321848706123   122.52091005   359.94989579
 H     14  12  11     2.066940329513   108.49392355   121.38391618
 H     14  12  11     2.065802160746   113.59760651   359.85436581
 H     14  12  11     2.066583782603   108.78020030   237.97226837
 H      8   7   4     2.073269947433   108.40159800   159.25397763
 H     10   9   8     1.908125348619   118.06734663   176.66320580
 H     11   8   7     1.912379384250   116.65540813   331.51325861
 H     10   9   8     1.922054250166   120.75637624     4.30796827
 H      7   4   3     2.069073446458   108.54213561   199.50423169
 H      7   4   3     2.065640024353   109.92026748   317.05170525
 H      5   4   3     2.056048942154   119.37581293   178.66260751
 H      3   2   1     2.050553743294   120.51810079   180.34740893
 H      2   1   3     2.053139212962   119.96375224   179.77610239
 H      6   1   2     2.053131160593   120.25833879   180.66195082
 H      1   2   3     2.052713281730   120.27521941   180.18169684

---------------------
BASIS SET INFORMATION
---------------------
There are 4 groups of distinct atoms

 Group   1 Type C   : 18s5p2d1f contracted to 4s3p2d1f pattern {8811/311/11/1}
 Group   2 Type N   : 18s5p2d1f contracted to 4s3p2d1f pattern {8811/311/11/1}
 Group   3 Type O   : 18s5p2d1f contracted to 4s3p2d1f pattern {8811/311/11/1}
 Group   4 Type H   : 5s2p1d contracted to 3s2p1d pattern {311/11/1}

Atom   0C    basis set group =>   1
Atom   1C    basis set group =>   1
Atom   2C    basis set group =>   1
Atom   3C    basis set group =>   1
Atom   4C    basis set group =>   1
Atom   5C    basis set group =>   1
Atom   6C    basis set group =>   1
Atom   7C    basis set group =>   1
Atom   8C    basis set group =>   1
Atom   9N    basis set group =>   2
Atom  10N    basis set group =>   2
Atom  11C    basis set group =>   1
Atom  12O    basis set group =>   3
Atom  13C    basis set group =>   1
Atom  14O    basis set group =>   3
Atom  15H    basis set group =>   4
Atom  16H    basis set group =>   4
Atom  17H    basis set group =>   4
Atom  18H    basis set group =>   4
Atom  19H    basis set group =>   4
Atom  20H    basis set group =>   4
Atom  21H    basis set group =>   4
Atom  22H    basis set group =>   4
Atom  23H    basis set group =>   4
Atom  24H    basis set group =>   4
Atom  25H    basis set group =>   4
Atom  26H    basis set group =>   4
Atom  27H    basis set group =>   4
Atom  28H    basis set group =>   4
-------------------------------
AUXILIARY BASIS SET INFORMATION
-------------------------------
There are 4 groups of distinct atoms

 Group   1 Type C   : 8s6p5d3f1g contracted to 8s6p5d3f1g pattern {11111111/111111/11111/111/1}
 Group   2 Type N   : 8s6p5d3f1g contracted to 8s6p5d3f1g pattern {11111111/111111/11111/111/1}
 Group   3 Type O   : 8s6p5d3f1g contracted to 8s6p5d3f1g pattern {11111111/111111/11111/111/1}
 Group   4 Type H   : 4s3p2d1f contracted to 4s3p2d1f pattern {1111/111/11/1}

Atom   0C    basis set group =>   1
Atom   1C    basis set group =>   1
Atom   2C    basis set group =>   1
Atom   3C    basis set group =>   1
Atom   4C    basis set group =>   1
Atom   5C    basis set group =>   1
Atom   6C    basis set group =>   1
Atom   7C    basis set group =>   1
Atom   8C    basis set group =>   1
Atom   9N    basis set group =>   2
Atom  10N    basis set group =>   2
Atom  11C    basis set group =>   1
Atom  12O    basis set group =>   3
Atom  13C    basis set group =>   1
Atom  14O    basis set group =>   3
Atom  15H    basis set group =>   4
Atom  16H    basis set group =>   4
Atom  17H    basis set group =>   4
Atom  18H    basis set group =>   4
Atom  19H    basis set group =>   4
Atom  20H    basis set group =>   4
Atom  21H    basis set group =>   4
Atom  22H    basis set group =>   4
Atom  23H    basis set group =>   4
Atom  24H    basis set group =>   4
Atom  25H    basis set group =>   4
Atom  26H    basis set group =>   4
Atom  27H    basis set group =>   4
Atom  28H    basis set group =>   4
-------------------------------
AUXILIARY BASIS SET INFORMATION
-------------------------------
There are 4 groups of distinct atoms

 Group   1 Type C   : 10s7p5d2f1g contracted to 10s7p5d2f1g pattern {1111111111/1111111/11111/11/1}
 Group   2 Type N   : 10s7p5d2f1g contracted to 10s7p5d2f1g pattern {1111111111/1111111/11111/11/1}
 Group   3 Type O   : 10s7p5d2f1g contracted to 10s7p5d2f1g pattern {1111111111/1111111/11111/11/1}
 Group   4 Type H   : 4s3p2d1f contracted to 4s3p2d1f pattern {1111/111/11/1}

Atom   0C    basis set group =>   1
Atom   1C    basis set group =>   1
Atom   2C    basis set group =>   1
Atom   3C    basis set group =>   1
Atom   4C    basis set group =>   1
Atom   5C    basis set group =>   1
Atom   6C    basis set group =>   1
Atom   7C    basis set group =>   1
Atom   8C    basis set group =>   1
Atom   9N    basis set group =>   2
Atom  10N    basis set group =>   2
Atom  11C    basis set group =>   1
Atom  12O    basis set group =>   3
Atom  13C    basis set group =>   1
Atom  14O    basis set group =>   3
Atom  15H    basis set group =>   4
Atom  16H    basis set group =>   4
Atom  17H    basis set group =>   4
Atom  18H    basis set group =>   4
Atom  19H    basis set group =>   4
Atom  20H    basis set group =>   4
Atom  21H    basis set group =>   4
Atom  22H    basis set group =>   4
Atom  23H    basis set group =>   4
Atom  24H    basis set group =>   4
Atom  25H    basis set group =>   4
Atom  26H    basis set group =>   4
Atom  27H    basis set group =>   4
Atom  28H    basis set group =>   4


           ************************************************************
           *        Program running with 8 parallel MPI-processes     *
           *              working on a common directory               *
           ************************************************************
------------------------------------------------------------------------------
                           ORCA GTO INTEGRAL CALCULATION
                           -- RI-GTO INTEGRALS CHOSEN --
------------------------------------------------------------------------------

                         BASIS SET STATISTICS AND STARTUP INFO

Gaussian basis set:
 # of primitive gaussian shells          ...  502
 # of primitive gaussian functions       ...  974
 # of contracted shells                  ...  234
 # of contracted basis functions         ...  646
 Highest angular momentum                ...    3
 Maximum contraction depth               ...    8
Auxiliary gaussian basis set:
 # of primitive gaussian shells          ...  515
 # of primitive gaussian functions       ... 1605
 # of contracted shells                  ...  515
 # of contracted aux-basis functions     ... 1605
 Highest angular momentum                ...    4
 Maximum contraction depth               ...    1
Ratio of auxiliary to basis functions    ...  2.48
Integral package used                  ... LIBINT
 One Electron integrals                  ... done
 Ordering auxiliary basis shells         ... done
 Integral threshhold             Thresh  ...  2.500e-11
 Primitive cut-off               TCut    ...  2.500e-12
 Pre-screening matrix                    ... done
 Shell pair data                         ... 
 Ordering of the shell pairs             ... done (   0.005 sec) 22200 of 27495 pairs
 Determination of significant pairs      ... done (   0.000 sec)
 Creation of shell pair data             ... done (   0.006 sec)
 Storage of shell pair data              ... done (   0.006 sec)
 Shell pair data done in (   0.017 sec)
 Computing two index integrals           ... done
 Cholesky decomposition of the V-matrix  ... done


Timings:
 Total evaluation time                   ...   1.441 sec (  0.024 min)
 One electron matrix time                ...   0.348 sec (  0.006 min) = 24.2%
 Schwartz matrix evaluation time         ...   0.629 sec (  0.010 min) = 43.7%
 Two index repulsion integral time       ...   0.180 sec (  0.003 min) = 12.5%
 Cholesky decomposition of V             ...   0.240 sec (  0.004 min) = 16.7%
 Three index repulsion integral time     ...   0.000 sec (  0.000 min) =  0.0%



           ************************************************************
           *        Program running with 8 parallel MPI-processes     *
           *              working on a common directory               *
           ************************************************************
-------------------------------------------------------------------------------
                                 ORCA SCF
-------------------------------------------------------------------------------

------------
SCF SETTINGS
------------
Hamiltonian:
 Ab initio Hamiltonian  Method          .... Hartree-Fock(GTOs)
 RI-approximation to the Coulomb term is turned on
   Number of auxiliary basis functions  .... 1605
   RI-JK (J+K treated both via RI)      .... on


General Settings:
 Integral files         IntName         .... NAPA_g_plus
 Hartree-Fock type      HFTyp           .... RHF
 Total Charge           Charge          ....    0
 Multiplicity           Mult            ....    1
 Number of Electrons    NEL             ....  110
 Basis Dimension        Dim             ....  646
 Nuclear Repulsion      ENuc            ....    981.2326450809 Eh

Convergence Acceleration:
 DIIS                   CNVDIIS         .... off
 Newton-Raphson         CNVNR           .... off
 SOSCF                  CNVSOSCF        .... on
   Start iteration      SOSCFMaxIt      ....   150
   Startup grad/error   SOSCFStart      ....  0.003300
 Level Shifting         CNVShift        .... on
   Level shift para.    LevelShift      ....    0.2000
   Turn off err/grad.   ShiftErr        ....    0.1000
 Zerner damping         CNVZerner       .... off
 Static damping         CNVDamp         .... off
 Fernandez-Rico         CNVRico         .... off

SCF Procedure:
 Maximum # iterations   MaxIter         ....   300
 SCF integral mode      SCFMode         .... Direct
   Integral package                     .... LIBINT
 Reset frequency        DirectResetFreq ....    20
 Integral Threshold     Thresh          ....  2.500e-11 Eh
 Primitive CutOff       TCut            ....  2.500e-12 Eh

Convergence Tolerance:
 Convergence Check Mode ConvCheckMode   .... Total+1el-Energy
 Convergence forced     ConvForced      .... 1
 Energy Change          TolE            ....  1.000e-08 Eh
 1-El. energy change                    ....  1.000e-05 Eh
 Orbital Gradient       TolG            ....  1.000e-05
 Orbital Rotation angle TolX            ....  1.000e-05


Diagonalization of the overlap matrix:
Smallest eigenvalue                        ... 3.111e-05
Time for diagonalization                   ...    0.102 sec
Threshold for overlap eigenvalues          ... 1.000e-08
Number of eigenvalues below threshold      ... 0
Time for construction of square roots      ...    0.100 sec
Total time needed                          ...    0.203 sec

-------------------
DFT GRID GENERATION
-------------------

General Integration Accuracy     IntAcc      ...  4.340
Radial Grid Type                 RadialGrid  ... Gauss-Chebyshev
Angular Grid (max. acc.)         AngularGrid ... Lebedev-110
Angular grid pruning method      GridPruning ... 3 (G Style)
Weight generation scheme         WeightScheme... Becke
Basis function cutoff            BFCut       ...    1.0000e-11
Integration weight cutoff        WCut        ...    1.0000e-14
Grids for H and He will be reduced by one unit

# of grid points (after initial pruning)     ...  36168 (   0.0 sec)
# of grid points (after weights+screening)   ...  32681 (   0.0 sec)
nearest neighbour list constructed           ...    0.0 sec
Grid point re-assignment to atoms done       ...    0.0 sec
Grid point division into batches done        ...    0.0 sec
Reduced shell lists constructed in    0.4 sec

Total number of grid points                  ...    32681
Total number of batches                      ...      524
Average number of points per batch           ...       62
Average number of grid points per atom       ...     1127
Average number of shells per batch           ...   140.87 (60.20%)
Average number of basis functions per batch  ...   365.13 (56.52%)
Average number of large shells per batch     ...   101.12 (71.78%)
Average number of large basis fcns per batch ...   265.30 (72.66%)
Average number of aux-shells per batch       ...   140.87 (27.35%)
Average number of aux functions per batch    ...   365.13 (22.75%)
Maximum spatial batch extension              ...  13.30, 13.71, 20.89 au
Average spatial batch extension              ...   0.30,  0.30,  0.35 au

Time for grid setup =    0.530 sec

------------------------------
INITIAL GUESS: MODEL POTENTIAL
------------------------------
Loading Hartree-Fock densities                     ... done
Calculating cut-offs                               ... done
Setting up the integral package                    ... done
Initializing the effective Hamiltonian             ... done
Starting the Coulomb interaction                   ... done (   0.3 sec)
Reading the grid                                   ... done
Mapping shells                                     ... done
Starting the XC term evaluation                    ... done (   0.2 sec)
Transforming the Hamiltonian                       ... done (   0.0 sec)
Diagonalizing the Hamiltonian                      ... done (   0.1 sec)
Back transforming the eigenvectors                 ... done (   0.0 sec)
Now organizing SCF variables                       ... done
                      ------------------
                      INITIAL GUESS DONE (   1.3 sec)
                      ------------------
--------------
SCF ITERATIONS
--------------
ITER       Energy         Delta-E        Max-DP      RMS-DP      [F,P]   Gradient Norm
                             ****Turning on KDIIS(Cayley)****
  0   -682.9250781865   0.000000000000 0.01229298  0.00020347  0.1039291   0.155912285
  1   -683.1102764809  -0.185198294424 0.01804840  0.00025991  0.0957842   0.135560791
  2   -683.2777833842  -0.167506903292 0.02968957  0.00043766  0.0768606   0.110186996
  3   -683.4809252261  -0.203141841906 0.04541238  0.00069788  0.0461420   0.067550267
                      *** Initiating the SOSCF procedure ***
                           *** Shutting down KDIIS ***
                      *** Re-Reading the Fockian *** 
                      *** Removing any level shift *** 
ITER      Energy       Delta-E        Grad      Rot      Max-DP    RMS-DP
  4   -683.61030918  -0.1293839525  0.002581  0.002581  0.003038  0.000051
  5   -683.61076214  -0.0004529622  0.000788  0.001207  0.001826  0.000033
  6   -683.61081175  -0.0000496116  0.000595  0.000566  0.001081  0.000015
  7   -683.61083481  -0.0000230578  0.000236  0.000502  0.000295  0.000006
  8   -683.61083656  -0.0000017520  0.000063  0.000181  0.000173  0.000003
  9   -683.61083711  -0.0000005449  0.000035  0.000061  0.000046  0.000001
 10   -683.61083719  -0.0000000806  0.000010  0.000026  0.000036  0.000001
 11   -683.61083720  -0.0000000130  0.000004  0.000011  0.000014  0.000000
 12   -683.61083720  -0.0000000016  0.000003  0.000009  0.000005  0.000000
                  ***Gradient check signals convergence***
              ***Rediagonalizing the Fockian in SOSCF/NRSCF***

               *****************************************************
               *                     SUCCESS                       *
               *           SCF CONVERGED AFTER  13 CYCLES          *
               *****************************************************


----------------
TOTAL SCF ENERGY
----------------

Total Energy       :         -683.61083720 Eh          -18601.99659 eV

Components:
Nuclear Repulsion  :          981.23264508 Eh           26700.69771 eV
Electronic Energy  :        -1664.84348228 Eh          -45302.69430 eV
One Electron Energy:        -2879.68489885 Eh          -78360.20985 eV
Two Electron Energy:         1214.84141657 Eh           33057.51556 eV

Virial components:
Potential Energy   :        -1365.94128281 Eh          -37169.15195 eV
Kinetic Energy     :          682.33044561 Eh           18567.15536 eV
Virial Ratio       :            2.00187650


---------------
SCF CONVERGENCE
---------------

  Last Energy change         ...   -3.2901e-10  Tolerance :   1.0000e-08
  Last MAX-Density change    ...    2.0796e-06  Tolerance :   1.0000e-07
  Last RMS-Density change    ...    4.0781e-08  Tolerance :   5.0000e-09
  Last Orbital Gradient      ...    1.1953e-06  Tolerance :   1.0000e-05
  Last Orbital Rotation      ...    4.9617e-06  Tolerance :   1.0000e-05

             **** THE GBW FILE WAS UPDATED (NAPA_g_plus.gbw) ****
             **** DENSITY FILE WAS UPDATED (NAPA_g_plus.scfp.tmp) ****
             **** ENERGY FILE WAS UPDATED (NAPA_g_plus.en.tmp) ****
----------------
ORBITAL ENERGIES
----------------

  NO   OCC          E(Eh)            E(eV) 
   0   2.0000     -20.528227      -558.6014 
   1   2.0000     -20.516878      -558.2926 
   2   2.0000     -15.600974      -424.5241 
   3   2.0000     -15.569935      -423.6795 
   4   2.0000     -11.368067      -309.3408 
   5   2.0000     -11.350743      -308.8694 
   6   2.0000     -11.294624      -307.3423 
   7   2.0000     -11.249467      -306.1136 
   8   2.0000     -11.248363      -306.0835 
   9   2.0000     -11.243127      -305.9410 
  10   2.0000     -11.241677      -305.9016 
  11   2.0000     -11.240278      -305.8635 
  12   2.0000     -11.238894      -305.8259 
  13   2.0000     -11.237514      -305.7883 
  14   2.0000     -11.230973      -305.6103 
  15   2.0000      -1.389124       -37.8000 
  16   2.0000      -1.373254       -37.3682 
  17   2.0000      -1.248697       -33.9788 
  18   2.0000      -1.199473       -32.6393 
  19   2.0000      -1.155533       -31.4437 
  20   2.0000      -1.072784       -29.1919 
  21   2.0000      -1.024064       -27.8662 
  22   2.0000      -1.014775       -27.6134 
  23   2.0000      -0.984985       -26.8028 
  24   2.0000      -0.900813       -24.5124 
  25   2.0000      -0.829673       -22.5765 
  26   2.0000      -0.817220       -22.2377 
  27   2.0000      -0.807294       -21.9676 
  28   2.0000      -0.774445       -21.0737 
  29   2.0000      -0.728258       -19.8169 
  30   2.0000      -0.704698       -19.1758 
  31   2.0000      -0.694322       -18.8935 
  32   2.0000      -0.670425       -18.2432 
  33   2.0000      -0.663600       -18.0575 
  34   2.0000      -0.635033       -17.2801 
  35   2.0000      -0.631372       -17.1805 
  36   2.0000      -0.618249       -16.8234 
  37   2.0000      -0.601196       -16.3594 
  38   2.0000      -0.593678       -16.1548 
  39   2.0000      -0.584801       -15.9133 
  40   2.0000      -0.583799       -15.8860 
  41   2.0000      -0.564970       -15.3736 
  42   2.0000      -0.552539       -15.0353 
  43   2.0000      -0.542307       -14.7569 
  44   2.0000      -0.531756       -14.4698 
  45   2.0000      -0.522947       -14.2301 
  46   2.0000      -0.494321       -13.4512 
  47   2.0000      -0.487335       -13.2611 
  48   2.0000      -0.485779       -13.2187 
  49   2.0000      -0.447101       -12.1662 
  50   2.0000      -0.437163       -11.8958 
  51   2.0000      -0.406734       -11.0678 
  52   2.0000      -0.394035       -10.7222 
  53   2.0000      -0.339881        -9.2486 
  54   2.0000      -0.332872        -9.0579 
  55   0.0000       0.116286         3.1643 
  56   0.0000       0.119018         3.2387 
  57   0.0000       0.124878         3.3981 
  58   0.0000       0.148966         4.0536 
  59   0.0000       0.154998         4.2177 
  60   0.0000       0.159832         4.3492 
  61   0.0000       0.165502         4.5035 
  62   0.0000       0.173228         4.7138 
  63   0.0000       0.183047         4.9810 
  64   0.0000       0.186218         5.0673 
  65   0.0000       0.199063         5.4168 
  66   0.0000       0.201970         5.4959 
  67   0.0000       0.216447         5.8898 
  68   0.0000       0.230011         6.2589 
  69   0.0000       0.234464         6.3801 
  70   0.0000       0.242367         6.5951 
  71   0.0000       0.258263         7.0277 
  72   0.0000       0.263187         7.1617 
  73   0.0000       0.295857         8.0507 
  74   0.0000       0.308857         8.4044 
  75   0.0000       0.312963         8.5162 
  76   0.0000       0.324799         8.8382 
  77   0.0000       0.343209         9.3392 
  78   0.0000       0.352508         9.5922 
  79   0.0000       0.365676         9.9505 
  80   0.0000       0.369001        10.0410 
  81   0.0000       0.373595        10.1660 
  82   0.0000       0.387135        10.5345 
  83   0.0000       0.394762        10.7420 
  84   0.0000       0.400668        10.9027 
  85   0.0000       0.417447        11.3593 
  86   0.0000       0.428325        11.6553 
  87   0.0000       0.438735        11.9386 
  88   0.0000       0.444567        12.0973 
  89   0.0000       0.446669        12.1545 
  90   0.0000       0.461868        12.5681 
  91   0.0000       0.465058        12.6549 
  92   0.0000       0.476012        12.9530 
  93   0.0000       0.480857        13.0848 
  94   0.0000       0.491354        13.3704 
  95   0.0000       0.501248        13.6396 
  96   0.0000       0.513767        13.9803 
  97   0.0000       0.514421        13.9981 
  98   0.0000       0.526231        14.3195 
  99   0.0000       0.535534        14.5726 
 100   0.0000       0.540019        14.6947 
 101   0.0000       0.543740        14.7959 
 102   0.0000       0.550575        14.9819 
 103   0.0000       0.556231        15.1358 
 104   0.0000       0.567959        15.4550 
 105   0.0000       0.569505        15.4970 
 106   0.0000       0.576656        15.6916 
 107   0.0000       0.584673        15.9098 
 108   0.0000       0.586586        15.9618 
 109   0.0000       0.597570        16.2607 
 110   0.0000       0.601357        16.3638 
 111   0.0000       0.605786        16.4843 
 112   0.0000       0.610161        16.6033 
 113   0.0000       0.616583        16.7781 
 114   0.0000       0.617481        16.8025 
 115   0.0000       0.620794        16.8927 
 116   0.0000       0.630257        17.1502 
 117   0.0000       0.638269        17.3682 
 118   0.0000       0.645974        17.5778 
 119   0.0000       0.650506        17.7012 
 120   0.0000       0.654995        17.8233 
 121   0.0000       0.662778        18.0351 
 122   0.0000       0.668851        18.2003 
 123   0.0000       0.678298        18.4574 
 124   0.0000       0.684099        18.6153 
 125   0.0000       0.691915        18.8280 
 126   0.0000       0.707150        19.2425 
 127   0.0000       0.711544        19.3621 
 128   0.0000       0.715326        19.4650 
 129   0.0000       0.724511        19.7150 
 130   0.0000       0.729440        19.8491 
 131   0.0000       0.738507        20.0958 
 132   0.0000       0.743149        20.2221 
 133   0.0000       0.750133        20.4122 
 134   0.0000       0.757029        20.5998 
 135   0.0000       0.769044        20.9268 
 136   0.0000       0.786956        21.4142 
 137   0.0000       0.803318        21.8594 
 138   0.0000       0.812637        22.1130 
 139   0.0000       0.813759        22.1435 
 140   0.0000       0.825859        22.4728 
 141   0.0000       0.832108        22.6428 
 142   0.0000       0.844124        22.9698 
 143   0.0000       0.851682        23.1754 
 144   0.0000       0.859340        23.3838 
 145   0.0000       0.869315        23.6553 
 146   0.0000       0.879765        23.9396 
 147   0.0000       0.892806        24.2945 
 148   0.0000       0.906940        24.6791 
 149   0.0000       0.910773        24.7834 
 150   0.0000       0.913471        24.8568 
 151   0.0000       0.931856        25.3571 
 152   0.0000       0.937554        25.5122 
 153   0.0000       0.955576        26.0025 
 154   0.0000       0.960230        26.1292 
 155   0.0000       0.967382        26.3238 
 156   0.0000       0.978849        26.6358 
 157   0.0000       0.981276        26.7019 
 158   0.0000       0.996197        27.1079 
 159   0.0000       1.001947        27.2644 
 160   0.0000       1.010084        27.4858 
 161   0.0000       1.018657        27.7191 
 162   0.0000       1.028665        27.9914 
 163   0.0000       1.036958        28.2171 
 164   0.0000       1.045989        28.4628 
 165   0.0000       1.050070        28.5739 
 166   0.0000       1.061832        28.8939 
 167   0.0000       1.070172        29.1209 
 168   0.0000       1.073242        29.2044 
 169   0.0000       1.077156        29.3109 
 170   0.0000       1.093435        29.7539 
 171   0.0000       1.114046        30.3147 
 172   0.0000       1.118503        30.4360 
 173   0.0000       1.132452        30.8156 
 174   0.0000       1.139609        31.0103 
 175   0.0000       1.140486        31.0342 
 176   0.0000       1.156434        31.4682 
 177   0.0000       1.166869        31.7521 
 178   0.0000       1.181143        32.1405 
 179   0.0000       1.183394        32.2018 
 180   0.0000       1.202053        32.7095 
 181   0.0000       1.204269        32.7698 
 182   0.0000       1.206878        32.8408 
 183   0.0000       1.219793        33.1922 
 184   0.0000       1.224597        33.3230 
 185   0.0000       1.236357        33.6430 
 186   0.0000       1.240768        33.7630 
 187   0.0000       1.247251        33.9394 
 188   0.0000       1.254854        34.1463 
 189   0.0000       1.263438        34.3799 
 190   0.0000       1.277886        34.7730 
 191   0.0000       1.283899        34.9367 
 192   0.0000       1.299075        35.3496 
 193   0.0000       1.306994        35.5651 
 194   0.0000       1.310683        35.6655 
 195   0.0000       1.330463        36.2037 
 196   0.0000       1.345298        36.6074 
 197   0.0000       1.363949        37.1149 
 198   0.0000       1.370053        37.2810 
 199   0.0000       1.376744        37.4631 
 200   0.0000       1.378077        37.4994 
 201   0.0000       1.394747        37.9530 
 202   0.0000       1.401569        38.1386 
 203   0.0000       1.408443        38.3257 
 204   0.0000       1.418298        38.5938 
 205   0.0000       1.427856        38.8539 
 206   0.0000       1.428202        38.8633 
 207   0.0000       1.437889        39.1270 
 208   0.0000       1.456568        39.6352 
 209   0.0000       1.475260        40.1439 
 210   0.0000       1.484801        40.4035 
 211   0.0000       1.493477        40.6396 
 212   0.0000       1.500796        40.8387 
 213   0.0000       1.508832        41.0574 
 214   0.0000       1.513101        41.1736 
 215   0.0000       1.518816        41.3291 
 216   0.0000       1.528348        41.5885 
 217   0.0000       1.531528        41.6750 
 218   0.0000       1.538990        41.8780 
 219   0.0000       1.546132        42.0724 
 220   0.0000       1.559389        42.4331 
 221   0.0000       1.567271        42.6476 
 222   0.0000       1.570066        42.7237 
 223   0.0000       1.582456        43.0608 
 224   0.0000       1.588544        43.2265 
 225   0.0000       1.594514        43.3889 
 226   0.0000       1.601277        43.5730 
 227   0.0000       1.610444        43.8224 
 228   0.0000       1.619078        44.0573 
 229   0.0000       1.624829        44.2138 
 230   0.0000       1.636742        44.5380 
 231   0.0000       1.640271        44.6340 
 232   0.0000       1.650725        44.9185 
 233   0.0000       1.673372        45.5348 
 234   0.0000       1.685016        45.8516 
 235   0.0000       1.694045        46.0973 
 236   0.0000       1.710118        46.5347 
 237   0.0000       1.736252        47.2458 
 238   0.0000       1.738395        47.3041 
 239   0.0000       1.742794        47.4238 
 240   0.0000       1.755666        47.7741 
 241   0.0000       1.766188        48.0604 
 242   0.0000       1.766255        48.0622 
 243   0.0000       1.786618        48.6163 
 244   0.0000       1.789541        48.6959 
 245   0.0000       1.809841        49.2483 
 246   0.0000       1.818921        49.4954 
 247   0.0000       1.849364        50.3237 
 248   0.0000       1.861463        50.6530 
 249   0.0000       1.875222        51.0274 
 250   0.0000       1.912914        52.0530 
 251   0.0000       1.921614        52.2898 
 252   0.0000       1.942546        52.8594 
 253   0.0000       1.961848        53.3846 
 254   0.0000       1.967148        53.5288 
 255   0.0000       1.981750        53.9262 
 256   0.0000       2.005398        54.5696 
 257   0.0000       2.022687        55.0401 
 258   0.0000       2.034220        55.3539 
 259   0.0000       2.053591        55.8811 
 260   0.0000       2.068597        56.2894 
 261   0.0000       2.110471        57.4288 
 262   0.0000       2.116081        57.5815 
 263   0.0000       2.145775        58.3895 
 264   0.0000       2.157583        58.7108 
 265   0.0000       2.196056        59.7577 
 266   0.0000       2.211726        60.1841 
 267   0.0000       2.261346        61.5344 
 268   0.0000       2.284474        62.1637 
 269   0.0000       2.288029        62.2604 
 270   0.0000       2.322707        63.2041 
 271   0.0000       2.346357        63.8476 
 272   0.0000       2.360445        64.2310 
 273   0.0000       2.375748        64.6474 
 274   0.0000       2.392046        65.0909 
 275   0.0000       2.401040        65.3356 
 276   0.0000       2.408443        65.5371 
 277   0.0000       2.453759        66.7702 
 278   0.0000       2.462956        67.0204 
 279   0.0000       2.470147        67.2161 
 280   0.0000       2.486403        67.6585 
 281   0.0000       2.500961        68.0546 
 282   0.0000       2.513144        68.3861 
 283   0.0000       2.517509        68.5049 
 284   0.0000       2.540646        69.1345 
 285   0.0000       2.559678        69.6524 
 286   0.0000       2.577118        70.1269 
 287   0.0000       2.589496        70.4638 
 288   0.0000       2.595470        70.6263 
 289   0.0000       2.602255        70.8109 
 290   0.0000       2.620980        71.3205 
 291   0.0000       2.632300        71.6285 
 292   0.0000       2.654371        72.2291 
 293   0.0000       2.689001        73.1714 
 294   0.0000       2.705207        73.6124 
 295   0.0000       2.716214        73.9119 
 296   0.0000       2.741020        74.5870 
 297   0.0000       2.759396        75.0870 
 298   0.0000       2.768290        75.3290 
 299   0.0000       2.782903        75.7266 
 300   0.0000       2.787503        75.8518 
 301   0.0000       2.794164        76.0331 
 302   0.0000       2.800152        76.1960 
 303   0.0000       2.824993        76.8720 
 304   0.0000       2.833528        77.1042 
 305   0.0000       2.838749        77.2463 
 306   0.0000       2.852701        77.6259 
 307   0.0000       2.871866        78.1474 
 308   0.0000       2.887544        78.5741 
 309   0.0000       2.892157        78.6996 
 310   0.0000       2.903597        79.0109 
 311   0.0000       2.915378        79.3315 
 312   0.0000       2.925988        79.6202 
 313   0.0000       2.931306        79.7649 
 314   0.0000       2.948578        80.2349 
 315   0.0000       2.964088        80.6569 
 316   0.0000       2.967477        80.7491 
 317   0.0000       2.984859        81.2222 
 318   0.0000       2.991397        81.4000 
 319   0.0000       2.995322        81.5069 
 320   0.0000       3.003566        81.7312 
 321   0.0000       3.019026        82.1519 
 322   0.0000       3.021857        82.2289 
 323   0.0000       3.033727        82.5519 
 324   0.0000       3.051891        83.0462 
 325   0.0000       3.058379        83.2227 
 326   0.0000       3.069588        83.5277 
 327   0.0000       3.072896        83.6177 
 328   0.0000       3.078764        83.7774 
 329   0.0000       3.086290        83.9822 
 330   0.0000       3.095269        84.2266 
 331   0.0000       3.106252        84.5254 
 332   0.0000       3.110928        84.6527 
 333   0.0000       3.126454        85.0751 
 334   0.0000       3.141265        85.4782 
 335   0.0000       3.152121        85.7736 
 336   0.0000       3.163336        86.0788 
 337   0.0000       3.167516        86.1925 
 338   0.0000       3.196936        86.9931 
 339   0.0000       3.200228        87.0826 
 340   0.0000       3.204995        87.2123 
 341   0.0000       3.209575        87.3370 
 342   0.0000       3.220370        87.6307 
 343   0.0000       3.231374        87.9302 
 344   0.0000       3.247659        88.3733 
 345   0.0000       3.260351        88.7187 
 346   0.0000       3.269991        88.9810 
 347   0.0000       3.273574        89.0785 
 348   0.0000       3.282053        89.3092 
 349   0.0000       3.291150        89.5567 
 350   0.0000       3.301520        89.8389 
 351   0.0000       3.307302        89.9963 
 352   0.0000       3.312789        90.1456 
 353   0.0000       3.316445        90.2451 
 354   0.0000       3.328103        90.5623 
 355   0.0000       3.332999        90.6955 
 356   0.0000       3.339530        90.8732 
 357   0.0000       3.355648        91.3118 
 358   0.0000       3.360958        91.4563 
 359   0.0000       3.371326        91.7384 
 360   0.0000       3.374714        91.8306 
 361   0.0000       3.383527        92.0705 
 362   0.0000       3.390253        92.2535 
 363   0.0000       3.393095        92.3308 
 364   0.0000       3.398371        92.4744 
 365   0.0000       3.405098        92.6574 
 366   0.0000       3.413094        92.8750 
 367   0.0000       3.418144        93.0124 
 368   0.0000       3.421252        93.0970 
 369   0.0000       3.432631        93.4066 
 370   0.0000       3.436391        93.5090 
 371   0.0000       3.445634        93.7605 
 372   0.0000       3.452161        93.9381 
 373   0.0000       3.462231        94.2121 
 374   0.0000       3.476234        94.5931 
 375   0.0000       3.486361        94.8687 
 376   0.0000       3.495621        95.1207 
 377   0.0000       3.500638        95.2572 
 378   0.0000       3.519397        95.7677 
 379   0.0000       3.526029        95.9481 
 380   0.0000       3.535951        96.2181 
 381   0.0000       3.546689        96.5103 
 382   0.0000       3.550677        96.6188 
 383   0.0000       3.558907        96.8428 
 384   0.0000       3.565470        97.0214 
 385   0.0000       3.582995        97.4982 
 386   0.0000       3.587709        97.6265 
 387   0.0000       3.597944        97.9050 
 388   0.0000       3.601251        97.9950 
 389   0.0000       3.601788        98.0096 
 390   0.0000       3.620386        98.5157 
 391   0.0000       3.626826        98.6910 
 392   0.0000       3.634275        98.8936 
 393   0.0000       3.649418        99.3057 
 394   0.0000       3.655186        99.4627 
 395   0.0000       3.661672        99.6391 
 396   0.0000       3.671894        99.9173 
 397   0.0000       3.682453       100.2046 
 398   0.0000       3.687687       100.3471 
 399   0.0000       3.696014       100.5737 
 400   0.0000       3.701836       100.7321 
 401   0.0000       3.707538       100.8872 
 402   0.0000       3.709041       100.9281 
 403   0.0000       3.717416       101.1560 
 404   0.0000       3.721897       101.2780 
 405   0.0000       3.734799       101.6291 
 406   0.0000       3.736729       101.6816 
 407   0.0000       3.747033       101.9619 
 408   0.0000       3.756866       102.2295 
 409   0.0000       3.774369       102.7058 
 410   0.0000       3.775260       102.7300 
 411   0.0000       3.783451       102.9529 
 412   0.0000       3.786795       103.0439 
 413   0.0000       3.797972       103.3481 
 414   0.0000       3.814526       103.7985 
 415   0.0000       3.828514       104.1792 
 416   0.0000       3.833789       104.3227 
 417   0.0000       3.844766       104.6214 
 418   0.0000       3.849257       104.7436 
 419   0.0000       3.871594       105.3514 
 420   0.0000       3.875834       105.4668 
 421   0.0000       3.907484       106.3280 
 422   0.0000       3.917452       106.5993 
 423   0.0000       3.928182       106.8913 
 424   0.0000       3.936458       107.1165 
 425   0.0000       3.943816       107.3167 
 426   0.0000       3.945846       107.3719 
 427   0.0000       3.972186       108.0887 
 428   0.0000       3.978521       108.2611 
 429   0.0000       3.989249       108.5530 
 430   0.0000       4.001787       108.8942 
 431   0.0000       4.018812       109.3574 
 432   0.0000       4.034838       109.7935 
 433   0.0000       4.047510       110.1383 
 434   0.0000       4.058196       110.4291 
 435   0.0000       4.060366       110.4882 
 436   0.0000       4.070683       110.7689 
 437   0.0000       4.080752       111.0429 
 438   0.0000       4.087949       111.2387 
 439   0.0000       4.094659       111.4213 
 440   0.0000       4.098068       111.5141 
 441   0.0000       4.108030       111.7852 
 442   0.0000       4.116141       112.0059 
 443   0.0000       4.130761       112.4037 
 444   0.0000       4.133689       112.4834 
 445   0.0000       4.140859       112.6785 
 446   0.0000       4.146821       112.8407 
 447   0.0000       4.149944       112.9257 
 448   0.0000       4.159025       113.1728 
 449   0.0000       4.165344       113.3448 
 450   0.0000       4.178427       113.7008 
 451   0.0000       4.184581       113.8682 
 452   0.0000       4.185994       113.9067 
 453   0.0000       4.203983       114.3962 
 454   0.0000       4.208811       114.5276 
 455   0.0000       4.215313       114.7045 
 456   0.0000       4.232093       115.1611 
 457   0.0000       4.240888       115.4004 
 458   0.0000       4.260270       115.9278 
 459   0.0000       4.268253       116.1451 
 460   0.0000       4.274729       116.3213 
 461   0.0000       4.291571       116.7796 
 462   0.0000       4.300405       117.0200 
 463   0.0000       4.307691       117.2182 
 464   0.0000       4.316938       117.4699 
 465   0.0000       4.327915       117.7686 
 466   0.0000       4.337440       118.0278 
 467   0.0000       4.348437       118.3270 
 468   0.0000       4.360519       118.6558 
 469   0.0000       4.369914       118.9114 
 470   0.0000       4.379887       119.1828 
 471   0.0000       4.388042       119.4047 
 472   0.0000       4.392325       119.5212 
 473   0.0000       4.405997       119.8933 
 474   0.0000       4.409244       119.9816 
 475   0.0000       4.422896       120.3531 
 476   0.0000       4.430576       120.5621 
 477   0.0000       4.442789       120.8944 
 478   0.0000       4.450587       121.1066 
 479   0.0000       4.466826       121.5485 
 480   0.0000       4.473811       121.7386 
 481   0.0000       4.477508       121.8392 
 482   0.0000       4.482691       121.9802 
 483   0.0000       4.497944       122.3953 
 484   0.0000       4.500476       122.4642 
 485   0.0000       4.513665       122.8231 
 486   0.0000       4.529491       123.2537 
 487   0.0000       4.538400       123.4961 
 488   0.0000       4.540363       123.5496 
 489   0.0000       4.543223       123.6274 
 490   0.0000       4.558202       124.0350 
 491   0.0000       4.570921       124.3811 
 492   0.0000       4.580025       124.6288 
 493   0.0000       4.587763       124.8394 
 494   0.0000       4.591885       124.9515 
 495   0.0000       4.605267       125.3157 
 496   0.0000       4.618902       125.6867 
 497   0.0000       4.627344       125.9164 
 498   0.0000       4.629880       125.9855 
 499   0.0000       4.638520       126.2205 
 500   0.0000       4.653033       126.6155 
 501   0.0000       4.666741       126.9885 
 502   0.0000       4.672731       127.1515 
 503   0.0000       4.677301       127.2758 
 504   0.0000       4.685567       127.5008 
 505   0.0000       4.687191       127.5450 
 506   0.0000       4.693288       127.7108 
 507   0.0000       4.696842       127.8076 
 508   0.0000       4.713122       128.2506 
 509   0.0000       4.723302       128.5276 
 510   0.0000       4.753540       129.3504 
 511   0.0000       4.757047       129.4458 
 512   0.0000       4.779116       130.0464 
 513   0.0000       4.815659       131.0407 
 514   0.0000       4.833700       131.5317 
 515   0.0000       4.873942       132.6267 
 516   0.0000       4.878061       132.7388 
 517   0.0000       4.886413       132.9661 
 518   0.0000       4.919550       133.8677 
 519   0.0000       4.937508       134.3564 
 520   0.0000       4.962659       135.0408 
 521   0.0000       4.970401       135.2515 
 522   0.0000       5.005015       136.1934 
 523   0.0000       5.018923       136.5718 
 524   0.0000       5.030708       136.8925 
 525   0.0000       5.047147       137.3398 
 526   0.0000       5.072296       138.0242 
 527   0.0000       5.085156       138.3741 
 528   0.0000       5.096539       138.6839 
 529   0.0000       5.107280       138.9762 
 530   0.0000       5.110259       139.0572 
 531   0.0000       5.121225       139.3556 
 532   0.0000       5.131040       139.6227 
 533   0.0000       5.141983       139.9205 
 534   0.0000       5.159984       140.4103 
 535   0.0000       5.170236       140.6893 
 536   0.0000       5.183172       141.0413 
 537   0.0000       5.192073       141.2835 
 538   0.0000       5.203127       141.5843 
 539   0.0000       5.215364       141.9173 
 540   0.0000       5.236457       142.4912 
 541   0.0000       5.260085       143.1342 
 542   0.0000       5.283308       143.7661 
 543   0.0000       5.291135       143.9791 
 544   0.0000       5.299960       144.2192 
 545   0.0000       5.324497       144.8869 
 546   0.0000       5.342617       145.3800 
 547   0.0000       5.350685       145.5995 
 548   0.0000       5.356500       145.7578 
 549   0.0000       5.359916       145.8507 
 550   0.0000       5.369603       146.1143 
 551   0.0000       5.374238       146.2404 
 552   0.0000       5.405198       147.0829 
 553   0.0000       5.412571       147.2835 
 554   0.0000       5.424226       147.6007 
 555   0.0000       5.457441       148.5045 
 556   0.0000       5.465845       148.7332 
 557   0.0000       5.481362       149.1554 
 558   0.0000       5.488090       149.3385 
 559   0.0000       5.507855       149.8763 
 560   0.0000       5.521652       150.2518 
 561   0.0000       5.523485       150.3017 
 562   0.0000       5.537885       150.6935 
 563   0.0000       5.562862       151.3732 
 564   0.0000       5.597683       152.3207 
 565   0.0000       5.602331       152.4472 
 566   0.0000       5.621910       152.9799 
 567   0.0000       5.624854       153.0601 
 568   0.0000       5.637116       153.3937 
 569   0.0000       5.654676       153.8716 
 570   0.0000       5.670713       154.3079 
 571   0.0000       5.683370       154.6524 
 572   0.0000       5.703518       155.2006 
 573   0.0000       5.720195       155.6544 
 574   0.0000       5.730407       155.9323 
 575   0.0000       5.741962       156.2467 
 576   0.0000       5.752243       156.5265 
 577   0.0000       5.770531       157.0241 
 578   0.0000       5.776785       157.1943 
 579   0.0000       5.801183       157.8582 
 580   0.0000       5.841652       158.9594 
 581   0.0000       5.860473       159.4716 
 582   0.0000       5.908848       160.7879 
 583   0.0000       5.932597       161.4342 
 584   0.0000       5.956166       162.0755 
 585   0.0000       5.974229       162.5670 
 586   0.0000       5.992971       163.0770 
 587   0.0000       6.010196       163.5457 
 588   0.0000       6.047045       164.5485 
 589   0.0000       6.063331       164.9916 
 590   0.0000       6.080739       165.4653 
 591   0.0000       6.091647       165.7622 
 592   0.0000       6.137166       167.0008 
 593   0.0000       6.150207       167.3556 
 594   0.0000       6.183390       168.2586 
 595   0.0000       6.191381       168.4760 
 596   0.0000       6.212415       169.0484 
 597   0.0000       6.223171       169.3411 
 598   0.0000       6.247903       170.0141 
 599   0.0000       6.271858       170.6659 
 600   0.0000       6.314431       171.8244 
 601   0.0000       6.355363       172.9382 
 602   0.0000       6.411248       174.4589 
 603   0.0000       6.417311       174.6239 
 604   0.0000       6.445228       175.3836 
 605   0.0000       6.466579       175.9646 
 606   0.0000       6.473081       176.1415 
 607   0.0000       6.489135       176.5783 
 608   0.0000       6.537041       177.8819 
 609   0.0000       6.611094       179.8970 
 610   0.0000       6.650656       180.9736 
 611   0.0000       6.689907       182.0416 
 612   0.0000       6.747081       183.5974 
 613   0.0000       6.776971       184.4108 
 614   0.0000       6.843251       186.2143 
 615   0.0000       6.944426       188.9674 
 616   0.0000       6.986725       190.1184 
 617   0.0000       7.010404       190.7628 
 618   0.0000       7.051906       191.8921 
 619   0.0000       7.092804       193.0050 
 620   0.0000       7.178428       195.3350 
 621   0.0000       7.198224       195.8736 
 622   0.0000       7.325319       199.3321 
 623   0.0000       7.354216       200.1184 
 624   0.0000       7.389934       201.0903 
 625   0.0000       7.416308       201.8080 
 626   0.0000       7.437754       202.3916 
 627   0.0000       7.617439       207.2811 
 628   0.0000       7.622398       207.4160 
 629   0.0000       7.631151       207.6542 
 630   0.0000       7.720083       210.0741 
 631   0.0000       9.437185       256.7989 
 632   0.0000       9.890298       269.1287 
 633   0.0000      10.379105       282.4298 
 634   0.0000      12.446938       338.6984 
 635   0.0000      12.879594       350.4716 
 636   0.0000      13.058754       355.3468 
 637   0.0000      13.190966       358.9444 
 638   0.0000      13.378466       364.0466 
 639   0.0000      13.611591       370.3902 
 640   0.0000      13.800032       375.5180 
 641   0.0000      13.961039       379.8992 
 642   0.0000      14.050384       382.3304 
 643   0.0000      14.281314       388.6143 
 644   0.0000      14.867389       404.5622 
 645   0.0000      16.071442       437.3262 

                    ********************************
                    * MULLIKEN POPULATION ANALYSIS *
                    ********************************

-----------------------
MULLIKEN ATOMIC CHARGES
-----------------------
   0 C :   -0.164535
   1 C :   -0.141335
   2 C :   -0.186457
   3 C :   -0.002712
   4 C :   -0.213895
   5 C :   -0.145017
   6 C :   -0.204244
   7 C :   -0.018429
   8 C :    0.347010
   9 N :   -0.336195
  10 N :   -0.247192
  11 C :    0.335042
  12 O :   -0.499837
  13 C :   -0.273849
  14 O :   -0.454021
  15 H :    0.120652
  16 H :    0.095467
  17 H :    0.118363
  18 H :    0.153269
  19 H :    0.185053
  20 H :    0.206839
  21 H :    0.239203
  22 H :    0.124543
  23 H :    0.144191
  24 H :    0.153452
  25 H :    0.199805
  26 H :    0.156231
  27 H :    0.154125
  28 H :    0.154472
Sum of atomic charges:   -0.0000000

--------------------------------
MULLIKEN REDUCED ORBITAL CHARGES
--------------------------------
  0 C s       :     3.254251  s :     3.254251
      pz      :     0.941205  p :     2.810353
      px      :     0.977265
      py      :     0.891884
      dz2     :     0.015563  d :     0.090247
      dxz     :     0.017062
      dyz     :     0.017835
      dx2y2   :     0.020946
      dxy     :     0.018841
      f0      :     0.001177  f :     0.009683
      f+1     :     0.000793
      f-1     :     0.001457
      f+2     :     0.001586
      f-2     :     0.001824
      f+3     :     0.001209
      f-3     :     0.001638
  1 C s       :     3.246092  s :     3.246092
      pz      :     0.964204  p :     2.795272
      px      :     0.913859
      py      :     0.917209
      dz2     :     0.012963  d :     0.090319
      dxz     :     0.013334
      dyz     :     0.023611
      dx2y2   :     0.020726
      dxy     :     0.019686
      f0      :     0.000749  f :     0.009651
      f+1     :     0.001407
      f-1     :     0.001029
      f+2     :     0.001312
      f-2     :     0.001885
      f+3     :     0.001557
      f-3     :     0.001712
  2 C s       :     3.265682  s :     3.265682
      pz      :     0.900947  p :     2.819375
      px      :     0.903700
      py      :     1.014728
      dz2     :     0.024519  d :     0.091662
      dxz     :     0.013466
      dyz     :     0.013039
      dx2y2   :     0.019959
      dxy     :     0.020679
      f0      :     0.000971  f :     0.009738
      f+1     :     0.001647
      f-1     :     0.001200
      f+2     :     0.001756
      f-2     :     0.001793
      f+3     :     0.001445
      f-3     :     0.000926
  3 C s       :     3.126273  s :     3.126273
      pz      :     0.916600  p :     2.759622
      px      :     0.913622
      py      :     0.929400
      dz2     :     0.022074  d :     0.105877
      dxz     :     0.014406
      dyz     :     0.021902
      dx2y2   :     0.027340
      dxy     :     0.020155
      f0      :     0.001278  f :     0.010940
      f+1     :     0.001301
      f-1     :     0.001369
      f+2     :     0.001840
      f-2     :     0.001962
      f+3     :     0.001484
      f-3     :     0.001706
  4 C s       :     3.276303  s :     3.276303
      pz      :     0.991163  p :     2.835064
      px      :     0.922504
      py      :     0.921397
      dz2     :     0.012263  d :     0.092713
      dxz     :     0.013803
      dyz     :     0.025758
      dx2y2   :     0.021927
      dxy     :     0.018962
      f0      :     0.000807  f :     0.009815
      f+1     :     0.001395
      f-1     :     0.001075
      f+2     :     0.001247
      f-2     :     0.001978
      f+3     :     0.001502
      f-3     :     0.001811
  5 C s       :     3.242094  s :     3.242094
      pz      :     0.918448  p :     2.803079
      px      :     0.906900
      py      :     0.977730
      dz2     :     0.025183  d :     0.090174
      dxz     :     0.012742
      dyz     :     0.012551
      dx2y2   :     0.019469
      dxy     :     0.020230
      f0      :     0.001030  f :     0.009670
      f+1     :     0.001562
      f-1     :     0.001226
      f+2     :     0.001646
      f-2     :     0.001823
      f+3     :     0.001460
      f-3     :     0.000925
  6 C s       :     3.223915  s :     3.223915
      pz      :     0.969455  p :     2.864899
      px      :     0.836695
      py      :     1.058749
      dz2     :     0.019448  d :     0.108680
      dxz     :     0.022707
      dyz     :     0.022627
      dx2y2   :     0.031532
      dxy     :     0.012366
      f0      :     0.000520  f :     0.006751
      f+1     :     0.000995
      f-1     :     0.000700
      f+2     :     0.001821
      f-2     :     0.000843
      f+3     :     0.000931
      f-3     :     0.000940
  7 C s       :     3.160638  s :     3.160638
      pz      :     0.929197  p :     2.696171
      px      :     1.004036
      py      :     0.762938
      dz2     :     0.022703  d :     0.151177
      dxz     :     0.031641
      dyz     :     0.036418
      dx2y2   :     0.039405
      dxy     :     0.021011
      f0      :     0.000850  f :     0.010444
      f+1     :     0.000737
      f-1     :     0.002042
      f+2     :     0.002737
      f-2     :     0.001270
      f+3     :     0.001327
      f-3     :     0.001482
  8 C s       :     3.100914  s :     3.100914
      pz      :     0.719741  p :     2.266535
      px      :     0.733808
      py      :     0.812986
      dz2     :     0.022253  d :     0.263170
      dxz     :     0.050535
      dyz     :     0.049860
      dx2y2   :     0.095214
      dxy     :     0.045308
      f0      :     0.002219  f :     0.022372
      f+1     :     0.002887
      f-1     :     0.001444
      f+2     :     0.002349
      f-2     :     0.003920
      f+3     :     0.003825
      f-3     :     0.005727
  9 N s       :     3.424920  s :     3.424920
      pz      :     1.471295  p :     3.875751
      px      :     1.160790
      py      :     1.243666
      dz2     :     0.003591  d :     0.031903
      dxz     :     0.007263
      dyz     :     0.005210
      dx2y2   :     0.007590
      dxy     :     0.008249
      f0      :     0.000452  f :     0.003621
      f+1     :     0.000621
      f-1     :     0.000185
      f+2     :     0.000784
      f-2     :     0.000546
      f+3     :     0.000583
      f-3     :     0.000450
 10 N s       :     3.380092  s :     3.380092
      pz      :     1.521676  p :     3.809072
      px      :     1.068867
      py      :     1.218529
      dz2     :     0.004848  d :     0.053437
      dxz     :     0.009221
      dyz     :     0.008916
      dx2y2   :     0.013813
      dxy     :     0.016639
      f0      :     0.000703  f :     0.004590
      f+1     :     0.000421
      f-1     :     0.000573
      f+2     :     0.000658
      f-2     :     0.000658
      f+3     :     0.000703
      f-3     :     0.000874
 11 C s       :     3.140961  s :     3.140961
      pz      :     0.669336  p :     2.224815
      px      :     0.743404
      py      :     0.812075
      dz2     :     0.021486  d :     0.276749
      dxz     :     0.077436
      dyz     :     0.026577
      dx2y2   :     0.080964
      dxy     :     0.070287
      f0      :     0.002106  f :     0.022434
      f+1     :     0.002564
      f-1     :     0.001427
      f+2     :     0.002663
      f-2     :     0.003034
      f+3     :     0.006367
      f-3     :     0.004272
 12 O s       :     3.770005  s :     3.770005
      pz      :     1.545539  p :     4.694301
      px      :     1.448453
      py      :     1.700309
      dz2     :     0.004148  d :     0.033270
      dxz     :     0.009717
      dyz     :     0.001498
      dx2y2   :     0.008614
      dxy     :     0.009293
      f0      :     0.000201  f :     0.002261
      f+1     :     0.000346
      f-1     :     0.000060
      f+2     :     0.000290
      f-2     :     0.000270
      f+3     :     0.000467
      f-3     :     0.000627
 13 C s       :     3.262896  s :     3.262896
      pz      :     1.014411  p :     2.949382
      px      :     1.020014
      py      :     0.914957
      dz2     :     0.008679  d :     0.057082
      dxz     :     0.010088
      dyz     :     0.014599
      dx2y2   :     0.018590
      dxy     :     0.005127
      f0      :     0.000359  f :     0.004489
      f+1     :     0.000757
      f-1     :     0.000258
      f+2     :     0.001288
      f-2     :     0.000489
      f+3     :     0.000525
      f-3     :     0.000814
 14 O s       :     3.765188  s :     3.765188
      pz      :     1.602508  p :     4.652720
      px      :     1.575960
      py      :     1.474251
      dz2     :     0.003905  d :     0.033784
      dxz     :     0.004104
      dyz     :     0.005773
      dx2y2   :     0.008748
      dxy     :     0.011254
      f0      :     0.000225  f :     0.002328
      f+1     :     0.000179
      f-1     :     0.000253
      f+2     :     0.000035
      f-2     :     0.000388
      f+3     :     0.000676
      f-3     :     0.000572
 15 H s       :     0.847829  s :     0.847829
      pz      :     0.008269  p :     0.029199
      px      :     0.008588
      py      :     0.012342
      dz2     :     0.000540  d :     0.002319
      dxz     :     0.000308
      dyz     :     0.000495
      dx2y2   :     0.000578
      dxy     :     0.000398
 16 H s       :     0.872281  s :     0.872281
      pz      :     0.008973  p :     0.029970
      px      :     0.010978
      py      :     0.010019
      dz2     :     0.000218  d :     0.002281
      dxz     :     0.000640
      dyz     :     0.000149
      dx2y2   :     0.000550
      dxy     :     0.000724
 17 H s       :     0.850467  s :     0.850467
      pz      :     0.011600  p :     0.028862
      px      :     0.008801
      py      :     0.008460
      dz2     :     0.000669  d :     0.002308
      dxz     :     0.000593
      dyz     :     0.000641
      dx2y2   :     0.000206
      dxy     :     0.000198
 18 H s       :     0.812513  s :     0.812513
      pz      :     0.010574  p :     0.031331
      px      :     0.013368
      py      :     0.007389
      dz2     :     0.000721  d :     0.002887
      dxz     :     0.000638
      dyz     :     0.000591
      dx2y2   :     0.000543
      dxy     :     0.000394
 19 H s       :     0.755357  s :     0.755357
      pz      :     0.022637  p :     0.054864
      px      :     0.013501
      py      :     0.018726
      dz2     :     0.001235  d :     0.004727
      dxz     :     0.000421
      dyz     :     0.001213
      dx2y2   :     0.000883
      dxy     :     0.000975
 20 H s       :     0.722847  s :     0.722847
      pz      :     0.023054  p :     0.065034
      px      :     0.022982
      py      :     0.018998
      dz2     :     0.000697  d :     0.005280
      dxz     :     0.001513
      dyz     :     0.000446
      dx2y2   :     0.001150
      dxy     :     0.001475
 21 H s       :     0.691337  s :     0.691337
      pz      :     0.018407  p :     0.064586
      px      :     0.018204
      py      :     0.027976
      dz2     :     0.000557  d :     0.004874
      dxz     :     0.000770
      dyz     :     0.000891
      dx2y2   :     0.001423
      dxy     :     0.001233
 22 H s       :     0.842854  s :     0.842854
      pz      :     0.013454  p :     0.030040
      px      :     0.008679
      py      :     0.007907
      dz2     :     0.000756  d :     0.002564
      dxz     :     0.000808
      dyz     :     0.000501
      dx2y2   :     0.000277
      dxy     :     0.000223
 23 H s       :     0.822242  s :     0.822242
      pz      :     0.008655  p :     0.030967
      px      :     0.009363
      py      :     0.012950
      dz2     :     0.000236  d :     0.002600
      dxz     :     0.000164
      dyz     :     0.000768
      dx2y2   :     0.000527
      dxy     :     0.000905
 24 H s       :     0.819546  s :     0.819546
      pz      :     0.006834  p :     0.024762
      px      :     0.009163
      py      :     0.008765
      dz2     :     0.000475  d :     0.002241
      dxz     :     0.000503
      dyz     :     0.000468
      dx2y2   :     0.000483
      dxy     :     0.000311
 25 H s       :     0.771979  s :     0.771979
      pz      :     0.008144  p :     0.025960
      px      :     0.010167
      py      :     0.007649
      dz2     :     0.000187  d :     0.002256
      dxz     :     0.000164
      dyz     :     0.000680
      dx2y2   :     0.000589
      dxy     :     0.000637
 26 H s       :     0.816011  s :     0.816011
      pz      :     0.009155  p :     0.025532
      px      :     0.008309
      py      :     0.008068
      dz2     :     0.000500  d :     0.002226
      dxz     :     0.000471
      dyz     :     0.000480
      dx2y2   :     0.000483
      dxy     :     0.000291
 27 H s       :     0.818166  s :     0.818166
      pz      :     0.008557  p :     0.025510
      px      :     0.008356
      py      :     0.008597
      dz2     :     0.000224  d :     0.002199
      dxz     :     0.000147
      dyz     :     0.000626
      dx2y2   :     0.000605
      dxy     :     0.000596
 28 H s       :     0.817787  s :     0.817787
      pz      :     0.009043  p :     0.025547
      px      :     0.008351
      py      :     0.008153
      dz2     :     0.000434  d :     0.002194
      dxz     :     0.000511
      dyz     :     0.000254
      dx2y2   :     0.000407
      dxy     :     0.000587


                     *******************************
                     * LOEWDIN POPULATION ANALYSIS *
                     *******************************

----------------------
LOEWDIN ATOMIC CHARGES
----------------------
   0 C :    0.024099
   1 C :    0.030246
   2 C :    0.046793
   3 C :   -0.048180
   4 C :    0.018367
   5 C :    0.021047
   6 C :    0.077014
   7 C :   -0.046626
   8 C :   -0.368074
   9 N :    0.432268
  10 N :    0.393677
  11 C :   -0.361495
  12 O :    0.049522
  13 C :    0.121638
  14 O :    0.058448
  15 H :   -0.009334
  16 H :   -0.025338
  17 H :   -0.010169
  18 H :   -0.008689
  19 H :   -0.074856
  20 H :   -0.079398
  21 H :   -0.097422
  22 H :   -0.014789
  23 H :   -0.005603
  24 H :   -0.027639
  25 H :   -0.021287
  26 H :   -0.022972
  27 H :   -0.025498
  28 H :   -0.025750

-------------------------------
LOEWDIN REDUCED ORBITAL CHARGES
-------------------------------
  0 C s       :     2.701726  s :     2.701726
      pz      :     0.921822  p :     2.821601
      px      :     0.923839
      py      :     0.975940
      dz2     :     0.062708  d :     0.411035
      dxz     :     0.068539
      dyz     :     0.095378
      dx2y2   :     0.095300
      dxy     :     0.089111
      f0      :     0.005995  f :     0.041540
      f+1     :     0.003627
      f-1     :     0.005463
      f+2     :     0.007340
      f-2     :     0.005446
      f+3     :     0.005407
      f-3     :     0.008261
  1 C s       :     2.701753  s :     2.701753
      pz      :     0.909555  p :     2.814280
      px      :     0.940308
      py      :     0.964418
      dz2     :     0.052496  d :     0.412346
      dxz     :     0.063217
      dyz     :     0.095761
      dx2y2   :     0.096362
      dxy     :     0.104510
      f0      :     0.003940  f :     0.041375
      f+1     :     0.005918
      f-1     :     0.004353
      f+2     :     0.006278
      f-2     :     0.005526
      f+3     :     0.007047
      f-3     :     0.008314
  2 C s       :     2.699481  s :     2.699481
      pz      :     0.917517  p :     2.805691
      px      :     0.934147
      py      :     0.954027
      dz2     :     0.087905  d :     0.406786
      dxz     :     0.079731
      dyz     :     0.066332
      dx2y2   :     0.083588
      dxy     :     0.089230
      f0      :     0.004155  f :     0.041250
      f+1     :     0.006508
      f-1     :     0.005316
      f+2     :     0.007948
      f-2     :     0.006079
      f+3     :     0.006105
      f-3     :     0.005138
  3 C s       :     2.693313  s :     2.693313
      pz      :     0.908938  p :     2.784683
      px      :     0.899475
      py      :     0.976270
      dz2     :     0.090571  d :     0.517267
      dxz     :     0.087528
      dyz     :     0.107828
      dx2y2   :     0.120652
      dxy     :     0.110687
      f0      :     0.006435  f :     0.052917
      f+1     :     0.007174
      f-1     :     0.005546
      f+2     :     0.009291
      f-2     :     0.007134
      f+3     :     0.007730
      f-3     :     0.009606
  4 C s       :     2.699124  s :     2.699124
      pz      :     0.919706  p :     2.825838
      px      :     0.944540
      py      :     0.961592
      dz2     :     0.053692  d :     0.415276
      dxz     :     0.065171
      dyz     :     0.096468
      dx2y2   :     0.096847
      dxy     :     0.103098
      f0      :     0.003935  f :     0.041395
      f+1     :     0.006116
      f-1     :     0.004505
      f+2     :     0.006051
      f-2     :     0.005394
      f+3     :     0.007139
      f-3     :     0.008255
  5 C s       :     2.701722  s :     2.701722
      pz      :     0.932133  p :     2.821763
      px      :     0.940327
      py      :     0.949303
      dz2     :     0.093611  d :     0.413945
      dxz     :     0.079154
      dyz     :     0.066627
      dx2y2   :     0.086255
      dxy     :     0.088298
      f0      :     0.004231  f :     0.041523
      f+1     :     0.006437
      f-1     :     0.005402
      f+2     :     0.008101
      f-2     :     0.005981
      f+3     :     0.006229
      f-3     :     0.005142
[...]
    TCutDO             =        5.000e-03

Pair selection                          .... not used
Type of local MP2 treatment                 .... full local PMP2
Strategy for PNO selection                  .... occupation number selection
Pair density normalization                  .... MP2 norm
Spin component scaling                      .... not used

PASS-1: Formation of initial guess LMP2 amplitudes
Initial amplitudes guess done. Entering LMP2 iteration loop:
   Max. no of iterations          ...  50
   Energy convergence tolerance   ...    1.0e-07
   Residual convergence tolerance ...    5.0e-07
   Fock matrix cutoff             ...    1.0e-05 Eh
   DIIS convergence acceleration parameters:
        Max # vectors in DIIS     ... 7
        Start iteration of DIIS   ... 0
        Levelshift                ... 2.000e-01
        Damping factor 1          ... 5.000e-01
        Damping factor 2          ... 1.000e+00
   L-MP2 PNO cut-off              ...   1.0e-09
   L-MP2 PNO cut-off (core)       ...   1.0e-11
                           *** Turning on DIIS ***
LMP2-Iter=   0:  ELMP2= -2.609603012650  DE=   6.3e-02 RMAX=   1.7e-02
LMP2-Iter=   1:  ELMP2= -2.643449146283  DE=   3.4e-02 RMAX=   7.9e-03
LMP2-Iter=   2:  ELMP2= -2.650735253758  DE=   7.3e-03 RMAX=   3.2e-03
LMP2-Iter=   3:  ELMP2= -2.651851118402  DE=   1.1e-03 RMAX=   1.1e-03
LMP2-Iter=   4:  ELMP2= -2.651902365456  DE=   5.1e-05 RMAX=   3.2e-04
LMP2-Iter=   5:  ELMP2= -2.651889952198  DE=   1.2e-05 RMAX=   7.2e-05
LMP2-Iter=   6:  ELMP2= -2.651888435040  DE=   1.5e-06 RMAX=   1.1e-05
LMP2-Iter=   7:  ELMP2= -2.651889164914  DE=   7.3e-07 RMAX=   2.8e-06
LMP2-Iter=   8:  ELMP2= -2.651889486350  DE=   3.2e-07 RMAX=   9.1e-07
LMP2-Iter=   9:  ELMP2= -2.651889542589  DE=   5.6e-08 RMAX=   2.2e-07
LMP2-Iter=  10:  ELMP2= -2.651889549843  DE=   7.3e-09 RMAX=   6.9e-08 => CONVERGED
PASS-2: Formation of Pair natural orbitals
   .... Finished loop over pairs

 PNO Occupation Number Statistics: 
  | Av. % of trace(Dij) retained        ...  98.111118059523
  | sigma^2 in % of trace(Dij) retained ...   1.13e+01
  | Av. % of trace(Di) retained         ...  99.999671291922
  | sigma^2 in % of trace(Di) retained  ...   1.09e-08
 Distributions of % trace(Dij) recovered:
  |       >= 99.9  ...   151 ( 18.8 % of all pairs)
  |   [60.0, 70.0) ...     1 (  0.1 % of all pairs)
  |   [70.0, 80.0) ...     6 (  0.7 % of all pairs)
  |   [80.0, 90.0) ...    13 (  1.6 % of all pairs)
  |   [90.0, 99.0) ...   361 ( 45.0 % of all pairs)
  |   [99.0, 99.9) ...   271 ( 33.7 % of all pairs)
 Distributions of % trace(Di) recovered :
  |       >= 99.9  ...    40 (100.0 % of all I-pairs )

Making pair pair interaction lists          ... done

                       ===========================
                        621 OF  803 PAIRS ARE KEPT
                       ===========================

Total time spent in the initial guess                 ...   163.030 sec
L-MP2 correlation energy (all non-screened pairs)     ...      -2.651889549843 Eh
L-MP2 PNO error correction                            ...      -0.000091980623 Eh
                                                          --------------------
Initial total L-MP2 energy (non-screened pairs)       ...      -2.651981530466 Eh

Initial PNO correlation energy                        ...      -2.647900053111 Eh
sum of pair energies estimated for screened out pairs ...      -0.000013044492 Eh
sum of MP2 pair energies for pairs that were not kept ...      -0.001057768810 Eh
sum of PNO error estimates for the kept pairs         ...      -0.003218064073 Eh
                                                          --------------------
sum of all corrections                                         -0.004288877375
Initial total correlation energy                               -2.652188930485
Thresholds for map construction and integral transformation for fine MP2 and CCSD(T) calculation:
   TCutMKN   ...     1.0e-03
   TCutDO    ...     5.0e-03
   TCutPairs ...     1.0e-05
   TCutCMO   ...     1.0e-03
   TCutCPAO  ...     1.0e-03

Time for aux screen maps:            0.019
Time for maps after fine MP2:            0.071
-----------------------------
LOCAL RI TRANSFORMATION (IJV)
-----------------------------

Orbital window:      15 to 54
Basis functions:    646 (234 shells)
Aux. functions:    1635 (485 shells)

Processing maps (0.0 sec)
Average map sizes:
   Aux shells -> MOs(i)           39.6
   Aux shells -> MOs(j)           40.0
   MOs        -> AO shells       213.2

Calculating integrals (2.9 sec, 19.772 MB)
Sorting integrals (0.1 sec, 19.754 MB)
Total time for the integral transformation: 2.9 sec
--------------------------------
LOCAL RI TRANSFORMATION (VABPAO)
--------------------------------

Number of PAOs:     646
Basis functions:    646 (234 shells)
Aux. functions:    1635 (485 shells)

Processing maps (0.0 sec)
Average map sizes:
   Aux shells -> PAOs            646.0
   PAOs       -> AO shells       230.6

Calculating integrals (15.5 sec, 9726.753 MB)
Finished


-------------------------------------
Pair Pair Term precalculation with     
RI-(ij|mn) and (im|jn) transformation  
ON THE FLY                             
-------------------------------------

   IBatch   1 (of   6)              ... done (   64.151 sec)
   IBatch   2 (of   6)              ... done (   85.033 sec)
   IBatch   3 (of   6)              ... done (  112.367 sec)
   IBatch   4 (of   6)              ... done (   86.444 sec)
   IBatch   5 (of   6)              ... done (  130.577 sec)
   IBatch   6 (of   6)              ... done (   84.869 sec)
Total EXT                           ...         563.469 sec

---------------------
RI-PNO TRANSFORMATION
---------------------

Total Number of PNOs                   ... 23095
Average number of PNOs per pair        ...    37
Maximal number of PNOs per pair        ...   110
   #pairs with  1 -  5 PNOs   :    0
   #pairs with  6 - 10 PNOs   :   72
   #pairs with 11 - 15 PNOs   :   97
   #pairs with 16 - 20 PNOs   :   43
   #pairs with 21 - 25 PNOs   :   34
   #pairs with 26 - 30 PNOs   :   35
   #pairs with 31 - 35 PNOs   :   50
   #pairs with 36 - 40 PNOs   :   26
   #pairs with 41 - 45 PNOs   :   38
   #pairs with 46 - 50 PNOs   :   35
   #pairs with 51 - 55 PNOs   :   39
   #pairs with 56 - 60 PNOs   :   26
   #pairs with 61 - 65 PNOs   :   61
   #pairs with 66 - 70 PNOs   :   19
   #pairs with 71 - 75 PNOs   :   11
   #pairs with 76 - 80 PNOs   :   12
   #pairs with 81 - 85 PNOs   :    2
   #pairs with 86 - 90 PNOs   :    5
   #pairs with 91 - 95 PNOs   :    1
   #pairs with > 96 PNOs      :   15

Generation of (ij|ab)[P] integrals            ... on
Generation of (ia|bc)[P],(ja|bc)[P] integrals ... on
Storage of 3 and 4 external integrals         ... on
Generation of ALL (ka|bc)[P] integrals        ... on
Keep RI integrals in memory                   ... off

Ibatch:  1 (of  1)
Starting 2-4 index PNO integral generation ... done

Timings:
Total PNO integral transformation time     ...        380.246 sec
Size of the 3-external file                ...       607 MB
Size of the 4-external file                ...      5631 MB
Size of the IKJL file                      ...         0 MB
Size of the all 3-external file            ...     12152 MB
Size of the 1-external file                ...        21 MB

Making pair/pair overlap matrices          ... done (   49.842 sec)
Size of the pair overlap file              ... 2766 MB
Redoing the guess amplitudes               ... done (    0.250 sec)

-------------------------
FINAL STARTUP INFORMATION
-------------------------

E(0)                                       ...   -683.610837203
E(L-MP2)                                   ...     -2.651981530
E(L-MP2) including corrections             ...     -2.652188930
Initial E(tot)                             ...   -686.263026133
<T|T>                                      ...      0.713895439
Number of pairs included                   ... 621
Total number of pairs                      ... 820

------------------------------------------------
                  RHF COUPLED CLUSTER ITERATIONS
------------------------------------------------

Number of PNO amplitudes to be optimized   ...      1220133
Number of non-PNO amplitudes               ...    216903501
Untruncated number of regular amplitudes   ...    286410420

Iter       E(tot)           E(Corr)          Delta-E          Residual     Time
  0   -686.156661089     -2.541535009      0.110446521      0.015962384   74.73
                           *** Turning on DIIS ***
  1   -686.229322996     -2.614196916     -0.072661907      0.010729955   72.17
  2   -686.292359308     -2.677233228     -0.063036312      0.005440342   71.64
  3   -686.306372154     -2.691246074     -0.014012845      0.003234181   72.26
  4   -686.310705724     -2.695579644     -0.004333571      0.001598017   72.68
  5   -686.312200274     -2.697074194     -0.001494550      0.000709616   74.06
  6   -686.312652684     -2.697526604     -0.000452410      0.000283511   75.03
  7   -686.312736633     -2.697610553     -0.000083949      0.000107282   77.85
  8   -686.312740958     -2.697614878     -0.000004325      0.000051195   77.74
  9   -686.312736694     -2.697610614      0.000004264      0.000031335   72.05
 10   -686.312735955     -2.697609875      0.000000739      0.000020493  103.67
 11   -686.312735631     -2.697609551      0.000000324      0.000011274   92.82
 12   -686.312735315     -2.697609235      0.000000316      0.000004819   99.47
               --- The Coupled-Cluster iterations have converged ---

----------------------
COUPLED CLUSTER ENERGY
----------------------

E(0)                                       ...   -683.610837203
E(CORR)(strong-pairs)                      ...     -2.697609235
E(CORR)(weak-pairs)                        ...     -0.004288877
E(CORR)(corrected)                         ...     -2.701898112
E(TOT)                                     ...   -686.312735315
Singles Norm <S|S>**1/2                    ...      0.117006972  
T1 diagnostic                              ...      0.013081777  

------------------
LARGEST AMPLITUDES
------------------
  38-> 55  38-> 55       0.043710
  40-> 55  40-> 55       0.043436
  36-> 55  36-> 55       0.041957
  35-> 55  35-> 55       0.040464
  40-> 55  38-> 55       0.036160
  22-> 55  22-> 55       0.035439
  25-> 55  25-> 55       0.035415
  19-> 55  19-> 55       0.034729
  24-> 55  24-> 55       0.034589
  41-> 62  41-> 62       0.033902
  20-> 55  20-> 55       0.033647
  43-> 62  43-> 62       0.033562
  23-> 55  23-> 55       0.033554
  36-> 55  35-> 55       0.032937
  30-> 55  30-> 55       0.032323
  35-> 55  -1-> -1       0.031749


-------------------------------------------
DLPNO BASED TRIPLES CORRECTION
-------------------------------------------

Singles multiplier          ...  1.000000
TCutTNO                     ... 1.000e-09
TCutMP2Pairs                ... 1.000e-06
TCutDOStrong                ... 1.000e-02
TCutMKNStrong               ... 1.000e-02
TCutDOWeak                  ... 2.000e-02
TCutMKNWeak                 ... 1.000e-01

Fragment selection                          .... not used
Number of Triples that are to be computed   ...      8608

 . . . . . . . . .
10% done  
20% done               (    983.124 sec)
 . . . . . . . . .
30% done  
40% done  
50% done               (   1179.186 sec)
 . . . . . . . . .
60% done  
70% done  
80% done  
90% done               (   1271.151 sec)
Triples timings:
Total time for T0               ...  3649.480 sec
Total time for Iterative (T)    ...     0.000 sec
Total time of overall (T)       ...  4076.752 sec

Triples List generation         ...     0.000 sec
TNO generation                  ...   215.694 sec
Pair density generation         ...     0.130 sec
Look up tables                  ...     0.018 sec
Generating 3-index integrals    ...  2811.311 sec
  Make 4-ind.int. from 3-ind.int...   129.838 sec
  Projecting amplitudes (D + S) ...   354.745 sec
  Downprojecting integrals      ...     0.021 sec
  Energy contr. (sum over a,b,c)...    36.201 sec
Fitting ET(->0)                 ...     0.000 sec

Everything after 3-index        ...   622.149 sec

Timing details:
 TNO integrals                  ...  2918.346 sec
   Reading 3-index integrals    ...    71.925 sec
   Sorting integrals            ...   348.411 sec
       Sorting integrals 1      ...     0.012 sec
       Sorting integrals 2      ...   174.647 sec
       Sorting integrals 3      ...   116.098 sec
       Sorting integrals 4      ...    10.771 sec
       Sorting integrals 5      ...     2.768 sec
       Sorting integrals 6      ...    44.116 sec
   Calculating local VM**-1/2   ...     8.350 sec
   Orthogonal. integrals        ...     8.221 sec
   Multipl. 3-index integrals   ...  2481.440 sec
   All concerning IRIab (w/TNO) ...    65.062 sec

 Calculate W0/W1                ...   100.484 sec
 W 3-ext contribution           ...    49.867 sec
 W 3-int contribution           ...    19.793 sec
 Sorting W                      ...    29.011 sec

 V exchange contribution        ...    11.364 sec

 Timings for Triples without generation
     of 3-index integrals       ...   621.335 sec
       0 weak pairs             ...   510.503 sec
       1 weak pair              ...   110.832 sec
       2 weak pairs             ...     0.000 sec
       3 weak pairs             ...     0.000 sec
  Extra time for extrapolation  ...     0.000 sec

Number of Triples   (0, 1, 2, 3 weak pairs; overall):   5913    2695       0       0  (  8608)
Number of Atoms     (0, 1, 2, 3 weak pairs; overall):   21.7    20.9     0.0     0.0  (    29)
Number of PAOs      (0, 1, 2, 3 weak pairs; overall):  496.9   498.6     0.0     0.0  (   646)
Number of AuxFcns   (0, 1, 2, 3 weak pairs; overall):  541.2   394.2     0.0     0.0  (  1635)
Number of TNOs      (0, 1, 2, 3 weak pairs         ):   96.6    62.3     0.0     0.0
Aver. Number of NTNO, Atoms, PAOs, AuxFcns / Triples:   8608    85.9    21.5   497.4   495.2

Triples Correction (T)                     ...     -0.125913100
Final correlation energy                   ...     -2.827811213
E(CCSD)                                    ...   -686.312735315
E(CCSD(T))                                 ...   -686.438648415


Maximum memory used throughout the entire calculation: 8049.1 MB


------------------------------------------------------------------------------- 
                                     TIMINGS                                   
------------------------------------------------------------------------------- 


Total execution time                   ...     6378.863 sec

Localization of occupied MO's          ...        1.484 sec (  0.0%)
Fock Matrix Formation                  ...       12.612 sec (  0.2%)
Global overlap, Fock, MKN matrices     ...        0.407 sec (  0.0%)
Differential overlap integrals         ...        0.468 sec (  0.0%)
Organizing maps                        ...        0.206 sec (  0.0%)
RI 3-index integral generations        ...       25.885 sec (  0.4%)
RI-PNO integral transformation         ...     1018.923 sec ( 16.0%)
Initial Guess                          ...      192.458 sec (  3.0%)
DIIS Solver                            ...        6.764 sec (  0.1%)
State Vector Update                    ...        0.130 sec (  0.0%)
Sigma-vector construction              ...     1034.908 sec ( 16.2%)
  <0|H|D>                              ...        0.003 sec (  0.0% of sigma)
  <D|H|D>(0-ext)                       ...       29.450 sec (  2.8% of sigma)
  <D|H|D>(2-ext Fock)                  ...        1.944 sec (  0.2% of sigma)
  <D|H|D>(2-ext)                       ...      150.960 sec ( 14.6% of sigma)
  <D|H|D>(4-ext)                       ...       95.529 sec (  9.2% of sigma)
  <D|H|D>(4-ext-corr)                  ...      506.151 sec ( 48.9% of sigma)
  CCSD doubles correction              ...        1.407 sec (  0.1% of sigma)
  <S|H|S>                              ...        4.406 sec (  0.4% of sigma)
  <S|H|D>(1-ext)                       ...        2.584 sec (  0.2% of sigma)
  <D|H|S>(1-ext)                       ...        0.077 sec (  0.0% of sigma)
  <S|H|D>(3-ext)                       ...        2.598 sec (  0.3% of sigma)
  CCSD singles correction              ...        0.002 sec (  0.0% of sigma)
  Fock-dressing                        ...      161.997 sec ( 15.7% of sigma)
  Singles amplitudes                   ...        3.649 sec (  0.4% of sigma)
  (ik|jl)-dressing                     ...       24.006 sec (  2.3% of sigma)
  (ij|ab),(ia|jb)-dressing             ...       19.401 sec (  1.9% of sigma)
  Pair energies                        ...        0.057 sec (  0.0% of sigma)
Total Time for computing (T)           ...     4077.272 sec ( 63.9% of ALL)


-------------------------   --------------------
FINAL SINGLE POINT ENERGY      -686.438648415057
-------------------------   --------------------


                            ***************************************
                            *     ORCA property calculations      *
                            ***************************************

                                    ---------------------
                                    Active property flags
                                    ---------------------
   (+) Dipole Moment


------------------------------------------------------------------------------
                       ORCA ELECTRIC PROPERTIES CALCULATION
------------------------------------------------------------------------------

Dipole Moment Calculation                       ... on
Quadrupole Moment Calculation                   ... off
Polarizability Calculation                      ... off
GBWName                                         ... NAPA_g_plus.gbw
Electron density file                           ... NAPA_g_plus.scfp.tmp
The origin for moment calculation is the CENTER OF MASS  = ( 0.011462, -0.058812  0.006178)

-------------
DIPOLE MOMENT
-------------
                                X             Y             Z
Electronic contribution:      0.89714      -5.09468       0.41665
Nuclear contribution   :     -1.26104       6.46930      -0.67972
                        -----------------------------------------
Total Dipole Moment    :     -0.36390       1.37461      -0.26307
                        -----------------------------------------
Magnitude (a.u.)       :      1.44609
Magnitude (Debye)      :      3.67568



--------------------
Rotational spectrum 
--------------------
 
Rotational constants in cm-1:     0.029370     0.013742     0.010734 
Rotational constants in MHz :   880.483387   411.976705   321.812033 

 Dipole components along the rotational axes: 
x,y,z [a.u.] :    -0.368209     1.371080    -0.275228 
x,y,z [Debye]:    -0.935913     3.485009    -0.699575 

 

Timings for individual modules:

Sum of individual times         ...     6497.727 sec (= 108.295 min)
GTO integral calculation        ...        1.588 sec (=   0.026 min)   0.0 %
SCF iterations                  ...      101.438 sec (=   1.691 min)   1.6 %
MDCI module                     ...     6394.702 sec (= 106.578 min)  98.4 %
                             ****ORCA TERMINATED NORMALLY****
TOTAL RUN TIME: 0 days 1 hours 48 minutes 19 seconds 321 msec
NAPA_g_plus.gbw -> /home1/pantazis/klk/xyz/Nitrogen_compounds/NAPA_g_plus.gbw
NAPA_g_plus.job -> /home1/pantazis/klk/xyz/Nitrogen_compounds/NAPA_g_plus.job
NAPA_g_plus.loc -> /home1/pantazis/klk/xyz/Nitrogen_compounds/NAPA_g_plus.loc
NAPA_g_plus.nodes -> /home1/pantazis/klk/xyz/Nitrogen_compounds/NAPA_g_plus.nodes
NAPA_g_plus.prop -> /home1/pantazis/klk/xyz/Nitrogen_compounds/NAPA_g_plus.prop
NAPA_g_plus_property.txt -> /home1/pantazis/klk/xyz/Nitrogen_compounds/NAPA_g_plus_property.txt
NAPA_g_plus.xyz -> /home1/pantazis/klk/xyz/Nitrogen_compounds/NAPA_g_plus.xyz
cp: cannot stat NAPA_g_plus.asa.inp: No such file or directory
