! Job execution by suborca V 6.07 on ZEUS !
Job started from zeus1, running /scratch/pantazis/piperidine_eq__U9KuvG/orca/orca copied from /opt/orca on zeussn143 in /scratch/pantazis/piperidine_eq__U9KuvG
Job execution start: Fri Jun 28 00:59:59 CEST 2019
Shared library path: /scratch/pantazis/piperidine_eq__U9KuvG/orca:/opt/openmpi_1.10.2/lib:/opt/intel/mkl/lib/intel64:/opt/intel/lib/intel64:
PBS Job ID is: 158278.icqc
izeussn143
izeussn143
izeussn143
izeussn143
izeussn143
izeussn143
izeussn143
izeussn143

                                 *****************
                                 * O   R   C   A *
                                 *****************

           --- An Ab Initio, DFT and Semiempirical electronic structure package ---

                  #######################################################
                  #                        -***-                        #
                  #          Department of theory and spectroscopy      #
                  #               Directorship: Frank Neese             #
                  #        Max Planck Institute fuer Kohlenforschung    #
                  #                Kaiser Wilhelm Platz 1               #
                  #                 D-45470 Muelheim/Ruhr               #
                  #                      Germany                        #
                  #                                                     #
                  #                  All rights reserved                #
                  #                        -***-                        #
                  #######################################################


                         Program Version 4.1.x  -  STABLE  -
                                (SVN: $Rev: 14094$)
                ($Date: 2019-06-14 15:01:15 +0200 (Fri, 14 Jun 2019) $)

                         (BUILD: $Sun Jun 23 06:18:31 CEST 2019$)


 With contributions from (in alphabetic order):
   Daniel Aravena         : Magnetic Properties
   Michael Atanasov       : Ab Initio Ligand Field Theory
   Alexander A. Auer      : GIAO ZORA
   Ute Becker             : Parallelization
   Giovanni Bistoni       : ED, Open-shell LED
   Martin Brehm           : Molecular dynamics
   Dmytro Bykov           : SCF Hessian
   Vijay G. Chilkuri      : MRCI spin determinant printing
   Dipayan Datta          : RHF DLPNO-CCSD density
   Achintya Kumar Dutta   : EOM-CC, STEOM-CC
   Dmitry Ganyushin       : Spin-Orbit,Spin-Spin,Magnetic field MRCI
   Miquel Garcia          : C-PCM Hessian
   Yang Guo               : DLPNO-NEVPT2, CIM, IAO-localization
   Andreas Hansen         : Spin unrestricted coupled pair/coupled cluster methods
   Benjamin Helmich-Paris : CASSCF linear response (MC-RPA)
   Lee Huntington         : MR-EOM, pCC
   Robert Izsak           : Overlap fitted RIJCOSX, COSX-SCS-MP3, EOM
   Christian Kollmar      : KDIIS, OOCD, Brueckner-CCSD(T), CCSD density
   Simone Kossmann        : Meta GGA functionals, TD-DFT gradient, OOMP2, MP2 Hessian
   Martin Krupicka        : AUTO-CI
   Lucas Lang             : DCDCAS
   Dagmar Lenk            : GEPOL surface, SMD
   Dimitrios Liakos       : Extrapolation schemes; parallel MDCI
   Dimitrios Manganas     : ROCIS; embedding schemes
   Dimitrios Pantazis     : SARC Basis sets
   Taras Petrenko         : DFT Hessian,TD-DFT gradient, ASA, ECA, R-Raman, ABS, FL, XAS/XES, NRVS
   Peter Pinski           : DLPNO-MP2, DLPNO-MP2 Gradient
   Christoph Reimann      : Effective Core Potentials
   Marius Retegan         : Local ZFS, SOC
   Christoph Riplinger    : Optimizer, TS searches, QM/MM, DLPNO-CCSD(T), (RO)-DLPNO pert. Triples
   Tobias Risthaus        : Range-separated hybrids, TD-DFT gradient, RPA, STAB
   Michael Roemelt        : Restricted open shell CIS
   Masaaki Saitow         : Open-shell DLPNO
   Barbara Sandhoefer     : DKH picture change effects
   Avijit Sen             : IP-ROCIS
   Kantharuban Sivalingam : CASSCF convergence, NEVPT2, FIC-MRCI
   Bernardo de Souza      : ESD, SOC TD-DFT
   Georgi Stoychev        : AutoAux, RI-MP2 NMR
   Willem Van den Heuvel  : Paramagnetic NMR
   Boris Wezisla          : Elementary symmetry handling
   Frank Wennmohs         : Technical directorship


 We gratefully acknowledge several colleagues who have allowed us to
 interface, adapt or use parts of their codes:
   Stefan Grimme, W. Hujo, H. Kruse,             : VdW corrections, initial TS optimization,
                  C. Bannwarth                     DFT functionals, gCP, sTDA/sTD-DF
   Ed Valeev                                     : LibInt (2-el integral package), F12 methods
   Garnet Chan, S. Sharma, J. Yang, R. Olivares  : DMRG
   Ulf Ekstrom                                   : XCFun DFT Library
   Mihaly Kallay                                 : mrcc  (arbitrary order and MRCC methods)
   Andreas Klamt, Michael Diedenhofen            : otool_cosmo (COSMO solvation model)
   Jiri Pittner, Ondrej Demel                    : Mk-CCSD
   Frank Weinhold                                : gennbo (NPA and NBO analysis)
   Christopher J. Cramer and Donald G. Truhlar   : smd solvation model
   Lars Goerigk                                  : TD-DFT with DH, B97 family of functionals
   V. Asgeirsson, H. Jonsson                     : NEB implementation
   FAccTs GmbH                                   : IRC, NEB, NEB-TS, Multilevel


 Your calculation uses the libint2 library for the computation of 2-el integrals
 For citations please refer to: http://libint.valeyev.net

 This ORCA versions uses:
   CBLAS   interface :  Fast vector & matrix operations
   LAPACKE interface :  Fast linear algebra routines
   SCALAPACK package :  Parallel linear algebra routines




***************************************
The coordinates will be read from file: piperidine_eq.xyz
***************************************


----- Orbital basis set information -----
Your calculation utilizes the basis: cc-pVTZ 
       H, B-Ne : Obtained from the ccRepo (grant-hill.group.shef.ac.uk/ccrepo) Feb. 2017
                 T. H. Dunning, Jr., J. Chem. Phys. 90, 1007 (1989)
            He : Obtained from the ccRepo (grant-hill.group.shef.ac.uk/ccrepo) Feb. 2017
                 D. E. Woon, T. H. Dunning, Jr., J. Chem. Phys. 100, 2975 (1994)
  Li-Be, Na-Mg : Obtained from the ccRepo (grant-hill.group.shef.ac.uk/ccrepo) Feb. 2017
                 B. P. Prascher, D. E. Woon, K. A. Peterson, T. H. Dunning, Jr., A. K. Wilson, Theor. Chem. Acc. 128, 69 (2011)
         Al-Ar : Obtained from the ccRepo (grant-hill.group.shef.ac.uk/ccrepo) Feb. 2017
                 D. E. Woon, T. H. Dunning, Jr., J. Chem. Phys. 98, 1358 (1993)
            Ca : Obtained from the Peterson Research Group Website (tyr0.chem.wsu.edu/~kipeters) Feb. 2017
                 J. Koput, K. A. Peterson, J. Phys. Chem. 106, 9595 (2002)
         Sc-Zn : Obtained from the ccRepo (grant-hill.group.shef.ac.uk/ccrepo) Feb. 2017
                 N. B. Balabanov, K. A. Peterson, J. Chem. Phys. 123, 064107 (2005)
                 N. B. Balabanov, K. A. Peterson, J. Chem. Phys. 125, 074110 (2006)
         Ga-Kr : Obtained from the ccRepo (grant-hill.group.shef.ac.uk/ccrepo) Feb. 2017
                 A. K. Wilson, D. E. Woon, K. A. Peterson, T. H. Dunning, Jr., J. Chem. Phys. 110, 7667 (1999)
             Y : Obtained from the ccRepo (grant-hill.group.shef.ac.uk/ccrepo) Feb. 2017
                 K. A. Peterson, D. Figgen, M. Dolg, H. Stoll, J. Chem. Phys. 126, 124101 (2007)
        Ag, Au : Obtained from the Peterson Research Group Website (tyr0.chem.wsu.edu/~kipeters) Feb. 2017
                 K. A. Peterson, C. Puzzarini, Theor. Chem. Acc. 114, 283 (2005)

----- AuxC basis set information -----
Your calculation utilizes the auxiliary basis: cc-pVTZ/C 
  Obtained from the EMSL Basis Set Exchange (bse.pnl.gov) Feb. 2017
  H-He, B-F, Al-Ar, Ga-Kr : F. Weigend, A. Kohn, C. Hattig, J. Chem. Phys. 116, 3175 (2002)
             Li-Be, Na-Mg : C. Haettig, Phys. Chem. Chem. Phys. 7, 59 (2005)
                       Ne : C. Haettig, Phys. Chem. Chem. Phys. 7, 59 (2005)
                            F. Weigend, A. Kohn, C. Hattig, J. Chem. Phys. 116, 3175 (2002)
                    Sc-Zn : J. G. Hill, J. A. Platts, J. Chem. Phys. 128, 044104 (2008)

----- AuxJK basis set information -----
Your calculation utilizes the auxiliary basis: cc-pVTZ/JK 
  H, B-F, Al-Cl, Ga-Br : Obtained from the TURBOMOLE 7.0 basis set library

================================================================================
                                        WARNINGS
                       Please study these warnings very carefully!
================================================================================


WARNING: MDCI localization with Augmented Hessian Foster-Boys
  ===> : Switching off randomization!

WARNING: Post HF methods need fully converged wavefunctions
  ===> : Setting SCFConvForced true
         You can overwrite this default with %scf ConvForced false 


INFO   : the flag for use of LIBINT has been found!

================================================================================
                                       INPUT FILE
================================================================================
NAME = piperidine_eq.inp
|  1> ! RHF DLPNO-CCSD(T) cc-pVTZ RIJK cc-pVTZ/JK cc-pVTZ/C
|  2> ! KDIIS SOSCF TightSCF TightPNO
|  3> 
|  4> %pal nprocs 8 end
|  5> 
|  6> %maxcore 8000
|  7> 
|  8> %scf maxiter 300
|  9>      shift shift 0.2 erroff 0.1 end
| 10> end
| 11> 
| 12> * xyzfile 0 1 piperidine_eq.xyz 
| 13> 
| 14> 
| 15>                          ****END OF INPUT****
================================================================================

                       ****************************
                       * Single Point Calculation *
                       ****************************

---------------------------------
CARTESIAN COORDINATES (ANGSTROEM)
---------------------------------
  C      0.059440    1.458400    0.230910
  C      1.294550    0.664770   -0.225930
  C      1.187500   -0.802300    0.205460
  N     -0.056030   -1.380300   -0.312250
  C     -1.248790   -0.703430    0.205060
  C     -1.236350    0.767880   -0.225510
  H     -0.096580   -2.374940   -0.111070
  H      2.030090   -1.380340   -0.189830
  H      1.241420   -0.853970    1.312140
  H     -1.307670   -0.751380    1.311640
  H     -2.135310   -1.210730   -0.191290
  H      1.374320    0.703420   -1.319890
  H      2.210140    1.106460    0.186510
  H     -2.112790    1.282190    0.187750
  H     -1.313250    0.813610   -1.319420
  H      0.062520    1.529530    1.328630
  H      0.101270    2.486290   -0.149410

----------------------------
CARTESIAN COORDINATES (A.U.)
----------------------------
  NO LB      ZA    FRAG     MASS         X           Y           Z
   0 C     6.0000    0    12.011    0.112325    2.755977    0.436357
   1 C     6.0000    0    12.011    2.446345    1.256233   -0.426946
   2 C     6.0000    0    12.011    2.244050   -1.516127    0.388263
   3 N     7.0000    0    14.007   -0.105881   -2.608389   -0.590067
   4 C     6.0000    0    12.011   -2.359871   -1.329290    0.387507
   5 C     6.0000    0    12.011   -2.336363    1.451083   -0.426152
   6 H     1.0000    0     1.008   -0.182510   -4.487986   -0.209892
   7 H     1.0000    0     1.008    3.836314   -2.608465   -0.358727
   8 H     1.0000    0     1.008    2.345944   -1.613769    2.479585
   9 H     1.0000    0     1.008   -2.471138   -1.419902    2.478640
  10 H     1.0000    0     1.008   -4.035151   -2.287948   -0.361486
  11 H     1.0000    0     1.008    2.597088    1.329271   -2.494231
  12 H     1.0000    0     1.008    4.176559    2.090906    0.352453
  13 H     1.0000    0     1.008   -3.992594    2.422988    0.354796
  14 H     1.0000    0     1.008   -2.481683    1.537500   -2.493342
  15 H     1.0000    0     1.008    0.118146    2.890393    2.510747
  16 H     1.0000    0     1.008    0.191373    4.698407   -0.282344

--------------------------------
INTERNAL COORDINATES (ANGSTROEM)
--------------------------------
 C      0   0   0     0.000000000000     0.00000000     0.00000000
 C      1   0   0     1.537546121129     0.00000000     0.00000000
 C      2   1   0     1.532922509294   110.74931490     0.00000000
 N      3   2   1     1.465767548078   109.70892137    55.98370157
 C      4   3   2     1.465755453887   112.55793412   298.52527707
 C      5   4   3     1.533068294173   109.72225437    61.44106064
 H      4   3   2     1.015591662284   110.49375408   174.49023095
 H      3   2   1     1.095601357155   110.46861651   175.52857462
 H      3   2   1     1.109196906640   108.78183034   293.10467272
 H      5   4   3     1.109182290383   112.04512607   300.48720348
 H      5   4   3     1.095611392283   108.47872932   182.17714336
 H      2   1   3     1.097545241437   109.65523203   119.85844492
 H      2   1   3     1.097042322702   110.54292272   238.14728342
 H      6   5   4     1.097016716965   109.73408536   181.75863803
 H      6   5   4     1.097562723037   108.62292161    64.55501153
 H      1   2   3     1.100026436819   109.12480952    67.73090922
 H      1   2   3     1.096791184957   110.49187937   184.60206886

---------------------------
INTERNAL COORDINATES (A.U.)
---------------------------
 C      0   0   0     0.000000000000     0.00000000     0.00000000
 C      1   0   0     2.905541087207     0.00000000     0.00000000
 C      2   1   0     2.896803727089   110.74931490     0.00000000
 N      3   2   1     2.769899241858   109.70892137    55.98370157
 C      4   3   2     2.769876387148   112.55793412   298.52527707
 C      5   4   3     2.897079220586   109.72225437    61.44106064
 H      4   3   2     1.919190105610   110.49375408   174.49023095
 H      3   2   1     2.070386516975   110.46861651   175.52857462
 H      3   2   1     2.096078382142   108.78183034   293.10467272
 H      5   4   3     2.096050761420   112.04512607   300.48720348
 H      5   4   3     2.070405480619   108.47872932   182.17714336
 H      2   1   3     2.074059925904   109.65523203   119.85844492
 H      2   1   3     2.073109547228   110.54292272   238.14728342
 H      6   5   4     2.073061159397   109.73408536   181.75863803
 H      6   5   4     2.074092961340   108.62292161    64.55501153
 H      1   2   3     2.078748705661   109.12480952    67.73090922
 H      1   2   3     2.072634965668   110.49187937   184.60206886

---------------------
BASIS SET INFORMATION
---------------------
There are 3 groups of distinct atoms

 Group   1 Type C   : 18s5p2d1f contracted to 4s3p2d1f pattern {8811/311/11/1}
 Group   2 Type N   : 18s5p2d1f contracted to 4s3p2d1f pattern {8811/311/11/1}
 Group   3 Type H   : 5s2p1d contracted to 3s2p1d pattern {311/11/1}

Atom   0C    basis set group =>   1
Atom   1C    basis set group =>   1
Atom   2C    basis set group =>   1
Atom   3N    basis set group =>   2
Atom   4C    basis set group =>   1
Atom   5C    basis set group =>   1
Atom   6H    basis set group =>   3
Atom   7H    basis set group =>   3
Atom   8H    basis set group =>   3
Atom   9H    basis set group =>   3
Atom  10H    basis set group =>   3
Atom  11H    basis set group =>   3
Atom  12H    basis set group =>   3
Atom  13H    basis set group =>   3
Atom  14H    basis set group =>   3
Atom  15H    basis set group =>   3
Atom  16H    basis set group =>   3
-------------------------------
AUXILIARY BASIS SET INFORMATION
-------------------------------
There are 3 groups of distinct atoms

 Group   1 Type C   : 8s6p5d3f1g contracted to 8s6p5d3f1g pattern {11111111/111111/11111/111/1}
 Group   2 Type N   : 8s6p5d3f1g contracted to 8s6p5d3f1g pattern {11111111/111111/11111/111/1}
 Group   3 Type H   : 4s3p2d1f contracted to 4s3p2d1f pattern {1111/111/11/1}

Atom   0C    basis set group =>   1
Atom   1C    basis set group =>   1
Atom   2C    basis set group =>   1
Atom   3N    basis set group =>   2
Atom   4C    basis set group =>   1
Atom   5C    basis set group =>   1
Atom   6H    basis set group =>   3
Atom   7H    basis set group =>   3
Atom   8H    basis set group =>   3
Atom   9H    basis set group =>   3
Atom  10H    basis set group =>   3
Atom  11H    basis set group =>   3
Atom  12H    basis set group =>   3
Atom  13H    basis set group =>   3
Atom  14H    basis set group =>   3
Atom  15H    basis set group =>   3
Atom  16H    basis set group =>   3
-------------------------------
AUXILIARY BASIS SET INFORMATION
-------------------------------
There are 3 groups of distinct atoms

 Group   1 Type C   : 10s7p5d2f1g contracted to 10s7p5d2f1g pattern {1111111111/1111111/11111/11/1}
 Group   2 Type N   : 10s7p5d2f1g contracted to 10s7p5d2f1g pattern {1111111111/1111111/11111/11/1}
 Group   3 Type H   : 4s3p2d1f contracted to 4s3p2d1f pattern {1111/111/11/1}

Atom   0C    basis set group =>   1
Atom   1C    basis set group =>   1
Atom   2C    basis set group =>   1
Atom   3N    basis set group =>   2
Atom   4C    basis set group =>   1
Atom   5C    basis set group =>   1
Atom   6H    basis set group =>   3
Atom   7H    basis set group =>   3
Atom   8H    basis set group =>   3
Atom   9H    basis set group =>   3
Atom  10H    basis set group =>   3
Atom  11H    basis set group =>   3
Atom  12H    basis set group =>   3
Atom  13H    basis set group =>   3
Atom  14H    basis set group =>   3
Atom  15H    basis set group =>   3
Atom  16H    basis set group =>   3


           ************************************************************
           *        Program running with 8 parallel MPI-processes     *
           *              working on a common directory               *
           ************************************************************
------------------------------------------------------------------------------
                           ORCA GTO INTEGRAL CALCULATION
                           -- RI-GTO INTEGRALS CHOSEN --
------------------------------------------------------------------------------

                         BASIS SET STATISTICS AND STARTUP INFO

Gaussian basis set:
 # of primitive gaussian shells          ...  244
 # of primitive gaussian functions       ...  476
 # of contracted shells                  ...  126
 # of contracted basis functions         ...  334
 Highest angular momentum                ...    3
 Maximum contraction depth               ...    8
Auxiliary gaussian basis set:
 # of primitive gaussian shells          ...  260
 # of primitive gaussian functions       ...  804
 # of contracted shells                  ...  260
 # of contracted aux-basis functions     ...  804
 Highest angular momentum                ...    4
 Maximum contraction depth               ...    1
Ratio of auxiliary to basis functions    ...  2.41
Integral package used                  ... LIBINT
 One Electron integrals                  ... done
 Ordering auxiliary basis shells         ... done
 Integral threshhold             Thresh  ...  2.500e-11
 Primitive cut-off               TCut    ...  2.500e-12
 Pre-screening matrix                    ... done
 Shell pair data                         ... 
 Ordering of the shell pairs             ... done (   0.002 sec) 7798 of 8001 pairs
 Determination of significant pairs      ... done (   0.000 sec)
 Creation of shell pair data             ... done (   0.002 sec)
 Storage of shell pair data              ... done (   0.002 sec)
 Shell pair data done in (   0.006 sec)
 Computing two index integrals           ... done
 Cholesky decomposition of the V-matrix  ... done


Timings:
 Total evaluation time                   ...   0.643 sec (  0.011 min)
 One electron matrix time                ...   0.144 sec (  0.002 min) = 22.4%
 Schwartz matrix evaluation time         ...   0.314 sec (  0.005 min) = 48.8%
 Two index repulsion integral time       ...   0.078 sec (  0.001 min) = 12.1%
 Cholesky decomposition of V             ...   0.065 sec (  0.001 min) = 10.1%
 Three index repulsion integral time     ...   0.000 sec (  0.000 min) =  0.0%



           ************************************************************
           *        Program running with 8 parallel MPI-processes     *
           *              working on a common directory               *
           ************************************************************
-------------------------------------------------------------------------------
                                 ORCA SCF
-------------------------------------------------------------------------------

------------
SCF SETTINGS
------------
Hamiltonian:
 Ab initio Hamiltonian  Method          .... Hartree-Fock(GTOs)
 RI-approximation to the Coulomb term is turned on
   Number of auxiliary basis functions  .... 804
   RI-JK (J+K treated both via RI)      .... on


General Settings:
 Integral files         IntName         .... piperidine_eq
 Hartree-Fock type      HFTyp           .... RHF
 Total Charge           Charge          ....    0
 Multiplicity           Mult            ....    1
 Number of Electrons    NEL             ....   48
 Basis Dimension        Dim             ....  334
 Nuclear Repulsion      ENuc            ....    258.2371782670 Eh

Convergence Acceleration:
 DIIS                   CNVDIIS         .... off
 Newton-Raphson         CNVNR           .... off
 SOSCF                  CNVSOSCF        .... on
   Start iteration      SOSCFMaxIt      ....   150
   Startup grad/error   SOSCFStart      ....  0.003300
 Level Shifting         CNVShift        .... on
   Level shift para.    LevelShift      ....    0.2000
   Turn off err/grad.   ShiftErr        ....    0.1000
 Zerner damping         CNVZerner       .... off
 Static damping         CNVDamp         .... off
 Fernandez-Rico         CNVRico         .... off

SCF Procedure:
 Maximum # iterations   MaxIter         ....   300
 SCF integral mode      SCFMode         .... Direct
   Integral package                     .... LIBINT
 Reset frequency        DirectResetFreq ....    20
 Integral Threshold     Thresh          ....  2.500e-11 Eh
 Primitive CutOff       TCut            ....  2.500e-12 Eh

Convergence Tolerance:
 Convergence Check Mode ConvCheckMode   .... Total+1el-Energy
 Convergence forced     ConvForced      .... 1
 Energy Change          TolE            ....  1.000e-08 Eh
 1-El. energy change                    ....  1.000e-05 Eh
 Orbital Gradient       TolG            ....  1.000e-05
 Orbital Rotation angle TolX            ....  1.000e-05


Diagonalization of the overlap matrix:
Smallest eigenvalue                        ... 3.267e-04
Time for diagonalization                   ...    0.032 sec
Threshold for overlap eigenvalues          ... 1.000e-08
Number of eigenvalues below threshold      ... 0
Time for construction of square roots      ...    0.036 sec
Total time needed                          ...    0.069 sec

-------------------
DFT GRID GENERATION
-------------------

General Integration Accuracy     IntAcc      ...  4.340
Radial Grid Type                 RadialGrid  ... Gauss-Chebyshev
Angular Grid (max. acc.)         AngularGrid ... Lebedev-110
Angular grid pruning method      GridPruning ... 3 (G Style)
Weight generation scheme         WeightScheme... Becke
Basis function cutoff            BFCut       ...    1.0000e-11
Integration weight cutoff        WCut        ...    1.0000e-14
Grids for H and He will be reduced by one unit

# of grid points (after initial pruning)     ...  18716 (   0.0 sec)
# of grid points (after weights+screening)   ...  17136 (   0.0 sec)
nearest neighbour list constructed           ...    0.0 sec
Grid point re-assignment to atoms done       ...    0.0 sec
Grid point division into batches done        ...    0.0 sec
Reduced shell lists constructed in    0.1 sec

Total number of grid points                  ...    17136
Total number of batches                      ...      275
Average number of points per batch           ...       62
Average number of grid points per atom       ...     1008
Average number of shells per batch           ...   112.14 (89.00%)
Average number of basis functions per batch  ...   295.86 (88.58%)
Average number of large shells per batch     ...    94.39 (84.17%)
Average number of large basis fcns per batch ...   245.33 (82.92%)
Average number of aux-shells per batch       ...   112.14 (43.13%)
Average number of aux functions per batch    ...   295.86 (36.80%)
Maximum spatial batch extension              ...   2.75,  2.41,  2.36 au
Average spatial batch extension              ...   0.20,  0.21,  0.19 au

Time for grid setup =    0.147 sec

------------------------------
INITIAL GUESS: MODEL POTENTIAL
------------------------------
Loading Hartree-Fock densities                     ... done
Calculating cut-offs                               ... done
Setting up the integral package                    ... done
Initializing the effective Hamiltonian             ... done
Starting the Coulomb interaction                   ... done (   0.0 sec)
Reading the grid                                   ... done
Mapping shells                                     ... done
Starting the XC term evaluation                    ... done (   0.1 sec)
Transforming the Hamiltonian                       ... done (   0.0 sec)
Diagonalizing the Hamiltonian                      ... done (   0.0 sec)
Back transforming the eigenvectors                 ... done (   0.0 sec)
Now organizing SCF variables                       ... done
                      ------------------
                      INITIAL GUESS DONE (   0.4 sec)
                      ------------------
--------------
SCF ITERATIONS
--------------
ITER       Energy         Delta-E        Max-DP      RMS-DP      [F,P]   Gradient Norm
                             ****Turning on KDIIS(Cayley)****
  0   -249.9253784777   0.000000000000 0.01676846  0.00027414  0.1047626   0.151539680
  1   -250.0267052997  -0.101326821979 0.01782388  0.00029936  0.0965091   0.130862740
  2   -250.1085361093  -0.081830809616 0.02985522  0.00051561  0.0774243   0.106367167
  3   -250.2093257997  -0.100789690431 0.04814958  0.00083226  0.0468600   0.065629929
                      *** Initiating the SOSCF procedure ***
                           *** Shutting down KDIIS ***
                      *** Re-Reading the Fockian *** 
                      *** Removing any level shift *** 
ITER      Energy       Delta-E        Grad      Rot      Max-DP    RMS-DP
  4   -250.27496628  -0.0656404779  0.002623  0.002623  0.002181  0.000060
  5   -250.27532750  -0.0003612258  0.001289  0.001912  0.001402  0.000055
  6   -250.27539511  -0.0000676070  0.000834  0.000588  0.000953  0.000021
  7   -250.27542068  -0.0000255725  0.000100  0.000200  0.000329  0.000009
  8   -250.27542139  -0.0000007099  0.000045  0.000082  0.000179  0.000004
  9   -250.27542147  -0.0000000797  0.000019  0.000022  0.000045  0.000001
 10   -250.27542149  -0.0000000135  0.000003  0.000004  0.000013  0.000000
                  ***Gradient check signals convergence***
              ***Rediagonalizing the Fockian in SOSCF/NRSCF***

               *****************************************************
               *                     SUCCESS                       *
               *           SCF CONVERGED AFTER  11 CYCLES          *
               *****************************************************


----------------
TOTAL SCF ENERGY
----------------

Total Energy       :         -250.27542149 Eh           -6810.34045 eV

Components:
Nuclear Repulsion  :          258.23717827 Eh            7026.99087 eV
Electronic Energy  :         -508.51259975 Eh          -13837.33132 eV
One Electron Energy:         -849.70997598 Eh          -23121.78394 eV
Two Electron Energy:          341.19737622 Eh            9284.45262 eV

Virial components:
Potential Energy   :         -500.09922568 Eh          -13608.39177 eV
Kinetic Energy     :          249.82380419 Eh            6798.05132 eV
Virial Ratio       :            2.00180774


---------------
SCF CONVERGENCE
---------------

  Last Energy change         ...   -1.0991e-09  Tolerance :   1.0000e-08
  Last MAX-Density change    ...    7.8720e-06  Tolerance :   1.0000e-07
  Last RMS-Density change    ...    1.4818e-07  Tolerance :   5.0000e-09
  Last Orbital Gradient      ...    1.3767e-06  Tolerance :   1.0000e-05
  Last Orbital Rotation      ...    3.7459e-06  Tolerance :   1.0000e-05

             **** THE GBW FILE WAS UPDATED (piperidine_eq.gbw) ****
             **** DENSITY FILE WAS UPDATED (piperidine_eq.scfp.tmp) ****
             **** ENERGY FILE WAS UPDATED (piperidine_eq.en.tmp) ****
----------------
ORBITAL ENERGIES
----------------

  NO   OCC          E(Eh)            E(eV) 
   0   2.0000     -15.533354      -422.6840 
   1   2.0000     -11.242547      -305.9253 
   2   2.0000     -11.242530      -305.9248 
   3   2.0000     -11.215929      -305.2009 
   4   2.0000     -11.213613      -305.1379 
   5   2.0000     -11.213525      -305.1355 
   6   2.0000      -1.202353       -32.7177 
   7   2.0000      -1.049911       -28.5695 
   8   2.0000      -1.006492       -27.3880 
   9   2.0000      -0.859015       -23.3750 
  10   2.0000      -0.836172       -22.7534 
  11   2.0000      -0.749539       -20.3960 
  12   2.0000      -0.678497       -18.4628 
  13   2.0000      -0.616090       -16.7647 
  14   2.0000      -0.607005       -16.5175 
  15   2.0000      -0.580936       -15.8081 
  16   2.0000      -0.555336       -15.1115 
  17   2.0000      -0.540381       -14.7045 
  18   2.0000      -0.526002       -14.3133 
  19   2.0000      -0.483344       -13.1525 
  20   2.0000      -0.463174       -12.6036 
  21   2.0000      -0.440738       -11.9931 
  22   2.0000      -0.439324       -11.9546 
  23   2.0000      -0.361816        -9.8455 
  24   0.0000       0.140200         3.8150 
  25   0.0000       0.163990         4.4624 
  26   0.0000       0.167367         4.5543 
  27   0.0000       0.169266         4.6060 
  28   0.0000       0.202094         5.4993 
  29   0.0000       0.209044         5.6884 
  30   0.0000       0.216668         5.8958 
  31   0.0000       0.225848         6.1456 
  32   0.0000       0.239172         6.5082 
  33   0.0000       0.241328         6.5669 
  34   0.0000       0.255858         6.9623 
  35   0.0000       0.309798         8.4300 
  36   0.0000       0.318452         8.6655 
  37   0.0000       0.342809         9.3283 
  38   0.0000       0.365554         9.9472 
  39   0.0000       0.372391        10.1333 
  40   0.0000       0.387527        10.5451 
  41   0.0000       0.419250        11.4084 
  42   0.0000       0.431471        11.7409 
  43   0.0000       0.431935        11.7535 
  44   0.0000       0.446696        12.1552 
  45   0.0000       0.487531        13.2664 
  46   0.0000       0.499951        13.6044 
  47   0.0000       0.511403        13.9160 
  48   0.0000       0.556045        15.1308 
  49   0.0000       0.570295        15.5185 
  50   0.0000       0.577503        15.7146 
  51   0.0000       0.591287        16.0897 
  52   0.0000       0.602635        16.3985 
  53   0.0000       0.606167        16.4946 
  54   0.0000       0.610966        16.6252 
  55   0.0000       0.619943        16.8695 
  56   0.0000       0.637941        17.3593 
  57   0.0000       0.640813        17.4374 
  58   0.0000       0.651243        17.7212 
  59   0.0000       0.652202        17.7473 
  60   0.0000       0.660161        17.9639 
  61   0.0000       0.679219        18.4825 
  62   0.0000       0.685800        18.6616 
  63   0.0000       0.686719        18.6866 
  64   0.0000       0.695735        18.9319 
  65   0.0000       0.721693        19.6383 
  66   0.0000       0.744943        20.2709 
  67   0.0000       0.764298        20.7976 
  68   0.0000       0.796661        21.6782 
  69   0.0000       0.814743        22.1703 
  70   0.0000       0.826648        22.4942 
  71   0.0000       0.856478        23.3060 
  72   0.0000       0.904418        24.6105 
  73   0.0000       0.938520        25.5384 
  74   0.0000       0.964800        26.2535 
  75   0.0000       0.972697        26.4684 
  76   0.0000       0.977232        26.5918 
  77   0.0000       0.996137        27.1063 
  78   0.0000       1.004340        27.3295 
  79   0.0000       1.050767        28.5928 
  80   0.0000       1.070557        29.1313 
  81   0.0000       1.074306        29.2333 
  82   0.0000       1.116364        30.3778 
  83   0.0000       1.120120        30.4800 
  84   0.0000       1.129776        30.7428 
  85   0.0000       1.158666        31.5289 
  86   0.0000       1.187662        32.3179 
  87   0.0000       1.198193        32.6045 
  88   0.0000       1.211203        32.9585 
  89   0.0000       1.231438        33.5091 
  90   0.0000       1.267435        34.4887 
  91   0.0000       1.288837        35.0710 
  92   0.0000       1.294151        35.2156 
  93   0.0000       1.301387        35.4125 
  94   0.0000       1.307839        35.5881 
  95   0.0000       1.319481        35.9049 
  96   0.0000       1.324480        36.0409 
  97   0.0000       1.331578        36.2341 
  98   0.0000       1.345233        36.6056 
  99   0.0000       1.369006        37.2526 
 100   0.0000       1.374698        37.4074 
 101   0.0000       1.393021        37.9060 
 102   0.0000       1.419473        38.6258 
 103   0.0000       1.421099        38.6701 
 104   0.0000       1.448461        39.4146 
 105   0.0000       1.468390        39.9569 
 106   0.0000       1.481351        40.3096 
 107   0.0000       1.486617        40.4529 
 108   0.0000       1.497288        40.7433 
 109   0.0000       1.507765        41.0284 
 110   0.0000       1.529410        41.6174 
 111   0.0000       1.548778        42.1444 
 112   0.0000       1.557376        42.3784 
 113   0.0000       1.576255        42.8921 
 114   0.0000       1.579197        42.9721 
 115   0.0000       1.584880        43.1268 
 116   0.0000       1.636223        44.5239 
 117   0.0000       1.643839        44.7311 
 118   0.0000       1.647552        44.8322 
 119   0.0000       1.686076        45.8805 
 120   0.0000       1.694236        46.1025 
 121   0.0000       1.702030        46.3146 
 122   0.0000       1.718815        46.7713 
 123   0.0000       1.720476        46.8165 
 124   0.0000       1.768116        48.1129 
 125   0.0000       1.783399        48.5287 
 126   0.0000       1.791478        48.7486 
 127   0.0000       1.824006        49.6337 
 128   0.0000       1.836487        49.9734 
 129   0.0000       1.860792        50.6347 
 130   0.0000       1.910006        51.9739 
 131   0.0000       1.949483        53.0481 
 132   0.0000       1.973709        53.7074 
 133   0.0000       2.016218        54.8641 
 134   0.0000       2.035115        55.3783 
 135   0.0000       2.093539        56.9681 
 136   0.0000       2.139156        58.2094 
 137   0.0000       2.212694        60.2105 
 138   0.0000       2.257424        61.4276 
 139   0.0000       2.604385        70.8689 
 140   0.0000       2.626083        71.4593 
 141   0.0000       2.645976        72.0007 
 142   0.0000       2.668501        72.6136 
 143   0.0000       2.675366        72.8004 
 144   0.0000       2.727342        74.2147 
 145   0.0000       2.745299        74.7034 
 146   0.0000       2.791887        75.9711 
 147   0.0000       2.809619        76.4536 
 148   0.0000       2.811658        76.5091 
 149   0.0000       2.814298        76.5809 
 150   0.0000       2.868800        78.0640 
 151   0.0000       2.871918        78.1489 
 152   0.0000       2.899549        78.9008 
 153   0.0000       2.914082        79.2962 
 154   0.0000       2.917177        79.3804 
 155   0.0000       2.930017        79.7298 
 156   0.0000       2.969910        80.8154 
 157   0.0000       2.973395        80.9102 
 158   0.0000       2.978185        81.0405 
 159   0.0000       3.006028        81.7982 
 160   0.0000       3.015990        82.0693 
 161   0.0000       3.018376        82.1342 
 162   0.0000       3.045834        82.8813 
 163   0.0000       3.060174        83.2716 
 164   0.0000       3.076606        83.7187 
 165   0.0000       3.144750        85.5730 
 166   0.0000       3.153971        85.8239 
 167   0.0000       3.167914        86.2033 
 168   0.0000       3.194228        86.9194 
 169   0.0000       3.197981        87.0215 
 170   0.0000       3.233824        87.9968 
 171   0.0000       3.239526        88.1520 
 172   0.0000       3.266312        88.8809 
 173   0.0000       3.281952        89.3064 
 174   0.0000       3.291050        89.5540 
 175   0.0000       3.302229        89.8582 
 176   0.0000       3.331065        90.6429 
 177   0.0000       3.368025        91.6486 
 178   0.0000       3.379212        91.9530 
 179   0.0000       3.393342        92.3375 
 180   0.0000       3.415751        92.9473 
 181   0.0000       3.424023        93.1724 
 182   0.0000       3.427317        93.2620 
 183   0.0000       3.442459        93.6741 
 184   0.0000       3.443475        93.7017 
 185   0.0000       3.452221        93.9397 
 186   0.0000       3.461115        94.1817 
 187   0.0000       3.475406        94.5706 
 188   0.0000       3.491646        95.0125 
 189   0.0000       3.514328        95.6297 
 190   0.0000       3.518245        95.7363 
 191   0.0000       3.537413        96.2579 
 192   0.0000       3.539232        96.3074 
 193   0.0000       3.574124        97.2569 
 194   0.0000       3.574218        97.2594 
 195   0.0000       3.599108        97.9367 
 196   0.0000       3.602074        98.0174 
 197   0.0000       3.612369        98.2976 
 198   0.0000       3.628300        98.7311 
 199   0.0000       3.692867       100.4880 
 200   0.0000       3.699570       100.6704 
 201   0.0000       3.709951       100.9529 
 202   0.0000       3.718027       101.1727 
 203   0.0000       3.730529       101.5129 
 204   0.0000       3.744480       101.8925 
 205   0.0000       3.797194       103.3269 
 206   0.0000       3.800714       103.4227 
 207   0.0000       3.807083       103.5960 
 208   0.0000       3.815257       103.8184 
 209   0.0000       3.837981       104.4368 
 210   0.0000       3.870072       105.3100 
 211   0.0000       3.879008       105.5532 
 212   0.0000       3.893973       105.9604 
 213   0.0000       3.936004       107.1041 
 214   0.0000       3.964127       107.8694 
 215   0.0000       3.981520       108.3427 
 216   0.0000       3.982096       108.3583 
 217   0.0000       3.995749       108.7299 
 218   0.0000       4.007481       109.0491 
 219   0.0000       4.029845       109.6577 
 220   0.0000       4.049220       110.1849 
 221   0.0000       4.056213       110.3752 
 222   0.0000       4.056633       110.3866 
 223   0.0000       4.090366       111.3045 
 224   0.0000       4.095897       111.4550 
 225   0.0000       4.114119       111.9509 
 226   0.0000       4.118326       112.0654 
 227   0.0000       4.139675       112.6463 
 228   0.0000       4.145578       112.8069 
 229   0.0000       4.166826       113.3851 
 230   0.0000       4.172209       113.5316 
 231   0.0000       4.218961       114.8038 
 232   0.0000       4.227030       115.0233 
 233   0.0000       4.265240       116.0631 
 234   0.0000       4.274865       116.3250 
 235   0.0000       4.280219       116.4707 
 236   0.0000       4.288184       116.6874 
 237   0.0000       4.317146       117.4755 
 238   0.0000       4.319012       117.5263 
 239   0.0000       4.336453       118.0009 
 240   0.0000       4.362941       118.7217 
 241   0.0000       4.365360       118.7875 
 242   0.0000       4.377426       119.1158 
 243   0.0000       4.398846       119.6987 
 244   0.0000       4.402148       119.7885 
 245   0.0000       4.410055       120.0037 
 246   0.0000       4.425367       120.4204 
 247   0.0000       4.458832       121.3310 
 248   0.0000       4.461757       121.4106 
 249   0.0000       4.480093       121.9095 
 250   0.0000       4.487675       122.1158 
 251   0.0000       4.499733       122.4440 
 252   0.0000       4.499771       122.4450 
 253   0.0000       4.525323       123.1403 
 254   0.0000       4.548874       123.7811 
 255   0.0000       4.554423       123.9321 
 256   0.0000       4.594537       125.0237 
 257   0.0000       4.609459       125.4298 
 258   0.0000       4.652739       126.6075 
 259   0.0000       4.659300       126.7860 
 260   0.0000       4.667223       127.0016 
 261   0.0000       4.678468       127.3076 
 262   0.0000       4.699519       127.8804 
 263   0.0000       4.715617       128.3185 
 264   0.0000       4.752485       129.3217 
 265   0.0000       4.768233       129.7502 
 266   0.0000       4.786732       130.2536 
 267   0.0000       4.813717       130.9879 
 268   0.0000       4.817061       131.0789 
 269   0.0000       4.844821       131.8343 
 270   0.0000       4.860423       132.2588 
 271   0.0000       4.881395       132.8295 
 272   0.0000       4.942436       134.4905 
 273   0.0000       4.992017       135.8397 
 274   0.0000       5.056121       137.5841 
 275   0.0000       5.070883       137.9857 
 276   0.0000       5.116024       139.2141 
 277   0.0000       5.118798       139.2896 
 278   0.0000       5.123564       139.4193 
 279   0.0000       5.171052       140.7115 
 280   0.0000       5.178655       140.9184 
 281   0.0000       5.203925       141.6060 
 282   0.0000       5.246096       142.7535 
 283   0.0000       5.258065       143.0792 
 284   0.0000       5.267418       143.3337 
 285   0.0000       5.297803       144.1605 
 286   0.0000       5.298763       144.1867 
 287   0.0000       5.356106       145.7471 
 288   0.0000       5.361218       145.8862 
 289   0.0000       5.370820       146.1474 
 290   0.0000       5.407059       147.1336 
 291   0.0000       5.425612       147.6384 
 292   0.0000       5.469344       148.8284 
 293   0.0000       5.479671       149.1094 
 294   0.0000       5.506538       149.8405 
 295   0.0000       5.560386       151.3058 
 296   0.0000       5.561016       151.3229 
 297   0.0000       5.589288       152.0923 
 298   0.0000       5.615949       152.8178 
 299   0.0000       5.628885       153.1697 
 300   0.0000       5.651723       153.7912 
 301   0.0000       5.661428       154.0553 
 302   0.0000       5.718436       155.6066 
 303   0.0000       5.723344       155.7401 
 304   0.0000       5.775337       157.1549 
 305   0.0000       5.778694       157.2463 
 306   0.0000       5.823480       158.4649 
 307   0.0000       5.842862       158.9923 
 308   0.0000       5.843559       159.0113 
 309   0.0000       5.881789       160.0516 
 310   0.0000       5.901349       160.5839 
 311   0.0000       5.906289       160.7183 
 312   0.0000       5.959974       162.1791 
 313   0.0000       5.980653       162.7418 
 314   0.0000       6.073974       165.2812 
 315   0.0000       6.090962       165.7435 
 316   0.0000       6.100316       165.9980 
 317   0.0000       6.168728       167.8596 
 318   0.0000       6.238852       169.7678 
 319   0.0000       6.259373       170.3262 
 320   0.0000       6.367639       173.2723 
 321   0.0000       6.384801       173.7393 
 322   0.0000       6.393145       173.9663 
 323   0.0000       6.429609       174.9586 
 324   0.0000       6.459880       175.7823 
 325   0.0000       6.484573       176.4542 
 326   0.0000       6.579064       179.0254 
 327   0.0000       7.036550       191.4743 
 328   0.0000      12.180703       331.4538 
 329   0.0000      12.834035       349.2319 
 330   0.0000      13.059949       355.3793 
 331   0.0000      13.418012       365.1227 
 332   0.0000      13.527860       368.1118 
 333   0.0000      13.600026       370.0755 

                    ********************************
                    * MULLIKEN POPULATION ANALYSIS *
                    ********************************

-----------------------
MULLIKEN ATOMIC CHARGES
-----------------------
   0 C :   -0.193372
   1 C :   -0.178743
   2 C :   -0.081304
   3 N :   -0.293103
   4 C :   -0.081294
   5 C :   -0.178807
   6 H :    0.120899
   7 H :    0.097358
   8 H :    0.061026
   9 H :    0.061053
  10 H :    0.097317
  11 H :    0.088890
  12 H :    0.100062
  13 H :    0.100081
  14 H :    0.088892
  15 H :    0.085476
  16 H :    0.105571
Sum of atomic charges:    0.0000000

--------------------------------
MULLIKEN REDUCED ORBITAL CHARGES
--------------------------------
  0 C s       :     3.214164  s :     3.214164
      pz      :     0.988710  p :     2.856068
      px      :     0.884436
      py      :     0.982922
      dz2     :     0.034890  d :     0.116444
      dxz     :     0.016561
      dyz     :     0.010501
      dx2y2   :     0.032974
      dxy     :     0.021519
      f0      :     0.001485  f :     0.006695
      f+1     :     0.000778
      f-1     :     0.000358
      f+2     :     0.000502
      f-2     :     0.000813
      f+3     :     0.001248
      f-3     :     0.001511
  1 C s       :     3.206525  s :     3.206525
      pz      :     0.999623  p :     2.855775
      px      :     0.960046
      py      :     0.896106
      dz2     :     0.032481  d :     0.109835
      dxz     :     0.013847
      dyz     :     0.015296
      dx2y2   :     0.025589
      dxy     :     0.022623
      f0      :     0.001432  f :     0.006609
      f+1     :     0.000463
      f-1     :     0.000704
      f+2     :     0.000706
      f-2     :     0.000560
      f+3     :     0.001181
      f-3     :     0.001563
  2 C s       :     3.193344  s :     3.193344
      pz      :     0.947873  p :     2.742167
      px      :     0.872323
      py      :     0.921972
      dz2     :     0.038013  d :     0.136746
      dxz     :     0.021656
      dyz     :     0.015689
      dx2y2   :     0.026470
      dxy     :     0.034918
      f0      :     0.001719  f :     0.009047
      f+1     :     0.001250
      f-1     :     0.000804
      f+2     :     0.001186
      f-2     :     0.000876
      f+3     :     0.001526
      f-3     :     0.001686
  3 N s       :     3.456145  s :     3.456145
      pz      :     1.673204  p :     3.774703
      px      :     1.041943
      py      :     1.059557
      dz2     :     0.004906  d :     0.058813
      dxz     :     0.015640
      dyz     :     0.006547
      dx2y2   :     0.018571
      dxy     :     0.013149
      f0      :     0.000639  f :     0.003441
      f+1     :     0.000525
      f-1     :     0.000320
      f+2     :     0.000264
      f-2     :     0.000551
      f+3     :     0.000515
      f-3     :     0.000628
  4 C s       :     3.193358  s :     3.193358
      pz      :     0.947930  p :     2.742162
      px      :     0.886966
      py      :     0.907266
      dz2     :     0.037975  d :     0.136728
      dxz     :     0.020885
      dyz     :     0.016490
      dx2y2   :     0.026952
      dxy     :     0.034426
      f0      :     0.001719  f :     0.009045
      f+1     :     0.001166
      f-1     :     0.000887
      f+2     :     0.001060
      f-2     :     0.001001
      f+3     :     0.001493
      f-3     :     0.001718
  5 C s       :     3.206558  s :     3.206558
      pz      :     0.999665  p :     2.855811
      px      :     0.953990
      py      :     0.902156
      dz2     :     0.032457  d :     0.109831
      dxz     :     0.014145
      dyz     :     0.015026
      dx2y2   :     0.023979
      dxy     :     0.024225
      f0      :     0.001431  f :     0.006607
      f+1     :     0.000493
      f-1     :     0.000674
      f+2     :     0.000763
      f-2     :     0.000502
      f+3     :     0.001165
      f-3     :     0.001578
  6 H s       :     0.812312  s :     0.812312
      pz      :     0.022614  p :     0.061437
      px      :     0.012532
      py      :     0.026291
      dz2     :     0.000616  d :     0.005352
      dxz     :     0.000048
      dyz     :     0.002065
      dx2y2   :     0.001251
      dxy     :     0.001372
  7 H s       :     0.872683  s :     0.872683
      pz      :     0.007085  p :     0.027501
      px      :     0.010161
      py      :     0.010256
      dz2     :     0.000460  d :     0.002457
      dxz     :     0.000370
      dyz     :     0.000179
      dx2y2   :     0.000844
      dxy     :     0.000603
  8 H s       :     0.912215  s :     0.912215
      pz      :     0.011206  p :     0.024390
      px      :     0.005873
      py      :     0.007311
      dz2     :     0.000741  d :     0.002368
      dxz     :     0.000727
      dyz     :     0.000844
      dx2y2   :     0.000041
      dxy     :     0.000015
  9 H s       :     0.912190  s :     0.912190
      pz      :     0.011200  p :     0.024389
      px      :     0.005953
      py      :     0.007236
      dz2     :     0.000741  d :     0.002368
      dxz     :     0.000717
      dyz     :     0.000854
      dx2y2   :     0.000039
      dxy     :     0.000017
 10 H s       :     0.872722  s :     0.872722
      pz      :     0.007084  p :     0.027502
      px      :     0.010720
      py      :     0.009699
      dz2     :     0.000461  d :     0.002458
      dxz     :     0.000401
      dyz     :     0.000149
      dx2y2   :     0.000802
      dxy     :     0.000645
 11 H s       :     0.880752  s :     0.880752
      pz      :     0.011735  p :     0.027895
      px      :     0.007947
      py      :     0.008214
      dz2     :     0.000702  d :     0.002463
      dxz     :     0.000788
      dyz     :     0.000911
      dx2y2   :     0.000035
      dxy     :     0.000027
 12 H s       :     0.868331  s :     0.868331
      pz      :     0.007055  p :     0.029174
      px      :     0.012231
      py      :     0.009888
      dz2     :     0.000422  d :     0.002434
      dxz     :     0.000419
      dyz     :     0.000150
      dx2y2   :     0.000774
      dxy     :     0.000669
 13 H s       :     0.868309  s :     0.868309
      pz      :     0.007054  p :     0.029176
      px      :     0.012001
      py      :     0.010121
      dz2     :     0.000422  d :     0.002435
      dxz     :     0.000391
      dyz     :     0.000179
      dx2y2   :     0.000846
      dxy     :     0.000597
 14 H s       :     0.880750  s :     0.880750
      pz      :     0.011731  p :     0.027895
      px      :     0.008010
      py      :     0.008155
      dz2     :     0.000701  d :     0.002463
      dxz     :     0.000804
      dyz     :     0.000895
      dx2y2   :     0.000039
      dxy     :     0.000023
 15 H s       :     0.884253  s :     0.884253
      pz      :     0.011190  p :     0.027857
      px      :     0.008772
      py      :     0.007895
      dz2     :     0.000657  d :     0.002414
      dxz     :     0.000967
      dyz     :     0.000728
      dx2y2   :     0.000017
      dxy     :     0.000044
 16 H s       :     0.863503  s :     0.863503
      pz      :     0.006840  p :     0.028507
      px      :     0.008889
      py      :     0.012778
      dz2     :     0.000410  d :     0.002419
      dxz     :     0.000061
      dyz     :     0.000486
      dx2y2   :     0.000500
      dxy     :     0.000962


                     *******************************
                     * LOEWDIN POPULATION ANALYSIS *
                     *******************************

----------------------
LOEWDIN ATOMIC CHARGES
----------------------
   0 C :    0.054423
   1 C :    0.054785
   2 C :   -0.014642
   3 N :    0.292727
   4 C :   -0.014622
   5 C :    0.054848
   6 H :   -0.113564
   7 H :   -0.030943
   8 H :   -0.043936
   9 H :   -0.043958
  10 H :   -0.030941
  11 H :   -0.026035
  12 H :   -0.027841
  13 H :   -0.027859
  14 H :   -0.026037
  15 H :   -0.028352
  16 H :   -0.028053

-------------------------------
LOEWDIN REDUCED ORBITAL CHARGES
-------------------------------
  0 C s       :     2.660850  s :     2.660850
      pz      :     0.962713  p :     2.822343
      px      :     0.912968
      py      :     0.946662
      dz2     :     0.116764  d :     0.422692
      dxz     :     0.063068
      dyz     :     0.040030
      dx2y2   :     0.117334
      dxy     :     0.085497
      f0      :     0.005903  f :     0.039692
      f+1     :     0.005616
      f-1     :     0.002389
      f+2     :     0.005184
      f-2     :     0.006194
      f+3     :     0.007944
      f-3     :     0.006462
  1 C s       :     2.662528  s :     2.662528
      pz      :     0.967397  p :     2.825290
      px      :     0.937329
      py      :     0.920564
      dz2     :     0.112661  d :     0.417755
      dxz     :     0.049266
      dyz     :     0.059111
      dx2y2   :     0.099206
      dxy     :     0.097512
      f0      :     0.005858  f :     0.039642
      f+1     :     0.002973
      f-1     :     0.005007
      f+2     :     0.006132
      f-2     :     0.005443
      f+3     :     0.007657
      f-3     :     0.006571
  2 C s       :     2.671755  s :     2.671755
      pz      :     0.962708  p :     2.768181
      px      :     0.875678
      py      :     0.929795
      dz2     :     0.141845  d :     0.517526
      dxz     :     0.086461
      dyz     :     0.064526
      dx2y2   :     0.100772
      dxy     :     0.123922
      f0      :     0.007057  f :     0.057179
      f+1     :     0.007169
      f-1     :     0.005515
      f+2     :     0.009365
      f-2     :     0.008629
      f+3     :     0.010141
      f-3     :     0.009303
  3 N s       :     2.897008  s :     2.897008
      pz      :     1.470740  p :     3.582836
      px      :     1.038681
      py      :     1.073415
      dz2     :     0.030381  d :     0.213220
      dxz     :     0.040507
      dyz     :     0.015198
      dx2y2   :     0.075212
      dxy     :     0.051922
      f0      :     0.000553  f :     0.014208
      f+1     :     0.002192
      f-1     :     0.000904
      f+2     :     0.002313
      f-2     :     0.002794
      f+3     :     0.002999
      f-3     :     0.002454
  4 C s       :     2.671774  s :     2.671774
      pz      :     0.962782  p :     2.768196
      px      :     0.884327
      py      :     0.921087
      dz2     :     0.141722  d :     0.517483
      dxz     :     0.082074
      dyz     :     0.069019
      dx2y2   :     0.103551
      dxy     :     0.121116
      f0      :     0.007059  f :     0.057169
      f+1     :     0.006606
      f-1     :     0.006066
      f+2     :     0.008656
      f-2     :     0.009336
      f+3     :     0.010118
      f-3     :     0.009328
  5 C s       :     2.662554  s :     2.662554
      pz      :     0.967433  p :     2.825287
      px      :     0.935066
      py      :     0.922788
      dz2     :     0.112573  d :     0.417681
      dxz     :     0.050474
      dyz     :     0.057957
      dx2y2   :     0.094350
      dxy     :     0.102328
      f0      :     0.005858  f :     0.039630
      f+1     :     0.003209
      f-1     :     0.004766
      f+2     :     0.006300
      f-2     :     0.005270
      f+3     :     0.007682
      f-3     :     0.006545
  6 H s       :     0.781233  s :     0.781233
      pz      :     0.104966  p :     0.271227
      px      :     0.052260
      py      :     0.114000
      dz2     :     0.006167  d :     0.061105
      dxz     :     0.000424
      dyz     :     0.024278
      dx2y2   :     0.014223
      dxy     :     0.016013
  7 H s       :     0.855943  s :     0.855943
      pz      :     0.042131  p :     0.147345
      px      :     0.056563
      py      :     0.048651
      dz2     :     0.004826  d :     0.027655
      dxz     :     0.005643
      dyz     :     0.002753
      dx2y2   :     0.007705
      dxy     :     0.006728
  8 H s       :     0.870256  s :     0.870256
      pz      :     0.077736  p :     0.146929
      px      :     0.031687
      py      :     0.037506
      dz2     :     0.009383  d :     0.026751
      dxz     :     0.008176
      dyz     :     0.008934
      dx2y2   :     0.000186
      dxy     :     0.000072
  9 H s       :     0.870269  s :     0.870269
      pz      :     0.077731  p :     0.146939
      px      :     0.032018
      py      :     0.037191
      dz2     :     0.009382  d :     0.026751
      dxz     :     0.008278
      dyz     :     0.008831
      dx2y2   :     0.000169
      dxy     :     0.000091
 10 H s       :     0.855933  s :     0.855933
      pz      :     0.042157  p :     0.147352
      px      :     0.059290
      py      :     0.045904
      dz2     :     0.004835  d :     0.027656
      dxz     :     0.006132
      dyz     :     0.002266
      dx2y2   :     0.007484
      dxy     :     0.006939
 11 H s       :     0.845718  s :     0.845718
      pz      :     0.075394  p :     0.152075
      px      :     0.038081
      py      :     0.038600
      dz2     :     0.009477  d :     0.028242
      dxz     :     0.009267
      dyz     :     0.009213
      dx2y2   :     0.000167
      dxy     :     0.000117
 12 H s       :     0.847496  s :     0.847496
      pz      :     0.043657  p :     0.152424
      px      :     0.063606
      py      :     0.045161
      dz2     :     0.004975  d :     0.027921
      dxz     :     0.006298
      dyz     :     0.002137
      dx2y2   :     0.007517
      dxy     :     0.006994
 13 H s       :     0.847496  s :     0.847496
      pz      :     0.043677  p :     0.152439
      px      :     0.061642
      py      :     0.047120
      dz2     :     0.004982  d :     0.027924
      dxz     :     0.005849
      dyz     :     0.002588
      dx2y2   :     0.007821
      dxy     :     0.006683
 14 H s       :     0.845725  s :     0.845725
      pz      :     0.075386  p :     0.152073
      px      :     0.038189
      py      :     0.038499
      dz2     :     0.009476  d :     0.028240
      dxz     :     0.009246
      dyz     :     0.009231
      dx2y2   :     0.000197
      dxy     :     0.000090
 15 H s       :     0.848356  s :     0.848356
      pz      :     0.074649  p :     0.151967
      px      :     0.039167
      py      :     0.038151
      dz2     :     0.009339  d :     0.028029
      dxz     :     0.009081
      dyz     :     0.009357
      dx2y2   :     0.000054
      dxy     :     0.000198
 16 H s       :     0.847087  s :     0.847087
      pz      :     0.042935  p :     0.153029
      px      :     0.040059
      py      :     0.070034
      dz2     :     0.004718  d :     0.027937
      dxz     :     0.000729
      dyz     :     0.007687
      dx2y2   :     0.006386
      dxy     :     0.008417


                      *****************************
                      * MAYER POPULATION ANALYSIS *
                      *****************************

  NA   - Mulliken gross atomic population
  ZA   - Total nuclear charge
  QA   - Mulliken gross atomic charge
  VA   - Mayer's total valence
  BVA  - Mayer's bonded valence
  FA   - Mayer's free valence

  ATOM       NA         ZA         QA         VA         BVA        FA
  0 C      6.1934     6.0000    -0.1934     3.8701     3.8701     0.0000
  1 C      6.1787     6.0000    -0.1787     3.8601     3.8601    -0.0000
  2 C      6.0813     6.0000    -0.0813     3.9291     3.9291     0.0000
  3 N      7.2931     7.0000    -0.2931     2.9608     2.9608     0.0000
  4 C      6.0813     6.0000    -0.0813     3.9291     3.9291    -0.0000
  5 C      6.1788     6.0000    -0.1788     3.8602     3.8602    -0.0000
  6 H      0.8791     1.0000     0.1209     1.0183     1.0183     0.0000
  7 H      0.9026     1.0000     0.0974     0.9839     0.9839     0.0000
  8 H      0.9390     1.0000     0.0610     0.9769     0.9769    -0.0000
  9 H      0.9389     1.0000     0.0611     0.9768     0.9768     0.0000
 10 H      0.9027     1.0000     0.0973     0.9839     0.9839     0.0000
 11 H      0.9111     1.0000     0.0889     0.9912     0.9912    -0.0000
 12 H      0.8999     1.0000     0.1001     0.9825     0.9825     0.0000
 13 H      0.8999     1.0000     0.1001     0.9825     0.9825     0.0000
 14 H      0.9111     1.0000     0.0889     0.9912     0.9912    -0.0000
 15 H      0.9145     1.0000     0.0855     0.9851     0.9851     0.0000
 16 H      0.8944     1.0000     0.1056     0.9777     0.9777     0.0000

  Mayer bond orders larger than 0.1
B(  0-C ,  1-C ) :   0.9536 B(  0-C ,  5-C ) :   0.9536 B(  0-C , 15-H ) :   0.9850 
B(  0-C , 16-H ) :   0.9934 B(  1-C ,  2-C ) :   0.9511 B(  1-C , 11-H ) :   0.9809 
B(  1-C , 12-H ) :   0.9928 B(  2-C ,  3-N ) :   0.9844 B(  2-C ,  7-H ) :   0.9926 
B(  2-C ,  8-H ) :   0.9810 B(  3-N ,  4-C ) :   0.9844 B(  3-N ,  6-H ) :   0.9938 
B(  4-C ,  5-C ) :   0.9511 B(  4-C ,  9-H ) :   0.9810 B(  4-C , 10-H ) :   0.9926 
B(  5-C , 13-H ) :   0.9928 B(  5-C , 14-H ) :   0.9809 

-------
TIMINGS
-------

Total SCF time: 0 days 0 hours 0 min 12 sec 

Total time                  ....      12.197 sec
Sum of individual times     ....      11.903 sec  ( 97.6%)

Fock matrix formation       ....      11.209 sec  ( 91.9%)
Diagonalization             ....       0.108 sec  (  0.9%)
Density matrix formation    ....       0.013 sec  (  0.1%)
Population analysis         ....       0.057 sec  (  0.5%)
Initial guess               ....       0.252 sec  (  2.1%)
Orbital Transformation      ....       0.000 sec  (  0.0%)
Orbital Orthonormalization  ....       0.000 sec  (  0.0%)
DIIS solution               ....       0.000 sec  (  0.0%)
SOSCF solution              ....       0.117 sec  (  1.0%)


           ************************************************************
           *        Program running with 8 parallel MPI-processes     *
           *              working on a common directory               *
           ************************************************************


------------------------------------------------------------------------------- 
                              ORCA-MATRIX DRIVEN CI                            
------------------------------------------------------------------------------- 


Wavefunction type
-----------------
Correlation treatment                      ...      CCSD     
Single excitations                         ... ON
Orbital optimization                       ... OFF
Calculation of Z vector                    ... OFF
Calculation of Brueckner orbitals          ... OFF
Perturbative triple excitations            ... ON
Calculation of F12 correction              ... OFF
Frozen core treatment                      ... chemical core (12 el)
Reference Wavefunction                     ... RHF
  Internal Orbitals:     6 ...   23 ( 18 MO's/ 36 electrons)
  Virtual  Orbitals:    24 ...  333 (310 MO's              )
Number of AO's                             ...    334
Number of electrons                        ...     48
Number of correlated electrons             ...     36

Algorithmic settings
--------------------
Integral transformation                    ... All integrals via the RI transformation
K(C) Formation                             ... RI-DLPNO
   PNO-Integral Storage                    ... ON DISK
   PNO occupation number cut-off           ... 1.000e-07
   Singles PNO occupation number cut-off   ... 3.000e-09
   PNO Mulliken prescreening cut-off       ... 1.000e-03
   Domain cut-off (Mulliken population)    ... 1.000e-03
   PNO Normalization                       ...    1
Maximum number of iterations               ...        50
Convergence tolerance (max. residuum)      ... 1.000e-05
Level shift for amplitude update           ... 2.000e-01
Maximum number of DIIS vectors             ...         7
DIIS turned on at iteration                ...         0
Damping before turning on DIIS             ...     0.500
Damping after turning on DIIS              ...     0.000
Pair specific amplitude update             ... OFF
Natural orbital iterations                 ... OFF
Perturbative natural orbital generation    ... OFF
Printlevel                                 ... 2

Singles Fock matrix elements calculated using PNOs.

Memory handling:
----------------
Maximum memory for working arrays          ...   8000 MB
Data storage in matrix containers          ... UNCOMPRESSED
Data type for integral storage             ... DOUBLE
In-Core Storage of quantities:
   Amplitudes+Sigma Vector      ... NO
   J+K operators                ... NO
   DIIS vectors                 ... NO
   3-external integrals         ... NO
   4-external integrals         ... NO

Localization treatment:
-----------------------
Localization option                        ...    6
Localization threshhold                    ... -1.0e+00
Using relative localization threshhold     ... 1.0e-08
Neglect threshold for strong pairs         ... 1.000e-05 Eh
Prescreening threshold for very weak pairs ... 1.000e-07 Eh

Initializing the integral package          ... done
Localizing the valence orbitals
------------------------------------------------------------------------------
                           ORCA ORBITAL LOCALIZATION
------------------------------------------------------------------------------

Input orbitals are from                  ... piperidine_eq.proc0.gbw
Output orbitals are to                   ... piperidine_eq.proc0.loc
Max. number of iterations                ... 128
Localizations seeded randomly            ... off
Convergence tolerance                    ... 1.000e-06
Using relative localization threshhold   ... 1.000e-08
Treshold for strong local MOs            ... 9.500e-01
Treshold for bond MOs                    ... 8.500e-01
Operator                                 ... 0
Orbital range for localization           ... 6 to 23
Localization criterion                   ... FOSTER-BOYS (AUGMENTED HESSIAN)
Doing the dipole integrals     ... o.k.
Initial value of the localization sum :   134.400553
ITERATION   0 : L=  189.7669628199 DL=  5.54e+01 (AVERGE_DL)=    0.6015579441 
ITERATION   1 : L=  194.4535743069 DL=  4.69e+00 (AVERGE_DL)=    0.1750184208 
ITERATION   2 : L=  194.5449572511 DL=  9.14e-02 (AVERGE_DL)=    0.0244391928 
ITERATION   3 : L=  194.5449937613 DL=  3.65e-05 (AVERGE_DL)=    0.0004884962 
ITERATION   4 : L=  194.5449938673 DL=  1.06e-07 (AVERGE_DL)=    0.0000263209 
LOCALIZATION SUM CONVERGED

------------------------------------------------------
AUGMENTED HESSIAN OPTIMIZATION OF FOSTER-BOYS ORBITALS
------------------------------------------------------

Spin operator:           0
Orbital window:          6 to 23
Number of iterations:    128
Gradient tolerance:      1.000e-06
Number of pairs:         153
Davidson threshold:      2000
Diagonalization method:  LAPACK
Iter:    0   L: 194.5449938673   Grad. norm: 6.877340e-04
   *** Likely close to a maximum now. ***
       Augmented Hessian eigenvalues:  6.97e-09 -6.32e+00 -6.55e+00 -9.40e+00 ... 
Iter:    1   L: 194.5449938708   Grad. norm: 1.455630e-09
LOCALIZATION HAS CONVERGED.

Eigenvalues of the Hessian:
  0 -6.323e+00
  1 -6.552e+00
  2 -9.395e+00
  3 -1.220e+01
  4 -1.579e+01
  5 -1.627e+01
  6 -1.798e+01
  7 -1.800e+01
  8 -1.807e+01
  9 -1.828e+01
    ...


------------------------------------------------------------------------------- 
                    LOCALIZED MOLECULAR ORBITAL COMPOSITIONS                   
------------------------------------------------------------------------------- 

The Mulliken populations for each LMO on each atom are computed
The LMO`s will be ordered according to atom index and type
  (A) Strongly localized MO`s have populations of >=0.950 on one atom
  (B) Two center bond orbitals have populations of >=0.850 on two atoms
  (C) Other MO`s are considered to be `delocalized`

FOUND  -   1 strongly local MO`s
       -  17 two center bond MO`s
       -   0 significantly delocalized MO`s

Rather strongly localized orbitals:
MO   6:   3N  -   0.971319
Bond-like localized orbitals:
MO  23:  16H  -   0.465814  and   0C  -   0.567115
MO  22:  15H  -   0.475617  and   0C  -   0.553268
MO  21:  14H  -   0.471202  and   5C  -   0.554102
MO  20:  13H  -   0.467378  and   5C  -   0.565204
MO  19:  12H  -   0.467390  and   1C  -   0.565195
MO  18:  11H  -   0.471189  and   1C  -   0.554107
MO  17:  10H  -   0.467757  and   4C  -   0.563785
MO  16:   9H  -   0.491586  and   4C  -   0.551243
MO  15:   8H  -   0.491594  and   2C  -   0.551235
MO  14:   7H  -   0.467730  and   2C  -   0.563813
MO  13:   6H  -   0.450420  and   3N  -   0.558593
MO  12:   5C  -   0.510810  and   4C  -   0.520828
MO  11:   5C  -   0.515438  and   0C  -   0.515370
MO  10:   4C  -   0.421511  and   3N  -   0.596799
MO   9:   3N  -   0.596818  and   2C  -   0.421493
MO   8:   2C  -   0.520838  and   1C  -   0.510815
MO   7:   1C  -   0.515433  and   0C  -   0.515377
Localized MO's were stored in: piperidine_eq.proc0.loc

Localizing the core orbitals
------------------------------------------------------------------------------
                           ORCA ORBITAL LOCALIZATION
------------------------------------------------------------------------------

Input orbitals are from                  ... piperidine_eq.proc0.loc
Output orbitals are to                   ... piperidine_eq.proc0.loc
Max. number of iterations                ... 128
Localizations seeded randomly            ... off
Convergence tolerance                    ... 1.000e-06
Using relative localization threshhold   ... 1.000e-08
Treshold for strong local MOs            ... 9.500e-01
Treshold for bond MOs                    ... 8.500e-01
Operator                                 ... 0
Orbital range for localization           ... 0 to 5
Localization criterion                   ... FOSTER-BOYS (AUGMENTED HESSIAN)
Doing the dipole integrals     ... o.k.
Initial value of the localization sum :    45.422828
ITERATION   0 : L=   45.4228288435 DL=  1.08e-06 (AVERGE_DL)=    0.0002687366 
ITERATION   1 : L=   45.4228288435 DL=  0.00e+00 (AVERGE_DL)=    0.0000000000 
LOCALIZATION SUM CONVERGED

------------------------------------------------------
AUGMENTED HESSIAN OPTIMIZATION OF FOSTER-BOYS ORBITALS
------------------------------------------------------

Spin operator:           0
Orbital window:          0 to 5
Number of iterations:    128
Gradient tolerance:      1.000e-06
Number of pairs:         15
Davidson threshold:      2000
Diagonalization method:  LAPACK
Iter:    0   L: 45.4228288435   Grad. norm: 9.772567e-07
   *** Likely close to a maximum now. ***
       Augmented Hessian eigenvalues:  1.21e-14 -3.07e+01 -3.07e+01 -3.36e+01 ... 
Iter:    1   L: 45.4228288435   Grad. norm: 7.242913e-21
LOCALIZATION HAS CONVERGED.

Eigenvalues of the Hessian:
  0 -3.068e+01
  1 -3.068e+01
  2 -3.357e+01
  3 -3.357e+01
  4 -3.377e+01
  5 -3.377e+01
  6 -8.492e+01
  7 -8.590e+01
  8 -8.593e+01
  9 -9.119e+01
    ...


------------------------------------------------------------------------------- 
                    LOCALIZED MOLECULAR ORBITAL COMPOSITIONS                   
------------------------------------------------------------------------------- 

The Mulliken populations for each LMO on each atom are computed
The LMO`s will be ordered according to atom index and type
  (A) Strongly localized MO`s have populations of >=0.950 on one atom
  (B) Two center bond orbitals have populations of >=0.850 on two atoms
  (C) Other MO`s are considered to be `delocalized`

FOUND  -   6 strongly local MO`s
       -   0 two center bond MO`s
       -   0 significantly delocalized MO`s

Rather strongly localized orbitals:
MO   5:   5C  -   1.001487
MO   4:   4C  -   1.001288
MO   3:   3N  -   1.000112
MO   2:   2C  -   1.001289
MO   1:   1C  -   1.001488
MO   0:   0C  -   1.001487
Localized MO's were stored in: piperidine_eq.proc0.loc

Warning: internal orbitals are localized - no re-canonicalization of internal orbitals

--------------------------
CLOSED-SHELL FOCK OPERATOR
--------------------------

RI-JK section for the Fock operator:
  RHF full Fock operator         ... done
  RHF frozen core Fock operator  ... done
Time needed for Fock operator              ...            1.874 sec
Reference energy                           ...   -250.275421487

--------------
DLPNO SETTINGS (2015 fully linear scaling implementation)
--------------

TCutMKN:           1.000e-03
TCutPAO:           1.000e-03
TCutPNO:           1.000e-07
TCutPNOSingles:    3.000e-09
TCutEN:            9.700e-01
TCutPAOExt:        1.000e-01
TCutPairs:         1.000e-05
TCutPre:           1.000e-07
TCutOSV:           1.000e-06
TCutDOij:          1.000e-05
TCutDO:            5.000e-03
TCutC:             1.000e-04
TCutCPAO:          1.000e-03
TCutCMO:           1.000e-03
TScaleDOMP2PreScr: 2.000e+00
TScaleMKNMP2PreScr:1.000e+01
TScalePNOMP2PreScr:1.000e+00
PAO overlap thresh 1.000e-08
Using PNOs for Singles Fock computation
Use new domains
Use fully linear algorithm
TCutTNO:           1.000e-09
TCutMP2Pairs:      1.000e-06
TCutDOStrong:      2.000e-03
TCutMKNStrong:     1.000e-02
TCutMKNWeak:       1.000e-01
TCutDOWeak:        4.000e-03
NTCutTNO:          1

--------------------------
Calculating differential overlap integrals ... ok
--------------------------
ELECTRON PAIR PRESCREENING
--------------------------

Dipole-based pair screening          .... used

   TCutDOij = 1.000000e-05
   TCutPre  = 1.000000e-07
   .... Finished loop over pairs
Total time spent in the prescreening                  ...     0.000 sec
sum of pair energies estimated for screened out pairs ...       0.000000000000 Eh
Thresholds for map construction and integral transformation for crude MP2:
   TCutMKN                    ...     1.0e-02
   TCutDO                     ...     1.0e-02
   TCutPairs                  ...     1.0e-05
   TCutPNO_CrudeMP2           ...     1.0e-07
   TCutPNOSingles_CrudeMP2    ...     3.0e-09
--------------------------------
LOCAL RI TRANSFORMATION (IAVPAO)
--------------------------------

Orbital window:       6 to 23
Number of PAOs:     334
Basis functions:    334 (126 shells)
Aux. functions:     816 (248 shells)

Processing maps (0.0 sec)
Average map sizes:
   Aux shells -> MOs              18.0
   Aux shells -> PAOs            334.0
   MOs        -> AO shells       126.0
   PAOs       -> AO shells       126.0

Calculating integrals (0.6 sec, 37.438 MB)
Sorting integrals (0.1 sec, 37.428 MB)
Total time for the integral transformation: 0.7 sec
--------------------------------
INITIAL GUESS AND PNO GENERATION
--------------------------------

PNO truncation parameters                   .... 
    PAOOverlapThresh   =        1.000e-08

    TCutPairs          =        1.000e-05
    TCutPNO            =        1.000e-07
    TCutPNOSingles     =        3.000e-09
    TCutMP2Pairs       =        1.000e-06
    TCutMKN            =        1.000e-02
    TCutDO             =        1.000e-02

Pair selection                          .... not used
Type of local MP2 treatment                 .... semi-local MP2
Strategy for PNO selection                  .... occupation number selection
Pair density normalization                  .... MP2 norm
Spin component scaling                      .... not used

   .... Finished loop over pairs
Making pair pair interaction lists          ... done

                       ===========================
                        171 OF  171 PAIRS ARE KEPT CCSD PAIRS
                          0 OF  171 PAIRS ARE KEPT MP2 PAIRS FOR (T)
                          0 OF  171 PAIRS ARE SKIPPED
                       ===========================

Total time spent in the initial guess                 ...     1.601 sec
SL-MP2 correlation energy (all non-screened pairs)    ...      -1.046213550656 Eh

Initial PNO correlation energy                        ...      -1.045088327430 Eh
sum of pair energies prescreened and skipped MP2 pairs...       0.000000000000 Eh
sum of pair energies of crude MP2 skipped pairs only  ...       0.000000000000 Eh
sum of MP2 pair energies for pairs that were not kept ...       0.000000000000 Eh
sum of PNO error estimates for the kept pairs         ...      -0.001125223226 Eh
                                                          --------------------
sum of all corrections                                         -0.001125223226
Initial total correlation energy                               -1.046213550656
Thresholds for map construction and integral transformation for fine MP2 and CCSD(T) calculation:
   TCutMKN   ...     1.0e-03
   TCutDO    ...     5.0e-03
   TCutPairs ...     1.0e-05
   TCutCMO   ...     1.0e-03
   TCutCPAO  ...     1.0e-03

Thresholds for map construction and integral transformation for strong Triples:
   TCutMKN   ...     1.0e-02
   TCutDO    ...     1.0e-02
   TCutCMO   ...     1.0e-03
   TCutCPAO  ...     1.0e-03

Thresholds for map construction and integral transformation for weak Triples:
   TCutMKN   ...     1.0e-01
   TCutDO    ...     2.0e-02
   TCutCMO   ...     1.0e-03
   TCutCPAO  ...     1.0e-03

--------------------------------
LOCAL RI TRANSFORMATION (IAVPAO)
--------------------------------

Orbital window:       6 to 23
Number of PAOs:     334
Basis functions:    334 (126 shells)
Aux. functions:     816 (248 shells)

Processing maps (0.0 sec)
Average map sizes:
   Aux shells -> MOs              18.0
   Aux shells -> PAOs            334.0
   MOs        -> AO shells       126.0
   PAOs       -> AO shells       126.0

Calculating integrals (0.6 sec, 37.438 MB)
Sorting integrals (0.1 sec, 37.428 MB)
Total time for the integral transformation: 0.7 sec
--------------------------------
INITIAL GUESS AND PNO GENERATION
--------------------------------

PNO truncation parameters                   .... 
    ScaleTCutPNO       =        1.000e-02
    PAOOverlapThresh   =        1.000e-08

    TCutPairs          =        1.000e-05
    TCutPNO            =        1.000e-07
    TCutPNOSingles     =        3.000e-09
    TCutMP2Pairs       =        1.000e-06
    TCutMKN            =        1.000e-03
    TCutDO             =        5.000e-03

Pair selection                          .... not used
Type of local MP2 treatment                 .... full local PMP2
Strategy for PNO selection                  .... occupation number selection
Pair density normalization                  .... MP2 norm
Spin component scaling                      .... not used

PASS-1: Formation of initial guess LMP2 amplitudes
Initial amplitudes guess done. Entering LMP2 iteration loop:
   Max. no of iterations          ...  50
   Energy convergence tolerance   ...    1.0e-07
   Residual convergence tolerance ...    5.0e-07
   Fock matrix cutoff             ...    1.0e-05 Eh
   DIIS convergence acceleration parameters:
        Max # vectors in DIIS     ... 7
        Start iteration of DIIS   ... 0
        Levelshift                ... 2.000e-01
        Damping factor 1          ... 5.000e-01
        Damping factor 2          ... 1.000e+00
   L-MP2 PNO cut-off              ...   1.0e-09
   L-MP2 PNO cut-off (core)       ...   1.0e-11
                           *** Turning on DIIS ***
LMP2-Iter=   0:  ELMP2= -1.064648995864  DE=   1.8e-02 RMAX=   3.8e-03
LMP2-Iter=   1:  ELMP2= -1.074172785547  DE=   9.5e-03 RMAX=   1.4e-03
LMP2-Iter=   2:  ELMP2= -1.075584372702  DE=   1.4e-03 RMAX=   2.5e-04
LMP2-Iter=   3:  ELMP2= -1.075709425585  DE=   1.3e-04 RMAX=   7.8e-05
LMP2-Iter=   4:  ELMP2= -1.075713049822  DE=   3.6e-06 RMAX=   1.1e-05
LMP2-Iter=   5:  ELMP2= -1.075712037463  DE=   1.0e-06 RMAX=   4.9e-06
LMP2-Iter=   6:  ELMP2= -1.075711936999  DE=   1.0e-07 RMAX=   7.6e-07
LMP2-Iter=   7:  ELMP2= -1.075711937107  DE=   1.1e-10 RMAX=   2.7e-07
LMP2-Iter=   8:  ELMP2= -1.075711941217  DE=   4.1e-09 RMAX=   3.2e-08 => CONVERGED
PASS-2: Formation of Pair natural orbitals
   .... Finished loop over pairs

 PNO Occupation Number Statistics: 
  | Av. % of trace(Dij) retained        ...  99.677093216292
  | sigma^2 in % of trace(Dij) retained ...   1.23e-01
  | Av. % of trace(Di) retained         ...  99.999712943912
  | sigma^2 in % of trace(Di) retained  ...   4.21e-09
 Distributions of % trace(Dij) recovered:
  |       >= 99.9  ...    56 ( 32.7 % of all pairs)
  |   [90.0, 99.0) ...    11 (  6.4 % of all pairs)
  |   [99.0, 99.9) ...   104 ( 60.8 % of all pairs)
 Distributions of % trace(Di) recovered :
  |       >= 99.9  ...    18 (100.0 % of all I-pairs )

Making pair pair interaction lists          ... done

                       ===========================
                        171 OF  171 PAIRS ARE KEPT
                       ===========================

Total time spent in the initial guess                 ...    31.689 sec
L-MP2 correlation energy (all non-screened pairs)     ...      -1.075711941217 Eh
L-MP2 PNO error correction                            ...      -0.000023537600 Eh
                                                          --------------------
Initial total L-MP2 energy (non-screened pairs)       ...      -1.075735478817 Eh

Initial PNO correlation energy                        ...      -1.074659009342 Eh
sum of pair energies estimated for screened out pairs ...       0.000000000000 Eh
sum of MP2 pair energies for pairs that were not kept ...       0.000000000000 Eh
sum of PNO error estimates for the kept pairs         ...      -0.001076469475 Eh
                                                          --------------------
sum of all corrections                                         -0.001076469475
Initial total correlation energy                               -1.075735478817
Thresholds for map construction and integral transformation for fine MP2 and CCSD(T) calculation:
   TCutMKN   ...     1.0e-03
   TCutDO    ...     5.0e-03
   TCutPairs ...     1.0e-05
   TCutCMO   ...     1.0e-03
   TCutCPAO  ...     1.0e-03

Time for aux screen maps:            0.008
Time for maps after fine MP2:            0.023
-----------------------------
LOCAL RI TRANSFORMATION (IJV)
-----------------------------

Orbital window:       6 to 23
Basis functions:    334 (126 shells)
Aux. functions:     816 (248 shells)

Processing maps (0.0 sec)
Average map sizes:
   Aux shells -> MOs(i)           18.0
   Aux shells -> MOs(j)           18.0
   MOs        -> AO shells       126.0

Calculating integrals (0.8 sec, 2.026 MB)
Sorting integrals (0.0 sec, 2.017 MB)
Total time for the integral transformation: 0.8 sec
--------------------------------
LOCAL RI TRANSFORMATION (VABPAO)
--------------------------------

Number of PAOs:     334
Basis functions:    334 (126 shells)
Aux. functions:     816 (248 shells)

Processing maps (0.0 sec)
Average map sizes:
   Aux shells -> PAOs            334.0
   PAOs       -> AO shells       126.0

Calculating integrals (2.5 sec, 1309.868 MB)
Finished


-------------------------------------
Pair Pair Term precalculation with     
RI-(ij|mn) and (im|jn) transformation  
ON THE FLY                             
-------------------------------------

   IBatch   1 (of   2)              ... done (   51.296 sec)
   IBatch   2 (of   2)              ... done (    1.706 sec)
Total EXT                           ...          53.002 sec

---------------------
RI-PNO TRANSFORMATION
---------------------

Total Number of PNOs                   ...  7884
Average number of PNOs per pair        ...    46
Maximal number of PNOs per pair        ...    71
   #pairs with  1 -  5 PNOs   :    0
   #pairs with  6 - 10 PNOs   :    0
   #pairs with 11 - 15 PNOs   :    0
   #pairs with 16 - 20 PNOs   :   10
   #pairs with 21 - 25 PNOs   :    6
   #pairs with 26 - 30 PNOs   :   29
   #pairs with 31 - 35 PNOs   :    8
   #pairs with 36 - 40 PNOs   :   10
   #pairs with 41 - 45 PNOs   :    8
   #pairs with 46 - 50 PNOs   :   27
   #pairs with 51 - 55 PNOs   :   26
   #pairs with 56 - 60 PNOs   :    4
   #pairs with 61 - 65 PNOs   :   15
   #pairs with 66 - 70 PNOs   :   25
   #pairs with 71 - 75 PNOs   :    3

Generation of (ij|ab)[P] integrals            ... on
Generation of (ia|bc)[P],(ja|bc)[P] integrals ... on
Storage of 3 and 4 external integrals         ... on
Generation of ALL (ka|bc)[P] integrals        ... on
Keep RI integrals in memory                   ... off

Ibatch:  1 (of  1)
Starting 2-4 index PNO integral generation ... done

Timings:
Total PNO integral transformation time     ...         23.753 sec
Size of the 3-external file                ...       174 MB
Size of the 4-external file                ...      1290 MB
Size of the IKJL file                      ...         0 MB
Size of the all 3-external file            ...      1569 MB
Size of the 1-external file                ...         3 MB

Making pair/pair overlap matrices          ... done (    2.043 sec)
Size of the pair overlap file              ... 350 MB
Redoing the guess amplitudes               ... done (    0.003 sec)

-------------------------
FINAL STARTUP INFORMATION
-------------------------

E(0)                                       ...   -250.275421487
E(L-MP2)                                   ...     -1.075735479
E(L-MP2) including corrections             ...     -1.075735479
Initial E(tot)                             ...   -251.351156966
<T|T>                                      ...      0.302383949
Number of pairs included                   ... 171
Total number of pairs                      ... 171

------------------------------------------------
                  RHF COUPLED CLUSTER ITERATIONS
------------------------------------------------

Number of PNO amplitudes to be optimized   ...       405454
Number of non-PNO amplitudes               ...     16433100
Untruncated number of regular amplitudes   ...     16433100

Iter       E(tot)           E(Corr)          Delta-E          Residual     Time
  0   -251.321674339     -1.045176382      0.030559096      0.011555610   11.85
                           *** Turning on DIIS ***
  1   -251.371865173     -1.095367216     -0.050190834      0.004454992   17.95
  2   -251.399908643     -1.123410686     -0.028043470      0.001357502   11.15
  3   -251.404979507     -1.128481550     -0.005070864      0.000530590   11.35
  4   -251.405941730     -1.129443774     -0.000962224      0.000323308   11.84
  5   -251.406104895     -1.129606939     -0.000163165      0.000150521   11.67
  6   -251.406139717     -1.129641760     -0.000034821      0.000084299   10.26
  7   -251.406144915     -1.129646958     -0.000005198      0.000037862   10.01
  8   -251.406146237     -1.129648281     -0.000001322      0.000015345   10.55
  9   -251.406146001     -1.129648044      0.000000236      0.000003974   10.87
               --- The Coupled-Cluster iterations have converged ---

----------------------
COUPLED CLUSTER ENERGY
----------------------

E(0)                                       ...   -250.275421487
E(CORR)(strong-pairs)                      ...     -1.129648044
E(CORR)(weak-pairs)                        ...     -0.001076469
E(CORR)(corrected)                         ...     -1.130724514
E(TOT)                                     ...   -251.406146001
Singles Norm <S|S>**1/2                    ...      0.051567281  
T1 diagnostic                              ...      0.008594547  

------------------
LARGEST AMPLITUDES
------------------
  11-> 34  11-> 34       0.030194
   7-> 34   7-> 34       0.030167
  15-> 24  15-> 24       0.029083
  16-> 24  16-> 24       0.029082
  22-> 24  22-> 24       0.028292
  21-> 24  21-> 24       0.027850
  18-> 24  18-> 24       0.027839
   8-> 34   8-> 34       0.027569
  12-> 34  12-> 34       0.027543
  19-> 24  19-> 24       0.027347
  20-> 24  20-> 24       0.027346
  23-> 24  23-> 24       0.027046
  17-> 24  17-> 24       0.026557
  14-> 24  14-> 24       0.026556
  13-> 29  13-> 29       0.025120
  13-> 24  13-> 24       0.025077


-------------------------------------------
DLPNO BASED TRIPLES CORRECTION
-------------------------------------------

Singles multiplier          ...  1.000000
TCutTNO                     ... 1.000e-09
TCutMP2Pairs                ... 1.000e-06
TCutDOStrong                ... 1.000e-02
TCutMKNStrong               ... 1.000e-02
TCutDOWeak                  ... 2.000e-02
TCutMKNWeak                 ... 1.000e-01

Fragment selection                          .... not used
Number of Triples that are to be computed   ...      1122

 . . . . . . . . .
10% done  
20% done  
30% done  
40% done  
50% done  
60% done  
70% done  
80% done  
90% done               (    127.060 sec)
Triples timings:
Total time for T0               ...   135.159 sec
Total time for Iterative (T)    ...     0.000 sec
Total time of overall (T)       ...   140.044 sec

Triples List generation         ...     0.000 sec
TNO generation                  ...     8.091 sec
Pair density generation         ...     0.004 sec
Look up tables                  ...     0.000 sec
Generating 3-index integrals    ...    81.636 sec
  Make 4-ind.int. from 3-ind.int...    15.993 sec
  Projecting amplitudes (D + S) ...     9.028 sec
  Downprojecting integrals      ...     0.002 sec
  Energy contr. (sum over a,b,c)...     5.277 sec
Fitting ET(->0)                 ...     0.000 sec

Everything after 3-index        ...    45.425 sec

Timing details:
 TNO integrals                  ...    96.356 sec
   Reading 3-index integrals    ...     0.242 sec
   Sorting integrals            ...    13.709 sec
       Sorting integrals 1      ...     0.001 sec
       Sorting integrals 2      ...     6.299 sec
       Sorting integrals 3      ...     0.379 sec
       Sorting integrals 4      ...     0.017 sec
       Sorting integrals 5      ...     0.110 sec
       Sorting integrals 6      ...     6.903 sec
   Calculating local VM**-1/2   ...     0.334 sec
   Orthogonal. integrals        ...     0.606 sec
   Multipl. 3-index integrals   ...    81.465 sec
   All concerning IRIab (w/TNO) ...     7.774 sec

 Calculate W0/W1                ...    15.120 sec
 W 3-ext contribution           ...     8.472 sec
 W 3-int contribution           ...     2.122 sec
 Sorting W                      ...     4.320 sec

 V exchange contribution        ...     1.827 sec

 Timings for Triples without generation
     of 3-index integrals       ...    45.424 sec
       0 weak pairs             ...    45.424 sec
       1 weak pair              ...     0.000 sec
       2 weak pairs             ...     0.000 sec
       3 weak pairs             ...     0.000 sec
  Extra time for extrapolation  ...     0.000 sec

Number of Triples   (0, 1, 2, 3 weak pairs; overall):   1122       0       0       0  (  1122)
Number of Atoms     (0, 1, 2, 3 weak pairs; overall):   16.6     0.0     0.0     0.0  (    17)
Number of PAOs      (0, 1, 2, 3 weak pairs; overall):  328.9     0.0     0.0     0.0  (   334)
Number of AuxFcns   (0, 1, 2, 3 weak pairs; overall):  400.0     0.0     0.0     0.0  (   816)
Number of TNOs      (0, 1, 2, 3 weak pairs         ):  109.8     0.0     0.0     0.0
Aver. Number of NTNO, Atoms, PAOs, AuxFcns / Triples:   1122   109.8    16.6   328.9   400.0

Triples Correction (T)                     ...     -0.044916686
Final correlation energy                   ...     -1.175641200
E(CCSD)                                    ...   -251.406146001
E(CCSD(T))                                 ...   -251.451062688


Maximum memory used throughout the entire calculation: 7875.2 MB


------------------------------------------------------------------------------- 
                                     TIMINGS                                   
------------------------------------------------------------------------------- 


Total execution time                   ...      391.048 sec

Localization of occupied MO's          ...        0.512 sec (  0.1%)
Fock Matrix Formation                  ...        1.874 sec (  0.5%)
Global overlap, Fock, MKN matrices     ...        0.193 sec (  0.0%)
Differential overlap integrals         ...        0.106 sec (  0.0%)
Organizing maps                        ...        0.044 sec (  0.0%)
RI 3-index integral generations        ...        4.718 sec (  1.2%)
RI-PNO integral transformation         ...       82.947 sec ( 21.2%)
Initial Guess                          ...       33.336 sec (  8.5%)
DIIS Solver                            ...        1.554 sec (  0.4%)
State Vector Update                    ...        0.027 sec (  0.0%)
Sigma-vector construction              ...      117.254 sec ( 30.0%)
  <D|H|D>(0-ext)                       ...        2.232 sec (  1.9% of sigma)
  <D|H|D>(2-ext Fock)                  ...        0.012 sec (  0.0% of sigma)
  <D|H|D>(2-ext)                       ...       11.183 sec (  9.5% of sigma)
  <D|H|D>(4-ext)                       ...       13.622 sec ( 11.6% of sigma)
  <D|H|D>(4-ext-corr)                  ...       60.190 sec ( 51.3% of sigma)
  CCSD doubles correction              ...        0.152 sec (  0.1% of sigma)
  <S|H|S>                              ...        0.795 sec (  0.7% of sigma)
  <S|H|D>(1-ext)                       ...        0.293 sec (  0.3% of sigma)
  <D|H|S>(1-ext)                       ...        0.009 sec (  0.0% of sigma)
  <S|H|D>(3-ext)                       ...        0.461 sec (  0.4% of sigma)
  Fock-dressing                        ...       19.411 sec ( 16.6% of sigma)
  Singles amplitudes                   ...        0.388 sec (  0.3% of sigma)
  (ik|jl)-dressing                     ...        1.762 sec (  1.5% of sigma)
  (ij|ab),(ia|jb)-dressing             ...        2.233 sec (  1.9% of sigma)
  Pair energies                        ...        0.007 sec (  0.0% of sigma)
Total Time for computing (T)           ...      140.083 sec ( 35.8% of ALL)


-------------------------   --------------------
FINAL SINGLE POINT ENERGY      -251.451062687594
-------------------------   --------------------


                            ***************************************
                            *     ORCA property calculations      *
                            ***************************************

                                    ---------------------
                                    Active property flags
                                    ---------------------
   (+) Dipole Moment


------------------------------------------------------------------------------
                       ORCA ELECTRIC PROPERTIES CALCULATION
------------------------------------------------------------------------------

Dipole Moment Calculation                       ... on
Quadrupole Moment Calculation                   ... off
Polarizability Calculation                      ... off
GBWName                                         ... piperidine_eq.gbw
Electron density file                           ... piperidine_eq.scfp.tmp
The origin for moment calculation is the CENTER OF MASS  = (-0.001185, -0.029602 -0.023027)

-------------
DIPOLE MOMENT
-------------
                                X             Y             Z
Electronic contribution:     -0.06044      -1.50395      -0.77080
Nuclear contribution   :      0.05698       1.42081       1.10521
                        -----------------------------------------
Total Dipole Moment    :     -0.00346      -0.08314       0.33440
                        -----------------------------------------
Magnitude (a.u.)       :      0.34460
Magnitude (Debye)      :      0.87591



--------------------
Rotational spectrum 
--------------------
 
Rotational constants in cm-1:     0.149836     0.147251     0.083999 
Rotational constants in MHz :  4491.959580  4414.468501  2518.239865 

 Dipole components along the rotational axes: 
x,y,z [a.u.] :    -0.078586    -0.000013     0.335522 
x,y,z [Debye]:    -0.199750    -0.000033     0.852829 

 

Timings for individual modules:

Sum of individual times         ...      404.518 sec (=   6.742 min)
GTO integral calculation        ...        0.821 sec (=   0.014 min)   0.2 %
SCF iterations                  ...       12.335 sec (=   0.206 min)   3.0 %
MDCI module                     ...      391.363 sec (=   6.523 min)  96.7 %
                             ****ORCA TERMINATED NORMALLY****
TOTAL RUN TIME: 0 days 0 hours 6 minutes 58 seconds 226 msec
piperidine_eq.gbw -> /home1/pantazis/klk/xyz/Nitrogen_compounds/piperidine_eq.gbw
piperidine_eq.job -> /home1/pantazis/klk/xyz/Nitrogen_compounds/piperidine_eq.job
piperidine_eq.loc -> /home1/pantazis/klk/xyz/Nitrogen_compounds/piperidine_eq.loc
piperidine_eq.nodes -> /home1/pantazis/klk/xyz/Nitrogen_compounds/piperidine_eq.nodes
piperidine_eq.prop -> /home1/pantazis/klk/xyz/Nitrogen_compounds/piperidine_eq.prop
piperidine_eq_property.txt -> /home1/pantazis/klk/xyz/Nitrogen_compounds/piperidine_eq_property.txt
piperidine_eq.xyz -> /home1/pantazis/klk/xyz/Nitrogen_compounds/piperidine_eq.xyz
cp: cannot stat piperidine_eq.asa.inp: No such file or directory
