! Job execution by suborca V 6.07 on ZEUS !
Job started from zeus1, running /scratch/pantazis/piperidine_ax__jzx1VH/orca/orca copied from /opt/orca on zeussn129 in /scratch/pantazis/piperidine_ax__jzx1VH
Job execution start: Fri Jun 28 00:58:17 CEST 2019
Shared library path: /scratch/pantazis/piperidine_ax__jzx1VH/orca:/opt/openmpi_1.10.2/lib:/opt/intel/mkl/lib/intel64:/opt/intel/lib/intel64:
PBS Job ID is: 158277.icqc
izeussn129
izeussn129
izeussn129
izeussn129
izeussn129
izeussn129
izeussn129
izeussn129

                                 *****************
                                 * O   R   C   A *
                                 *****************

           --- An Ab Initio, DFT and Semiempirical electronic structure package ---

                  #######################################################
                  #                        -***-                        #
                  #          Department of theory and spectroscopy      #
                  #               Directorship: Frank Neese             #
                  #        Max Planck Institute fuer Kohlenforschung    #
                  #                Kaiser Wilhelm Platz 1               #
                  #                 D-45470 Muelheim/Ruhr               #
                  #                      Germany                        #
                  #                                                     #
                  #                  All rights reserved                #
                  #                        -***-                        #
                  #######################################################


                         Program Version 4.1.x  -  STABLE  -
                                (SVN: $Rev: 14094$)
                ($Date: 2019-06-14 15:01:15 +0200 (Fri, 14 Jun 2019) $)

                         (BUILD: $Sun Jun 23 06:18:31 CEST 2019$)


 With contributions from (in alphabetic order):
   Daniel Aravena         : Magnetic Properties
   Michael Atanasov       : Ab Initio Ligand Field Theory
   Alexander A. Auer      : GIAO ZORA
   Ute Becker             : Parallelization
   Giovanni Bistoni       : ED, Open-shell LED
   Martin Brehm           : Molecular dynamics
   Dmytro Bykov           : SCF Hessian
   Vijay G. Chilkuri      : MRCI spin determinant printing
   Dipayan Datta          : RHF DLPNO-CCSD density
   Achintya Kumar Dutta   : EOM-CC, STEOM-CC
   Dmitry Ganyushin       : Spin-Orbit,Spin-Spin,Magnetic field MRCI
   Miquel Garcia          : C-PCM Hessian
   Yang Guo               : DLPNO-NEVPT2, CIM, IAO-localization
   Andreas Hansen         : Spin unrestricted coupled pair/coupled cluster methods
   Benjamin Helmich-Paris : CASSCF linear response (MC-RPA)
   Lee Huntington         : MR-EOM, pCC
   Robert Izsak           : Overlap fitted RIJCOSX, COSX-SCS-MP3, EOM
   Christian Kollmar      : KDIIS, OOCD, Brueckner-CCSD(T), CCSD density
   Simone Kossmann        : Meta GGA functionals, TD-DFT gradient, OOMP2, MP2 Hessian
   Martin Krupicka        : AUTO-CI
   Lucas Lang             : DCDCAS
   Dagmar Lenk            : GEPOL surface, SMD
   Dimitrios Liakos       : Extrapolation schemes; parallel MDCI
   Dimitrios Manganas     : ROCIS; embedding schemes
   Dimitrios Pantazis     : SARC Basis sets
   Taras Petrenko         : DFT Hessian,TD-DFT gradient, ASA, ECA, R-Raman, ABS, FL, XAS/XES, NRVS
   Peter Pinski           : DLPNO-MP2, DLPNO-MP2 Gradient
   Christoph Reimann      : Effective Core Potentials
   Marius Retegan         : Local ZFS, SOC
   Christoph Riplinger    : Optimizer, TS searches, QM/MM, DLPNO-CCSD(T), (RO)-DLPNO pert. Triples
   Tobias Risthaus        : Range-separated hybrids, TD-DFT gradient, RPA, STAB
   Michael Roemelt        : Restricted open shell CIS
   Masaaki Saitow         : Open-shell DLPNO
   Barbara Sandhoefer     : DKH picture change effects
   Avijit Sen             : IP-ROCIS
   Kantharuban Sivalingam : CASSCF convergence, NEVPT2, FIC-MRCI
   Bernardo de Souza      : ESD, SOC TD-DFT
   Georgi Stoychev        : AutoAux, RI-MP2 NMR
   Willem Van den Heuvel  : Paramagnetic NMR
   Boris Wezisla          : Elementary symmetry handling
   Frank Wennmohs         : Technical directorship


 We gratefully acknowledge several colleagues who have allowed us to
 interface, adapt or use parts of their codes:
   Stefan Grimme, W. Hujo, H. Kruse,             : VdW corrections, initial TS optimization,
                  C. Bannwarth                     DFT functionals, gCP, sTDA/sTD-DF
   Ed Valeev                                     : LibInt (2-el integral package), F12 methods
   Garnet Chan, S. Sharma, J. Yang, R. Olivares  : DMRG
   Ulf Ekstrom                                   : XCFun DFT Library
   Mihaly Kallay                                 : mrcc  (arbitrary order and MRCC methods)
   Andreas Klamt, Michael Diedenhofen            : otool_cosmo (COSMO solvation model)
   Jiri Pittner, Ondrej Demel                    : Mk-CCSD
   Frank Weinhold                                : gennbo (NPA and NBO analysis)
   Christopher J. Cramer and Donald G. Truhlar   : smd solvation model
   Lars Goerigk                                  : TD-DFT with DH, B97 family of functionals
   V. Asgeirsson, H. Jonsson                     : NEB implementation
   FAccTs GmbH                                   : IRC, NEB, NEB-TS, Multilevel


 Your calculation uses the libint2 library for the computation of 2-el integrals
 For citations please refer to: http://libint.valeyev.net

 This ORCA versions uses:
   CBLAS   interface :  Fast vector & matrix operations
   LAPACKE interface :  Fast linear algebra routines
   SCALAPACK package :  Parallel linear algebra routines




***************************************
The coordinates will be read from file: piperidine_ax.xyz
***************************************


----- Orbital basis set information -----
Your calculation utilizes the basis: cc-pVTZ 
       H, B-Ne : Obtained from the ccRepo (grant-hill.group.shef.ac.uk/ccrepo) Feb. 2017
                 T. H. Dunning, Jr., J. Chem. Phys. 90, 1007 (1989)
            He : Obtained from the ccRepo (grant-hill.group.shef.ac.uk/ccrepo) Feb. 2017
                 D. E. Woon, T. H. Dunning, Jr., J. Chem. Phys. 100, 2975 (1994)
  Li-Be, Na-Mg : Obtained from the ccRepo (grant-hill.group.shef.ac.uk/ccrepo) Feb. 2017
                 B. P. Prascher, D. E. Woon, K. A. Peterson, T. H. Dunning, Jr., A. K. Wilson, Theor. Chem. Acc. 128, 69 (2011)
         Al-Ar : Obtained from the ccRepo (grant-hill.group.shef.ac.uk/ccrepo) Feb. 2017
                 D. E. Woon, T. H. Dunning, Jr., J. Chem. Phys. 98, 1358 (1993)
            Ca : Obtained from the Peterson Research Group Website (tyr0.chem.wsu.edu/~kipeters) Feb. 2017
                 J. Koput, K. A. Peterson, J. Phys. Chem. 106, 9595 (2002)
         Sc-Zn : Obtained from the ccRepo (grant-hill.group.shef.ac.uk/ccrepo) Feb. 2017
                 N. B. Balabanov, K. A. Peterson, J. Chem. Phys. 123, 064107 (2005)
                 N. B. Balabanov, K. A. Peterson, J. Chem. Phys. 125, 074110 (2006)
         Ga-Kr : Obtained from the ccRepo (grant-hill.group.shef.ac.uk/ccrepo) Feb. 2017
                 A. K. Wilson, D. E. Woon, K. A. Peterson, T. H. Dunning, Jr., J. Chem. Phys. 110, 7667 (1999)
             Y : Obtained from the ccRepo (grant-hill.group.shef.ac.uk/ccrepo) Feb. 2017
                 K. A. Peterson, D. Figgen, M. Dolg, H. Stoll, J. Chem. Phys. 126, 124101 (2007)
        Ag, Au : Obtained from the Peterson Research Group Website (tyr0.chem.wsu.edu/~kipeters) Feb. 2017
                 K. A. Peterson, C. Puzzarini, Theor. Chem. Acc. 114, 283 (2005)

----- AuxC basis set information -----
Your calculation utilizes the auxiliary basis: cc-pVTZ/C 
  Obtained from the EMSL Basis Set Exchange (bse.pnl.gov) Feb. 2017
  H-He, B-F, Al-Ar, Ga-Kr : F. Weigend, A. Kohn, C. Hattig, J. Chem. Phys. 116, 3175 (2002)
             Li-Be, Na-Mg : C. Haettig, Phys. Chem. Chem. Phys. 7, 59 (2005)
                       Ne : C. Haettig, Phys. Chem. Chem. Phys. 7, 59 (2005)
                            F. Weigend, A. Kohn, C. Hattig, J. Chem. Phys. 116, 3175 (2002)
                    Sc-Zn : J. G. Hill, J. A. Platts, J. Chem. Phys. 128, 044104 (2008)

----- AuxJK basis set information -----
Your calculation utilizes the auxiliary basis: cc-pVTZ/JK 
  H, B-F, Al-Cl, Ga-Br : Obtained from the TURBOMOLE 7.0 basis set library

================================================================================
                                        WARNINGS
                       Please study these warnings very carefully!
================================================================================


WARNING: MDCI localization with Augmented Hessian Foster-Boys
  ===> : Switching off randomization!

WARNING: Post HF methods need fully converged wavefunctions
  ===> : Setting SCFConvForced true
         You can overwrite this default with %scf ConvForced false 


INFO   : the flag for use of LIBINT has been found!

================================================================================
                                       INPUT FILE
================================================================================
NAME = piperidine_ax.inp
|  1> ! RHF DLPNO-CCSD(T) cc-pVTZ RIJK cc-pVTZ/JK cc-pVTZ/C
|  2> ! KDIIS SOSCF TightSCF TightPNO
|  3> 
|  4> %pal nprocs 8 end
|  5> 
|  6> %maxcore 8000
|  7> 
|  8> %scf maxiter 300
|  9>      shift shift 0.2 erroff 0.1 end
| 10> end
| 11> 
| 12> * xyzfile 0 1 piperidine_ax.xyz 
| 13> 
| 14> 
| 15>                          ****END OF INPUT****
================================================================================

                       ****************************
                       * Single Point Calculation *
                       ****************************

---------------------------------
CARTESIAN COORDINATES (ANGSTROEM)
---------------------------------
  C     -0.000850    1.460800    0.221290
  C      1.265220    0.713270   -0.229120
  C      1.220830   -0.757720    0.222830
  N      0.000840   -1.471090   -0.174000
  C     -1.219980   -0.759110    0.222800
  C     -1.266030    0.711860   -0.229100
  H      0.000930   -1.615900   -1.181720
  H      2.084060   -1.310820   -0.164320
  H      1.283470   -0.801750    1.320000
  H     -1.282560   -0.803220    1.319970
  H     -2.082570   -1.313180   -0.164370
  H      1.341190    0.750530   -1.326000
  H      2.165230    1.201510    0.167600
  H     -2.166570    1.199100    0.167630
  H     -1.342030    0.749050   -1.325970
  H     -0.000890    1.540560    1.318540
  H     -0.001450    2.487100   -0.165600

----------------------------
CARTESIAN COORDINATES (A.U.)
----------------------------
  NO LB      ZA    FRAG     MASS         X           Y           Z
   0 C     6.0000    0    12.011   -0.001606    2.760512    0.418177
   1 C     6.0000    0    12.011    2.390919    1.347885   -0.432974
   2 C     6.0000    0    12.011    2.307034   -1.431883    0.421088
   3 N     7.0000    0    14.007    0.001587   -2.779957   -0.328812
   4 C     6.0000    0    12.011   -2.305428   -1.434510    0.421031
   5 C     6.0000    0    12.011   -2.392450    1.345220   -0.432936
   6 H     1.0000    0     1.008    0.001757   -3.053608   -2.233127
   7 H     1.0000    0     1.008    3.938303   -2.477091   -0.310520
   8 H     1.0000    0     1.008    2.425407   -1.515088    2.494438
   9 H     1.0000    0     1.008   -2.423687   -1.517866    2.494382
  10 H     1.0000    0     1.008   -3.935487   -2.481551   -0.310614
  11 H     1.0000    0     1.008    2.534482    1.418296   -2.505777
  12 H     1.0000    0     1.008    4.091692    2.270525    0.316718
  13 H     1.0000    0     1.008   -4.094224    2.265971    0.316775
  14 H     1.0000    0     1.008   -2.536069    1.415499   -2.505720
  15 H     1.0000    0     1.008   -0.001682    2.911236    2.491679
  16 H     1.0000    0     1.008   -0.002740    4.699938   -0.312939

--------------------------------
INTERNAL COORDINATES (ANGSTROEM)
--------------------------------
 C      0   0   0     0.000000000000     0.00000000     0.00000000
 C      1   0   0     1.537726735769     0.00000000     0.00000000
 C      2   1   0     1.539493700767   110.77912031     0.00000000
 N      3   2   1     1.467905448556   114.13917611    52.96046105
 C      4   3   2     1.467912542626   112.48362848   307.77453232
 C      1   2   3     1.537674448022   110.78529184   307.24407396
 H      4   3   2     1.018071482068   109.67233802    70.10969426
 H      3   2   1     1.095888117191   110.84388495   175.55406968
 H      3   2   1     1.099838360578   109.23648005   292.84546547
 H      5   4   3     1.099838150548   107.30924998   291.03829609
 H      5   4   3     1.095881235308   108.29418133   176.19987474
 H      2   1   3     1.100138847101   109.41633189   120.30789612
 H      2   1   3     1.098081534359   110.66210772   237.68939913
 H      6   1   2     1.098075499271   110.66054912   175.06683896
 H      6   1   2     1.100128580212   109.41518847   292.44770856
 H      1   2   3     1.100145091204   109.11161731    67.38705870
 H      1   2   3     1.096802590305   110.61018136   184.22098628

---------------------------
INTERNAL COORDINATES (A.U.)
---------------------------
 C      0   0   0     0.000000000000     0.00000000     0.00000000
 C      1   0   0     2.905882399413     0.00000000     0.00000000
 C      2   1   0     2.909221479346   110.77912031     0.00000000
 N      3   2   1     2.773939288261   114.13917611    52.96046105
 C      4   3   2     2.773952694112   112.48362848   307.77453232
 C      1   2   3     2.905783589890   110.78529184   307.24407396
 H      4   3   2     1.923876285864   109.67233802    70.10969426
 H      3   2   1     2.070928414909   110.84388495   175.55406968
 H      3   2   1     2.078393293074   109.23648005   292.84546547
 H      5   4   3     2.078392896173   107.30924998   291.03829609
 H      5   4   3     2.070915410035   108.29418133   176.19987474
 H      2   1   3     2.078961130308   109.41633189   120.30789612
 H      2   1   3     2.075073372654   110.66210772   237.68939913
 H      6   1   2     2.075061967992   110.66054912   175.06683896
 H      6   1   2     2.078941728701   109.41518847   292.44770856
 H      1   2   3     2.078972929953   109.11161731    67.38705870
 H      1   2   3     2.072656518652   110.61018136   184.22098628

---------------------
BASIS SET INFORMATION
---------------------
There are 3 groups of distinct atoms

 Group   1 Type C   : 18s5p2d1f contracted to 4s3p2d1f pattern {8811/311/11/1}
 Group   2 Type N   : 18s5p2d1f contracted to 4s3p2d1f pattern {8811/311/11/1}
 Group   3 Type H   : 5s2p1d contracted to 3s2p1d pattern {311/11/1}

Atom   0C    basis set group =>   1
Atom   1C    basis set group =>   1
Atom   2C    basis set group =>   1
Atom   3N    basis set group =>   2
Atom   4C    basis set group =>   1
Atom   5C    basis set group =>   1
Atom   6H    basis set group =>   3
Atom   7H    basis set group =>   3
Atom   8H    basis set group =>   3
Atom   9H    basis set group =>   3
Atom  10H    basis set group =>   3
Atom  11H    basis set group =>   3
Atom  12H    basis set group =>   3
Atom  13H    basis set group =>   3
Atom  14H    basis set group =>   3
Atom  15H    basis set group =>   3
Atom  16H    basis set group =>   3
-------------------------------
AUXILIARY BASIS SET INFORMATION
-------------------------------
There are 3 groups of distinct atoms

 Group   1 Type C   : 8s6p5d3f1g contracted to 8s6p5d3f1g pattern {11111111/111111/11111/111/1}
 Group   2 Type N   : 8s6p5d3f1g contracted to 8s6p5d3f1g pattern {11111111/111111/11111/111/1}
 Group   3 Type H   : 4s3p2d1f contracted to 4s3p2d1f pattern {1111/111/11/1}

Atom   0C    basis set group =>   1
Atom   1C    basis set group =>   1
Atom   2C    basis set group =>   1
Atom   3N    basis set group =>   2
Atom   4C    basis set group =>   1
Atom   5C    basis set group =>   1
Atom   6H    basis set group =>   3
Atom   7H    basis set group =>   3
Atom   8H    basis set group =>   3
Atom   9H    basis set group =>   3
Atom  10H    basis set group =>   3
Atom  11H    basis set group =>   3
Atom  12H    basis set group =>   3
Atom  13H    basis set group =>   3
Atom  14H    basis set group =>   3
Atom  15H    basis set group =>   3
Atom  16H    basis set group =>   3
-------------------------------
AUXILIARY BASIS SET INFORMATION
-------------------------------
There are 3 groups of distinct atoms

 Group   1 Type C   : 10s7p5d2f1g contracted to 10s7p5d2f1g pattern {1111111111/1111111/11111/11/1}
 Group   2 Type N   : 10s7p5d2f1g contracted to 10s7p5d2f1g pattern {1111111111/1111111/11111/11/1}
 Group   3 Type H   : 4s3p2d1f contracted to 4s3p2d1f pattern {1111/111/11/1}

Atom   0C    basis set group =>   1
Atom   1C    basis set group =>   1
Atom   2C    basis set group =>   1
Atom   3N    basis set group =>   2
Atom   4C    basis set group =>   1
Atom   5C    basis set group =>   1
Atom   6H    basis set group =>   3
Atom   7H    basis set group =>   3
Atom   8H    basis set group =>   3
Atom   9H    basis set group =>   3
Atom  10H    basis set group =>   3
Atom  11H    basis set group =>   3
Atom  12H    basis set group =>   3
Atom  13H    basis set group =>   3
Atom  14H    basis set group =>   3
Atom  15H    basis set group =>   3
Atom  16H    basis set group =>   3


           ************************************************************
           *        Program running with 8 parallel MPI-processes     *
           *              working on a common directory               *
           ************************************************************
------------------------------------------------------------------------------
                           ORCA GTO INTEGRAL CALCULATION
                           -- RI-GTO INTEGRALS CHOSEN --
------------------------------------------------------------------------------

                         BASIS SET STATISTICS AND STARTUP INFO

Gaussian basis set:
 # of primitive gaussian shells          ...  244
 # of primitive gaussian functions       ...  476
 # of contracted shells                  ...  126
 # of contracted basis functions         ...  334
 Highest angular momentum                ...    3
 Maximum contraction depth               ...    8
Auxiliary gaussian basis set:
 # of primitive gaussian shells          ...  260
 # of primitive gaussian functions       ...  804
 # of contracted shells                  ...  260
 # of contracted aux-basis functions     ...  804
 Highest angular momentum                ...    4
 Maximum contraction depth               ...    1
Ratio of auxiliary to basis functions    ...  2.41
Integral package used                  ... LIBINT
 One Electron integrals                  ... done
 Ordering auxiliary basis shells         ... done
 Integral threshhold             Thresh  ...  2.500e-11
 Primitive cut-off               TCut    ...  2.500e-12
 Pre-screening matrix                    ... done
 Shell pair data                         ... 
 Ordering of the shell pairs             ... done (   0.001 sec) 7811 of 8001 pairs
 Determination of significant pairs      ... done (   0.000 sec)
 Creation of shell pair data             ... done (   0.002 sec)
 Storage of shell pair data              ... done (   0.002 sec)
 Shell pair data done in (   0.006 sec)
 Computing two index integrals           ... done
 Cholesky decomposition of the V-matrix  ... done


Timings:
 Total evaluation time                   ...   0.483 sec (  0.008 min)
 One electron matrix time                ...   0.097 sec (  0.002 min) = 20.1%
 Schwartz matrix evaluation time         ...   0.226 sec (  0.004 min) = 46.8%
 Two index repulsion integral time       ...   0.073 sec (  0.001 min) = 15.2%
 Cholesky decomposition of V             ...   0.055 sec (  0.001 min) = 11.3%
 Three index repulsion integral time     ...   0.000 sec (  0.000 min) =  0.0%



           ************************************************************
           *        Program running with 8 parallel MPI-processes     *
           *              working on a common directory               *
           ************************************************************
-------------------------------------------------------------------------------
                                 ORCA SCF
-------------------------------------------------------------------------------

------------
SCF SETTINGS
------------
Hamiltonian:
 Ab initio Hamiltonian  Method          .... Hartree-Fock(GTOs)
 RI-approximation to the Coulomb term is turned on
   Number of auxiliary basis functions  .... 804
   RI-JK (J+K treated both via RI)      .... on


General Settings:
 Integral files         IntName         .... piperidine_ax
 Hartree-Fock type      HFTyp           .... RHF
 Total Charge           Charge          ....    0
 Multiplicity           Mult            ....    1
 Number of Electrons    NEL             ....   48
 Basis Dimension        Dim             ....  334
 Nuclear Repulsion      ENuc            ....    257.7536675767 Eh

Convergence Acceleration:
 DIIS                   CNVDIIS         .... off
 Newton-Raphson         CNVNR           .... off
 SOSCF                  CNVSOSCF        .... on
   Start iteration      SOSCFMaxIt      ....   150
   Startup grad/error   SOSCFStart      ....  0.003300
 Level Shifting         CNVShift        .... on
   Level shift para.    LevelShift      ....    0.2000
   Turn off err/grad.   ShiftErr        ....    0.1000
 Zerner damping         CNVZerner       .... off
 Static damping         CNVDamp         .... off
 Fernandez-Rico         CNVRico         .... off

SCF Procedure:
 Maximum # iterations   MaxIter         ....   300
 SCF integral mode      SCFMode         .... Direct
   Integral package                     .... LIBINT
 Reset frequency        DirectResetFreq ....    20
 Integral Threshold     Thresh          ....  2.500e-11 Eh
 Primitive CutOff       TCut            ....  2.500e-12 Eh

Convergence Tolerance:
 Convergence Check Mode ConvCheckMode   .... Total+1el-Energy
 Convergence forced     ConvForced      .... 1
 Energy Change          TolE            ....  1.000e-08 Eh
 1-El. energy change                    ....  1.000e-05 Eh
 Orbital Gradient       TolG            ....  1.000e-05
 Orbital Rotation angle TolX            ....  1.000e-05


Diagonalization of the overlap matrix:
Smallest eigenvalue                        ... 3.381e-04
Time for diagonalization                   ...    0.022 sec
Threshold for overlap eigenvalues          ... 1.000e-08
Number of eigenvalues below threshold      ... 0
Time for construction of square roots      ...    0.029 sec
Total time needed                          ...    0.052 sec

-------------------
DFT GRID GENERATION
-------------------

General Integration Accuracy     IntAcc      ...  4.340
Radial Grid Type                 RadialGrid  ... Gauss-Chebyshev
Angular Grid (max. acc.)         AngularGrid ... Lebedev-110
Angular grid pruning method      GridPruning ... 3 (G Style)
Weight generation scheme         WeightScheme... Becke
Basis function cutoff            BFCut       ...    1.0000e-11
Integration weight cutoff        WCut        ...    1.0000e-14
Grids for H and He will be reduced by one unit

# of grid points (after initial pruning)     ...  18716 (   0.0 sec)
# of grid points (after weights+screening)   ...  17141 (   0.0 sec)
nearest neighbour list constructed           ...    0.0 sec
Grid point re-assignment to atoms done       ...    0.0 sec
Grid point division into batches done        ...    0.0 sec
Reduced shell lists constructed in    0.1 sec

Total number of grid points                  ...    17141
Total number of batches                      ...      275
Average number of points per batch           ...       62
Average number of grid points per atom       ...     1008
Average number of shells per batch           ...   112.72 (89.46%)
Average number of basis functions per batch  ...   297.44 (89.06%)
Average number of large shells per batch     ...    95.31 (84.55%)
Average number of large basis fcns per batch ...   247.31 (83.14%)
Average number of aux-shells per batch       ...   112.72 (43.35%)
Average number of aux functions per batch    ...   297.44 (37.00%)
Maximum spatial batch extension              ...   3.32,  2.53,  3.74 au
Average spatial batch extension              ...   0.21,  0.19,  0.19 au

Time for grid setup =    0.143 sec

------------------------------
INITIAL GUESS: MODEL POTENTIAL
------------------------------
Loading Hartree-Fock densities                     ... done
Calculating cut-offs                               ... done
Setting up the integral package                    ... done
Initializing the effective Hamiltonian             ... done
Starting the Coulomb interaction                   ... done (   0.0 sec)
Reading the grid                                   ... done
Mapping shells                                     ... done
Starting the XC term evaluation                    ... done (   0.1 sec)
Transforming the Hamiltonian                       ... done (   0.0 sec)
Diagonalizing the Hamiltonian                      ... done (   0.0 sec)
Back transforming the eigenvectors                 ... done (   0.0 sec)
Now organizing SCF variables                       ... done
                      ------------------
                      INITIAL GUESS DONE (   0.4 sec)
                      ------------------
--------------
SCF ITERATIONS
--------------
ITER       Energy         Delta-E        Max-DP      RMS-DP      [F,P]   Gradient Norm
                             ****Turning on KDIIS(Cayley)****
  0   -249.9285734888   0.000000000000 0.01634774  0.00027944  0.1028374   0.150582954
  1   -250.0267057061  -0.098132217249 0.01786797  0.00031951  0.0946355   0.130376258
  2   -250.1081667158  -0.081461009697 0.03365186  0.00055211  0.0759453   0.105912922
  3   -250.2084857859  -0.100319070160 0.05663107  0.00088938  0.0458673   0.065286606
                      *** Initiating the SOSCF procedure ***
                           *** Shutting down KDIIS ***
                      *** Re-Reading the Fockian *** 
                      *** Removing any level shift *** 
ITER      Energy       Delta-E        Grad      Rot      Max-DP    RMS-DP
  4   -250.27348634  -0.0650005579  0.002568  0.002568  0.002234  0.000059
  5   -250.27378837  -0.0003020254  0.001343  0.002499  0.001667  0.000055
  6   -250.27385594  -0.0000675696  0.000849  0.000738  0.001148  0.000026
  7   -250.27387987  -0.0000239328  0.000187  0.000448  0.000530  0.000011
  8   -250.27388083  -0.0000009581  0.000074  0.000225  0.000307  0.000005
  9   -250.27388095  -0.0000001167  0.000019  0.000064  0.000120  0.000002
 10   -250.27388096  -0.0000000121  0.000007  0.000012  0.000032  0.000001
                  ***Gradient check signals convergence***
              ***Rediagonalizing the Fockian in SOSCF/NRSCF***

               *****************************************************
               *                     SUCCESS                       *
               *           SCF CONVERGED AFTER  11 CYCLES          *
               *****************************************************


----------------
TOTAL SCF ENERGY
----------------

Total Energy       :         -250.27388096 Eh           -6810.29853 eV

Components:
Nuclear Repulsion  :          257.75366758 Eh            7013.83387 eV
Electronic Energy  :         -508.02754854 Eh          -13824.13240 eV
One Electron Energy:         -848.67326396 Eh          -23093.57357 eV
Two Electron Energy:          340.64571542 Eh            9269.44117 eV

Virial components:
Potential Energy   :         -500.09103585 Eh          -13608.16891 eV
Kinetic Energy     :          249.81715489 Eh            6797.87038 eV
Virial Ratio       :            2.00182824


---------------
SCF CONVERGENCE
---------------

  Last Energy change         ...   -2.4095e-09  Tolerance :   1.0000e-08
  Last MAX-Density change    ...    5.5402e-06  Tolerance :   1.0000e-07
  Last RMS-Density change    ...    1.5503e-07  Tolerance :   5.0000e-09
  Last Orbital Gradient      ...    1.6132e-06  Tolerance :   1.0000e-05
  Last Orbital Rotation      ...    2.4278e-06  Tolerance :   1.0000e-05

             **** THE GBW FILE WAS UPDATED (piperidine_ax.gbw) ****
             **** DENSITY FILE WAS UPDATED (piperidine_ax.scfp.tmp) ****
             **** ENERGY FILE WAS UPDATED (piperidine_ax.en.tmp) ****
----------------
ORBITAL ENERGIES
----------------

  NO   OCC          E(Eh)            E(eV) 
   0   2.0000     -15.532987      -422.6741 
   1   2.0000     -11.242167      -305.9149 
   2   2.0000     -11.242152      -305.9145 
   3   2.0000     -11.218925      -305.2825 
   4   2.0000     -11.216518      -305.2170 
   5   2.0000     -11.216436      -305.2147 
   6   2.0000      -1.201476       -32.6938 
   7   2.0000      -1.050995       -28.5990 
   8   2.0000      -1.006275       -27.3821 
   9   2.0000      -0.858953       -23.3733 
  10   2.0000      -0.840468       -22.8703 
  11   2.0000      -0.767174       -20.8759 
  12   2.0000      -0.659258       -17.9393 
  13   2.0000      -0.613109       -16.6835 
  14   2.0000      -0.605266       -16.4701 
  15   2.0000      -0.603706       -16.4277 
  16   2.0000      -0.543817       -14.7980 
  17   2.0000      -0.525952       -14.3119 
  18   2.0000      -0.519024       -14.1234 
  19   2.0000      -0.488019       -13.2797 
  20   2.0000      -0.485450       -13.2098 
  21   2.0000      -0.455656       -12.3990 
  22   2.0000      -0.444223       -12.0879 
  23   2.0000      -0.352947        -9.6042 
  24   0.0000       0.139175         3.7871 
  25   0.0000       0.154176         4.1954 
  26   0.0000       0.164830         4.4852 
  27   0.0000       0.174832         4.7574 
  28   0.0000       0.209168         5.6918 
  29   0.0000       0.209760         5.7079 
  30   0.0000       0.216926         5.9028 
  31   0.0000       0.223498         6.0817 
  32   0.0000       0.225420         6.1340 
  33   0.0000       0.244873         6.6633 
  34   0.0000       0.252160         6.8616 
  35   0.0000       0.304637         8.2896 
  36   0.0000       0.326755         8.8914 
  37   0.0000       0.342882         9.3303 
  38   0.0000       0.370047        10.0695 
  39   0.0000       0.378467        10.2986 
  40   0.0000       0.383818        10.4442 
  41   0.0000       0.412702        11.2302 
  42   0.0000       0.422164        11.4877 
  43   0.0000       0.427421        11.6307 
  44   0.0000       0.454898        12.3784 
  45   0.0000       0.487746        13.2722 
  46   0.0000       0.505057        13.7433 
  47   0.0000       0.505743        13.7620 
  48   0.0000       0.533314        14.5122 
  49   0.0000       0.560749        15.2588 
  50   0.0000       0.565948        15.4002 
  51   0.0000       0.594778        16.1847 
  52   0.0000       0.601046        16.3553 
  53   0.0000       0.602453        16.3936 
  54   0.0000       0.602697        16.4002 
  55   0.0000       0.620262        16.8782 
  56   0.0000       0.627662        17.0796 
  57   0.0000       0.634430        17.2637 
  58   0.0000       0.645163        17.5558 
  59   0.0000       0.649609        17.6768 
  60   0.0000       0.661841        18.0096 
  61   0.0000       0.667310        18.1584 
  62   0.0000       0.683225        18.5915 
  63   0.0000       0.689101        18.7514 
  64   0.0000       0.695386        18.9224 
  65   0.0000       0.707673        19.2568 
  66   0.0000       0.735935        20.0258 
  67   0.0000       0.789331        21.4788 
  68   0.0000       0.798873        21.7384 
  69   0.0000       0.809540        22.0287 
  70   0.0000       0.829791        22.5797 
  71   0.0000       0.864304        23.5189 
  72   0.0000       0.893754        24.3203 
  73   0.0000       0.915311        24.9069 
  74   0.0000       0.931449        25.3460 
  75   0.0000       0.956461        26.0266 
  76   0.0000       0.980495        26.6806 
  77   0.0000       0.995602        27.0917 
  78   0.0000       1.002581        27.2816 
  79   0.0000       1.006889        27.3988 
  80   0.0000       1.067330        29.0435 
  81   0.0000       1.096469        29.8364 
  82   0.0000       1.112823        30.2815 
  83   0.0000       1.129138        30.7254 
  84   0.0000       1.132785        30.8247 
  85   0.0000       1.172628        31.9088 
  86   0.0000       1.193439        32.4751 
  87   0.0000       1.202886        32.7322 
  88   0.0000       1.221416        33.2364 
  89   0.0000       1.241358        33.7791 
  90   0.0000       1.267521        34.4910 
  91   0.0000       1.282505        34.8987 
  92   0.0000       1.291273        35.1373 
  93   0.0000       1.292048        35.1584 
  94   0.0000       1.310649        35.6646 
  95   0.0000       1.314174        35.7605 
  96   0.0000       1.314729        35.7756 
  97   0.0000       1.322960        35.9996 
  98   0.0000       1.347647        36.6713 
  99   0.0000       1.370824        37.3020 
 100   0.0000       1.378017        37.4978 
 101   0.0000       1.393863        37.9290 
 102   0.0000       1.414236        38.4833 
 103   0.0000       1.419738        38.6330 
 104   0.0000       1.445154        39.3246 
 105   0.0000       1.471213        40.0337 
 106   0.0000       1.478998        40.2456 
 107   0.0000       1.488717        40.5100 
 108   0.0000       1.498312        40.7711 
 109   0.0000       1.511587        41.1324 
 110   0.0000       1.530233        41.6398 
 111   0.0000       1.548067        42.1250 
 112   0.0000       1.556427        42.3525 
 113   0.0000       1.565656        42.6037 
 114   0.0000       1.576774        42.9062 
 115   0.0000       1.591018        43.2938 
 116   0.0000       1.593852        43.3709 
 117   0.0000       1.624387        44.2018 
 118   0.0000       1.661850        45.2212 
 119   0.0000       1.692643        46.0591 
 120   0.0000       1.692939        46.0672 
 121   0.0000       1.709495        46.5177 
 122   0.0000       1.718664        46.7672 
 123   0.0000       1.732161        47.1345 
 124   0.0000       1.769337        48.1461 
 125   0.0000       1.774913        48.2978 
 126   0.0000       1.796359        48.8814 
 127   0.0000       1.805249        49.1233 
 128   0.0000       1.824799        49.6553 
 129   0.0000       1.869082        50.8603 
 130   0.0000       1.887496        51.3614 
 131   0.0000       1.896042        51.5939 
 132   0.0000       1.957726        53.2724 
 133   0.0000       2.027056        55.1590 
 134   0.0000       2.062610        56.1265 
 135   0.0000       2.136240        58.1300 
 136   0.0000       2.179066        59.2954 
 137   0.0000       2.197809        59.8054 
 138   0.0000       2.276866        61.9567 
 139   0.0000       2.614282        71.1382 
 140   0.0000       2.614679        71.1490 
 141   0.0000       2.639816        71.8330 
 142   0.0000       2.645818        71.9964 
 143   0.0000       2.667999        72.5999 
 144   0.0000       2.702311        73.5336 
 145   0.0000       2.752994        74.9128 
 146   0.0000       2.796786        76.1044 
 147   0.0000       2.799035        76.1656 
 148   0.0000       2.802881        76.2703 
 149   0.0000       2.824673        76.8633 
 150   0.0000       2.846721        77.4632 
 151   0.0000       2.852402        77.6178 
 152   0.0000       2.902768        78.9883 
 153   0.0000       2.906283        79.0840 
 154   0.0000       2.922271        79.5190 
 155   0.0000       2.941416        80.0400 
 156   0.0000       2.958925        80.5164 
 157   0.0000       2.970381        80.8282 
 158   0.0000       2.993570        81.4592 
 159   0.0000       3.005856        81.7935 
 160   0.0000       3.006210        81.8031 
 161   0.0000       3.019119        82.1544 
 162   0.0000       3.032573        82.5205 
 163   0.0000       3.046094        82.8884 
 164   0.0000       3.088628        84.0458 
 165   0.0000       3.126802        85.0846 
 166   0.0000       3.154935        85.8501 
 167   0.0000       3.162679        86.0609 
 168   0.0000       3.180425        86.5438 
 169   0.0000       3.194220        86.9191 
 170   0.0000       3.202788        87.1523 
 171   0.0000       3.233802        87.9962 
 172   0.0000       3.252042        88.4925 
 173   0.0000       3.281760        89.3012 
 174   0.0000       3.297202        89.7214 
 175   0.0000       3.322172        90.4009 
 176   0.0000       3.333431        90.7073 
 177   0.0000       3.350451        91.1704 
 178   0.0000       3.372281        91.7644 
 179   0.0000       3.401097        92.5486 
 180   0.0000       3.405492        92.6682 
 181   0.0000       3.415190        92.9320 
 182   0.0000       3.419412        93.0469 
 183   0.0000       3.440955        93.6331 
 184   0.0000       3.442826        93.6841 
 185   0.0000       3.451983        93.9332 
 186   0.0000       3.467644        94.3594 
 187   0.0000       3.475802        94.5814 
 188   0.0000       3.491333        95.0040 
 189   0.0000       3.503946        95.3472 
 190   0.0000       3.515052        95.6494 
 191   0.0000       3.532563        96.1259 
 192   0.0000       3.548754        96.5665 
 193   0.0000       3.557277        96.7984 
 194   0.0000       3.566392        97.0465 
 195   0.0000       3.584476        97.5386 
 196   0.0000       3.607231        98.1577 
 197   0.0000       3.617711        98.4429 
 198   0.0000       3.650756        99.3421 
 199   0.0000       3.693249       100.4984 
 200   0.0000       3.700150       100.6862 
 201   0.0000       3.703244       100.7704 
 202   0.0000       3.707841       100.8955 
 203   0.0000       3.741427       101.8094 
 204   0.0000       3.753331       102.1333 
 205   0.0000       3.756904       102.2306 
 206   0.0000       3.785420       103.0065 
 207   0.0000       3.823037       104.0301 
 208   0.0000       3.847655       104.7000 
 209   0.0000       3.855339       104.9091 
 210   0.0000       3.877842       105.5215 
 211   0.0000       3.882270       105.6419 
 212   0.0000       3.920028       106.6694 
 213   0.0000       3.920853       106.6918 
 214   0.0000       3.934787       107.0710 
 215   0.0000       3.951977       107.5388 
 216   0.0000       3.975573       108.1808 
 217   0.0000       4.003030       108.9280 
 218   0.0000       4.025832       109.5485 
 219   0.0000       4.034502       109.7844 
 220   0.0000       4.052273       110.2680 
 221   0.0000       4.056756       110.3899 
 222   0.0000       4.081433       111.0614 
 223   0.0000       4.085388       111.1690 
 224   0.0000       4.097083       111.4873 
 225   0.0000       4.101876       111.6177 
 226   0.0000       4.123086       112.1949 
 227   0.0000       4.147677       112.8640 
 228   0.0000       4.165868       113.3590 
 229   0.0000       4.167536       113.4044 
 230   0.0000       4.178131       113.6927 
 231   0.0000       4.195222       114.1578 
 232   0.0000       4.241240       115.4100 
 233   0.0000       4.247228       115.5729 
 234   0.0000       4.261059       115.9493 
 235   0.0000       4.272295       116.2551 
 236   0.0000       4.273760       116.2949 
 237   0.0000       4.302644       117.0809 
 238   0.0000       4.319146       117.5299 
 239   0.0000       4.334369       117.9442 
 240   0.0000       4.337777       118.0369 
 241   0.0000       4.355584       118.5215 
 242   0.0000       4.363491       118.7366 
 243   0.0000       4.388727       119.4233 
 244   0.0000       4.406450       119.9056 
 245   0.0000       4.406519       119.9075 
 246   0.0000       4.426041       120.4387 
 247   0.0000       4.435998       120.7096 
 248   0.0000       4.453199       121.1777 
 249   0.0000       4.481485       121.9474 
 250   0.0000       4.488948       122.1505 
 251   0.0000       4.506721       122.6341 
 252   0.0000       4.524281       123.1119 
 253   0.0000       4.550326       123.8207 
 254   0.0000       4.573503       124.4513 
 255   0.0000       4.577576       124.5622 
 256   0.0000       4.593117       124.9851 
 257   0.0000       4.614556       125.5685 
 258   0.0000       4.643983       126.3692 
 259   0.0000       4.652641       126.6048 
 260   0.0000       4.668468       127.0355 
 261   0.0000       4.670444       127.0893 
 262   0.0000       4.676582       127.2563 
 263   0.0000       4.709164       128.1429 
 264   0.0000       4.716957       128.3549 
 265   0.0000       4.753037       129.3367 
 266   0.0000       4.761054       129.5549 
 267   0.0000       4.781352       130.1072 
 268   0.0000       4.817952       131.1031 
 269   0.0000       4.832229       131.4916 
 270   0.0000       4.919661       133.8708 
 271   0.0000       4.940300       134.4324 
 272   0.0000       4.986743       135.6962 
 273   0.0000       4.991199       135.8174 
 274   0.0000       5.042050       137.2012 
 275   0.0000       5.064384       137.8089 
 276   0.0000       5.093396       138.5984 
 277   0.0000       5.111305       139.0857 
 278   0.0000       5.128699       139.5590 
 279   0.0000       5.162718       140.4847 
 280   0.0000       5.199852       141.4952 
 281   0.0000       5.225549       142.1944 
 282   0.0000       5.239918       142.5854 
 283   0.0000       5.241188       142.6200 
 284   0.0000       5.282413       143.7418 
 285   0.0000       5.287510       143.8805 
 286   0.0000       5.308366       144.4480 
 287   0.0000       5.317453       144.6953 
 288   0.0000       5.350269       145.5882 
 289   0.0000       5.387356       146.5974 
 290   0.0000       5.392065       146.7256 
 291   0.0000       5.425554       147.6368 
 292   0.0000       5.445663       148.1840 
 293   0.0000       5.481871       149.1693 
 294   0.0000       5.492627       149.4620 
 295   0.0000       5.517326       150.1341 
 296   0.0000       5.538276       150.7042 
 297   0.0000       5.570361       151.5772 
 298   0.0000       5.597500       152.3157 
 299   0.0000       5.624944       153.0625 
 300   0.0000       5.661126       154.0471 
 301   0.0000       5.711660       155.4222 
 302   0.0000       5.719817       155.6441 
 303   0.0000       5.720046       155.6504 
 304   0.0000       5.749014       156.4386 
 305   0.0000       5.774855       157.1418 
 306   0.0000       5.801922       157.8783 
 307   0.0000       5.820264       158.3774 
 308   0.0000       5.834937       158.7767 
 309   0.0000       5.844039       159.0244 
 310   0.0000       5.869155       159.7078 
 311   0.0000       5.936407       161.5379 
 312   0.0000       5.951319       161.9436 
 313   0.0000       5.997503       163.2003 
 314   0.0000       6.046764       164.5408 
 315   0.0000       6.063859       165.0060 
 316   0.0000       6.088843       165.6858 
 317   0.0000       6.194443       168.5594 
 318   0.0000       6.243811       169.9027 
 319   0.0000       6.258988       170.3157 
 320   0.0000       6.362197       173.1242 
 321   0.0000       6.371678       173.3822 
 322   0.0000       6.396360       174.0538 
 323   0.0000       6.437934       175.1851 
 324   0.0000       6.455131       175.6530 
 325   0.0000       6.499126       176.8502 
 326   0.0000       6.566874       178.6937 
 327   0.0000       7.053716       191.9414 
 328   0.0000      12.103194       329.3447 
 329   0.0000      12.706037       345.7488 
 330   0.0000      13.092573       356.2670 
 331   0.0000      13.349243       363.2514 
 332   0.0000      13.490572       367.0971 
 333   0.0000      13.520925       367.9231 

                    ********************************
                    * MULLIKEN POPULATION ANALYSIS *
                    ********************************

-----------------------
MULLIKEN ATOMIC CHARGES
-----------------------
   0 C :   -0.189937
   1 C :   -0.195866
   2 C :   -0.087445
   3 N :   -0.281197
   4 C :   -0.087449
   5 C :   -0.195862
   6 H :    0.100117
   7 H :    0.104067
   8 H :    0.082460
   9 H :    0.082456
  10 H :    0.104073
  11 H :    0.081877
  12 H :    0.102149
  13 H :    0.102153
  14 H :    0.081876
  15 H :    0.088705
  16 H :    0.107823
Sum of atomic charges:    0.0000000

--------------------------------
MULLIKEN REDUCED ORBITAL CHARGES
--------------------------------
  0 C s       :     3.213457  s :     3.213457
      pz      :     0.988953  p :     2.853155
      px      :     0.882151
      py      :     0.982051
      dz2     :     0.034978  d :     0.116621
      dxz     :     0.016243
      dyz     :     0.011302
      dx2y2   :     0.032586
      dxy     :     0.021512
      f0      :     0.001463  f :     0.006703
      f+1     :     0.000771
      f-1     :     0.000355
      f+2     :     0.000509
      f-2     :     0.000808
      f+3     :     0.001246
      f-3     :     0.001551
  1 C s       :     3.209761  s :     3.209761
      pz      :     0.991870  p :     2.870678
      px      :     0.961040
      py      :     0.917768
      dz2     :     0.033102  d :     0.108871
      dxz     :     0.013139
      dyz     :     0.014157
      dx2y2   :     0.024521
      dxy     :     0.023953
      f0      :     0.001456  f :     0.006556
      f+1     :     0.000461
      f-1     :     0.000675
      f+2     :     0.000709
      f-2     :     0.000534
      f+3     :     0.001136
      f-3     :     0.001584
  2 C s       :     3.197768  s :     3.197768
      pz      :     0.988945  p :     2.741321
      px      :     0.875049
      py      :     0.877327
      dz2     :     0.035813  d :     0.139508
      dxz     :     0.016543
      dyz     :     0.016808
      dx2y2   :     0.028967
      dxy     :     0.041377
      f0      :     0.001583  f :     0.008848
      f+1     :     0.000814
      f-1     :     0.000865
      f+2     :     0.000972
      f-2     :     0.000745
      f+3     :     0.001969
      f-3     :     0.001900
  3 N s       :     3.448006  s :     3.448006
      pz      :     1.147275  p :     3.771498
      px      :     1.038613
      py      :     1.585610
      dz2     :     0.019017  d :     0.058401
      dxz     :     0.008196
      dyz     :     0.002319
      dx2y2   :     0.008215
      dxy     :     0.020656
      f0      :     0.000457  f :     0.003291
      f+1     :     0.000387
      f-1     :     0.000224
      f+2     :     0.000163
      f-2     :     0.000587
      f+3     :     0.000557
      f-3     :     0.000916
  4 C s       :     3.197770  s :     3.197770
      pz      :     0.988947  p :     2.741325
      px      :     0.874837
      py      :     0.877541
      dz2     :     0.035812  d :     0.139506
      dxz     :     0.016553
      dyz     :     0.016798
      dx2y2   :     0.028939
      dxy     :     0.041405
      f0      :     0.001583  f :     0.008848
      f+1     :     0.000815
      f-1     :     0.000864
      f+2     :     0.000973
      f-2     :     0.000744
      f+3     :     0.001969
      f-3     :     0.001900
  5 C s       :     3.209756  s :     3.209756
      pz      :     0.991873  p :     2.870677
      px      :     0.961122
      py      :     0.917682
      dz2     :     0.033102  d :     0.108874
      dxz     :     0.013135
      dyz     :     0.014161
      dx2y2   :     0.024545
      dxy     :     0.023930
      f0      :     0.001456  f :     0.006556
      f+1     :     0.000461
      f-1     :     0.000675
      f+2     :     0.000708
      f-2     :     0.000535
      f+3     :     0.001137
      f-3     :     0.001583
  6 H s       :     0.830361  s :     0.830361
      pz      :     0.027141  p :     0.064191
      px      :     0.012798
      py      :     0.024253
      dz2     :     0.001913  d :     0.005331
      dxz     :     0.001324
      dyz     :     0.001971
      dx2y2   :     0.000041
      dxy     :     0.000081
  7 H s       :     0.866097  s :     0.866097
      pz      :     0.006956  p :     0.027444
      px      :     0.010476
      py      :     0.010013
      dz2     :     0.000431  d :     0.002392
      dxz     :     0.000366
      dyz     :     0.000183
      dx2y2   :     0.000809
      dxy     :     0.000602
  8 H s       :     0.889131  s :     0.889131
      pz      :     0.011588  p :     0.025960
      px      :     0.005947
      py      :     0.008424
      dz2     :     0.000757  d :     0.002450
      dxz     :     0.000732
      dyz     :     0.000902
      dx2y2   :     0.000041
      dxy     :     0.000019
  9 H s       :     0.889135  s :     0.889135
      pz      :     0.011588  p :     0.025959
      px      :     0.005945
      py      :     0.008427
      dz2     :     0.000757  d :     0.002450
      dxz     :     0.000732
      dyz     :     0.000901
      dx2y2   :     0.000041
      dxy     :     0.000019
 10 H s       :     0.866091  s :     0.866091
      pz      :     0.006956  p :     0.027445
      px      :     0.010468
      py      :     0.010021
      dz2     :     0.000431  d :     0.002392
      dxz     :     0.000366
      dyz     :     0.000183
      dx2y2   :     0.000810
      dxy     :     0.000601
 11 H s       :     0.888791  s :     0.888791
      pz      :     0.010690  p :     0.026940
      px      :     0.008190
      py      :     0.008059
      dz2     :     0.000656  d :     0.002393
      dxz     :     0.000789
      dyz     :     0.000882
      dx2y2   :     0.000038
      dxy     :     0.000027
 12 H s       :     0.866814  s :     0.866814
      pz      :     0.006991  p :     0.028586
      px      :     0.011705
      py      :     0.009890
      dz2     :     0.000403  d :     0.002450
      dxz     :     0.000407
      dyz     :     0.000165
      dx2y2   :     0.000849
      dxy     :     0.000626
 13 H s       :     0.866811  s :     0.866811
      pz      :     0.006991  p :     0.028586
      px      :     0.011707
      py      :     0.009888
      dz2     :     0.000403  d :     0.002450
      dxz     :     0.000407
      dyz     :     0.000165
      dx2y2   :     0.000848
      dxy     :     0.000627
 14 H s       :     0.888792  s :     0.888792
      pz      :     0.010690  p :     0.026940
      px      :     0.008189
      py      :     0.008060
      dz2     :     0.000656  d :     0.002393
      dxz     :     0.000789
      dyz     :     0.000883
      dx2y2   :     0.000038
      dxy     :     0.000027
 15 H s       :     0.881162  s :     0.881162
      pz      :     0.011140  p :     0.027726
      px      :     0.008918
      py      :     0.007668
      dz2     :     0.000660  d :     0.002406
      dxz     :     0.000967
      dyz     :     0.000719
      dx2y2   :     0.000015
      dxy     :     0.000046
 16 H s       :     0.861381  s :     0.861381
      pz      :     0.006886  p :     0.028385
      px      :     0.008911
      py      :     0.012588
      dz2     :     0.000406  d :     0.002410
      dxz     :     0.000064
      dyz     :     0.000489
      dx2y2   :     0.000490
      dxy     :     0.000961


                     *******************************
                     * LOEWDIN POPULATION ANALYSIS *
                     *******************************

----------------------
LOEWDIN ATOMIC CHARGES
----------------------
   0 C :    0.053076
   1 C :    0.047460
   2 C :   -0.016651
   3 N :    0.290232
   4 C :   -0.016635
   5 C :    0.047450
   6 H :   -0.114446
   7 H :   -0.029783
   8 H :   -0.028748
   9 H :   -0.028750
  10 H :   -0.029787
  11 H :   -0.031520
  12 H :   -0.027440
  13 H :   -0.027438
  14 H :   -0.031521
  15 H :   -0.027044
  16 H :   -0.028454

-------------------------------
LOEWDIN REDUCED ORBITAL CHARGES
-------------------------------
  0 C s       :     2.661076  s :     2.661076
      pz      :     0.963613  p :     2.823354
      px      :     0.913033
      py      :     0.946708
      dz2     :     0.115916  d :     0.422777
      dxz     :     0.062485
      dyz     :     0.041216
      dx2y2   :     0.117004
      dxy     :     0.086156
      f0      :     0.005896  f :     0.039717
      f+1     :     0.005580
      f-1     :     0.002377
      f+2     :     0.005190
      f-2     :     0.006190
      f+3     :     0.008012
      f-3     :     0.006472
  1 C s       :     2.666034  s :     2.666034
      pz      :     0.963203  p :     2.830810
      px      :     0.937538
      py      :     0.930069
      dz2     :     0.114946  d :     0.416511
      dxz     :     0.047368
      dyz     :     0.057692
      dx2y2   :     0.096288
      dxy     :     0.100217
      f0      :     0.005869  f :     0.039185
      f+1     :     0.003096
      f-1     :     0.004857
      f+2     :     0.006016
      f-2     :     0.005312
      f+3     :     0.007522
      f-3     :     0.006512
  2 C s       :     2.670828  s :     2.670828
      pz      :     0.970740  p :     2.776214
      px      :     0.881538
      py      :     0.923936
      dz2     :     0.132492  d :     0.513235
      dxz     :     0.057858
      dyz     :     0.061044
      dx2y2   :     0.114996
      dxy     :     0.146845
      f0      :     0.006861  f :     0.056374
      f+1     :     0.005361
      f-1     :     0.005835
      f+2     :     0.008285
      f-2     :     0.007663
      f+3     :     0.012685
      f-3     :     0.009684
  3 N s       :     2.904313  s :     2.904313
      pz      :     1.156189  p :     3.579606
      px      :     1.037715
      py      :     1.385702
      dz2     :     0.062536  d :     0.211629
      dxz     :     0.037733
      dyz     :     0.013677
      dx2y2   :     0.043572
      dxy     :     0.054111
      f0      :     0.002230  f :     0.014221
      f+1     :     0.002577
      f-1     :     0.001011
      f+2     :     0.000921
      f-2     :     0.002134
      f+3     :     0.003227
      f-3     :     0.002121
  4 C s       :     2.670829  s :     2.670829
      pz      :     0.970742  p :     2.776210
      px      :     0.881431
      py      :     0.924037
      dz2     :     0.132488  d :     0.513224
      dxz     :     0.057894
      dyz     :     0.061006
      dx2y2   :     0.114884
      dxy     :     0.146953
      f0      :     0.006862  f :     0.056372
      f+1     :     0.005367
      f-1     :     0.005827
      f+2     :     0.008290
      f-2     :     0.007657
      f+3     :     0.012676
      f-3     :     0.009693
  5 C s       :     2.666024  s :     2.666024
      pz      :     0.963201  p :     2.830810
      px      :     0.937576
      py      :     0.930033
      dz2     :     0.114948  d :     0.416528
      dxz     :     0.047354
      dyz     :     0.057711
      dx2y2   :     0.096363
      dxy     :     0.100151
      f0      :     0.005869  f :     0.039187
      f+1     :     0.003093
      f-1     :     0.004860
      f+2     :     0.006014
      f-2     :     0.005315
      f+3     :     0.007522
      f-3     :     0.006513
  6 H s       :     0.783008  s :     0.783008
      pz      :     0.127918  p :     0.270618
      px      :     0.051321
      py      :     0.091380
      dz2     :     0.020672  d :     0.060820
      dxz     :     0.015586
      dyz     :     0.023271
      dx2y2   :     0.000531
      dxy     :     0.000759
  7 H s       :     0.854713  s :     0.854713
      pz      :     0.042634  p :     0.147366
      px      :     0.057813
      py      :     0.046920
      dz2     :     0.004866  d :     0.027704
      dxz     :     0.005728
      dyz     :     0.002644
      dx2y2   :     0.007522
      dxy     :     0.006943
  8 H s       :     0.855082  s :     0.855082
      pz      :     0.076640  p :     0.146011
      px      :     0.032719
      py      :     0.036651
      dz2     :     0.009716  d :     0.027655
      dxz     :     0.008642
      dyz     :     0.008984
      dx2y2   :     0.000200
      dxy     :     0.000114
  9 H s       :     0.855083  s :     0.855083
      pz      :     0.076641  p :     0.146012
      px      :     0.032712
      py      :     0.036660
      dz2     :     0.009716  d :     0.027655
      dxz     :     0.008641
      dyz     :     0.008986
      dx2y2   :     0.000200
      dxy     :     0.000113
 10 H s       :     0.854714  s :     0.854714
      pz      :     0.042635  p :     0.147369
      px      :     0.057771
      py      :     0.046962
      dz2     :     0.004866  d :     0.027704
      dxz     :     0.005721
      dyz     :     0.002652
      dx2y2   :     0.007525
      dxy     :     0.006941
 11 H s       :     0.850804  s :     0.850804
      pz      :     0.074671  p :     0.152684
      px      :     0.038409
      py      :     0.039604
      dz2     :     0.009288  d :     0.028032
      dxz     :     0.009228
      dyz     :     0.009240
      dx2y2   :     0.000172
      dxy     :     0.000103
 12 H s       :     0.846725  s :     0.846725
      pz      :     0.042796  p :     0.152865
      px      :     0.062722
      py      :     0.047346
      dz2     :     0.004817  d :     0.027850
      dxz     :     0.006037
      dyz     :     0.002337
      dx2y2   :     0.007722
      dxy     :     0.006937
 13 H s       :     0.846722  s :     0.846722
      pz      :     0.042797  p :     0.152865
      px      :     0.062750
      py      :     0.047318
      dz2     :     0.004817  d :     0.027851
      dxz     :     0.006043
      dyz     :     0.002331
      dx2y2   :     0.007717
      dxy     :     0.006942
 14 H s       :     0.850800  s :     0.850800
      pz      :     0.074672  p :     0.152688
      px      :     0.038409
      py      :     0.039607
      dz2     :     0.009288  d :     0.028033
      dxz     :     0.009229
      dyz     :     0.009240
      dx2y2   :     0.000172
      dxy     :     0.000103
 15 H s       :     0.847193  s :     0.847193
      pz      :     0.074607  p :     0.151855
      px      :     0.039157
      py      :     0.038091
      dz2     :     0.009325  d :     0.027997
      dxz     :     0.009046
      dyz     :     0.009358
      dx2y2   :     0.000050
      dxy     :     0.000219
 16 H s       :     0.847333  s :     0.847333
      pz      :     0.043133  p :     0.153182
      px      :     0.040001
      py      :     0.070047
      dz2     :     0.004773  d :     0.027939
      dxz     :     0.000746
      dyz     :     0.007678
      dx2y2   :     0.006351
      dxy     :     0.008392


                      *****************************
                      * MAYER POPULATION ANALYSIS *
                      *****************************

  NA   - Mulliken gross atomic population
  ZA   - Total nuclear charge
  QA   - Mulliken gross atomic charge
  VA   - Mayer's total valence
  BVA  - Mayer's bonded valence
  FA   - Mayer's free valence

  ATOM       NA         ZA         QA         VA         BVA        FA
  0 C      6.1899     6.0000    -0.1899     3.8535     3.8535    -0.0000
  1 C      6.1959     6.0000    -0.1959     3.8118     3.8118     0.0000
  2 C      6.0874     6.0000    -0.0874     3.9498     3.9498    -0.0000
  3 N      7.2812     7.0000    -0.2812     2.9797     2.9797     0.0000
  4 C      6.0874     6.0000    -0.0874     3.9498     3.9498     0.0000
  5 C      6.1959     6.0000    -0.1959     3.8118     3.8118    -0.0000
  6 H      0.8999     1.0000     0.1001     1.0315     1.0315     0.0000
  7 H      0.8959     1.0000     0.1041     0.9827     0.9827    -0.0000
  8 H      0.9175     1.0000     0.0825     0.9811     0.9811     0.0000
  9 H      0.9175     1.0000     0.0825     0.9811     0.9811     0.0000
 10 H      0.8959     1.0000     0.1041     0.9827     0.9827     0.0000
 11 H      0.9181     1.0000     0.0819     0.9866     0.9866     0.0000
 12 H      0.8979     1.0000     0.1021     0.9818     0.9818     0.0000
 13 H      0.8978     1.0000     0.1022     0.9818     0.9818    -0.0000
 14 H      0.9181     1.0000     0.0819     0.9866     0.9866    -0.0000
 15 H      0.9113     1.0000     0.0887     0.9844     0.9844     0.0000
 16 H      0.8922     1.0000     0.1078     0.9784     0.9784    -0.0000

  Mayer bond orders larger than 0.1
B(  0-C ,  1-C ) :   0.9424 B(  0-C ,  5-C ) :   0.9424 B(  0-C , 15-H ) :   0.9852 
B(  0-C , 16-H ) :   0.9952 B(  1-C ,  2-C ) :   0.9397 B(  1-C , 11-H ) :   0.9815 
B(  1-C , 12-H ) :   0.9877 B(  2-C ,  3-N ) :   1.0022 B(  2-C ,  7-H ) :   0.9981 
B(  2-C ,  8-H ) :   0.9874 B(  3-N ,  4-C ) :   1.0022 B(  3-N ,  6-H ) :   1.0007 
B(  4-C ,  5-C ) :   0.9397 B(  4-C ,  9-H ) :   0.9874 B(  4-C , 10-H ) :   0.9981 
B(  5-C , 13-H ) :   0.9877 B(  5-C , 14-H ) :   0.9815 

-------
TIMINGS
-------

Total SCF time: 0 days 0 hours 0 min 13 sec 

Total time                  ....      13.606 sec
Sum of individual times     ....      13.342 sec  ( 98.1%)

Fock matrix formation       ....      12.677 sec  ( 93.2%)
Diagonalization             ....       0.094 sec  (  0.7%)
Density matrix formation    ....       0.014 sec  (  0.1%)
Population analysis         ....       0.045 sec  (  0.3%)
Initial guess               ....       0.253 sec  (  1.9%)
Orbital Transformation      ....       0.000 sec  (  0.0%)
Orbital Orthonormalization  ....       0.000 sec  (  0.0%)
DIIS solution               ....       0.000 sec  (  0.0%)
SOSCF solution              ....       0.115 sec  (  0.8%)


           ************************************************************
           *        Program running with 8 parallel MPI-processes     *
           *              working on a common directory               *
           ************************************************************


------------------------------------------------------------------------------- 
                              ORCA-MATRIX DRIVEN CI                            
------------------------------------------------------------------------------- 


Wavefunction type
-----------------
Correlation treatment                      ...      CCSD     
Single excitations                         ... ON
Orbital optimization                       ... OFF
Calculation of Z vector                    ... OFF
Calculation of Brueckner orbitals          ... OFF
Perturbative triple excitations            ... ON
Calculation of F12 correction              ... OFF
Frozen core treatment                      ... chemical core (12 el)
Reference Wavefunction                     ... RHF
  Internal Orbitals:     6 ...   23 ( 18 MO's/ 36 electrons)
  Virtual  Orbitals:    24 ...  333 (310 MO's              )
Number of AO's                             ...    334
Number of electrons                        ...     48
Number of correlated electrons             ...     36

Algorithmic settings
--------------------
Integral transformation                    ... All integrals via the RI transformation
K(C) Formation                             ... RI-DLPNO
   PNO-Integral Storage                    ... ON DISK
   PNO occupation number cut-off           ... 1.000e-07
   Singles PNO occupation number cut-off   ... 3.000e-09
   PNO Mulliken prescreening cut-off       ... 1.000e-03
   Domain cut-off (Mulliken population)    ... 1.000e-03
   PNO Normalization                       ...    1
Maximum number of iterations               ...        50
Convergence tolerance (max. residuum)      ... 1.000e-05
Level shift for amplitude update           ... 2.000e-01
Maximum number of DIIS vectors             ...         7
DIIS turned on at iteration                ...         0
Damping before turning on DIIS             ...     0.500
Damping after turning on DIIS              ...     0.000
Pair specific amplitude update             ... OFF
Natural orbital iterations                 ... OFF
Perturbative natural orbital generation    ... OFF
Printlevel                                 ... 2

Singles Fock matrix elements calculated using PNOs.

Memory handling:
----------------
Maximum memory for working arrays          ...   8000 MB
Data storage in matrix containers          ... UNCOMPRESSED
Data type for integral storage             ... DOUBLE
In-Core Storage of quantities:
   Amplitudes+Sigma Vector      ... NO
   J+K operators                ... NO
   DIIS vectors                 ... NO
   3-external integrals         ... NO
   4-external integrals         ... NO

Localization treatment:
-----------------------
Localization option                        ...    6
Localization threshhold                    ... -1.0e+00
Using relative localization threshhold     ... 1.0e-08
Neglect threshold for strong pairs         ... 1.000e-05 Eh
Prescreening threshold for very weak pairs ... 1.000e-07 Eh

Initializing the integral package          ... done
Localizing the valence orbitals
------------------------------------------------------------------------------
                           ORCA ORBITAL LOCALIZATION
------------------------------------------------------------------------------

Input orbitals are from                  ... piperidine_ax.proc0.gbw
Output orbitals are to                   ... piperidine_ax.proc0.loc
Max. number of iterations                ... 128
Localizations seeded randomly            ... off
Convergence tolerance                    ... 1.000e-06
Using relative localization threshhold   ... 1.000e-08
Treshold for strong local MOs            ... 9.500e-01
Treshold for bond MOs                    ... 8.500e-01
Operator                                 ... 0
Orbital range for localization           ... 6 to 23
Localization criterion                   ... FOSTER-BOYS (AUGMENTED HESSIAN)
Doing the dipole integrals     ... o.k.
Initial value of the localization sum :   134.537396
ITERATION   0 : L=  190.9783853102 DL=  5.64e+01 (AVERGE_DL)=    0.6073675615 
ITERATION   1 : L=  194.6207432689 DL=  3.64e+00 (AVERGE_DL)=    0.1542927774 
ITERATION   2 : L=  194.6956090846 DL=  7.49e-02 (AVERGE_DL)=    0.0221205573 
ITERATION   3 : L=  194.6956952015 DL=  8.61e-05 (AVERGE_DL)=    0.0007502369 
ITERATION   4 : L=  194.6956956387 DL=  4.37e-07 (AVERGE_DL)=    0.0000534554 
LOCALIZATION SUM CONVERGED

------------------------------------------------------
AUGMENTED HESSIAN OPTIMIZATION OF FOSTER-BOYS ORBITALS
------------------------------------------------------

Spin operator:           0
Orbital window:          6 to 23
Number of iterations:    128
Gradient tolerance:      1.000e-06
Number of pairs:         153
Davidson threshold:      2000
Diagonalization method:  LAPACK
Iter:    0   L: 194.6956956387   Grad. norm: 6.961415e-04
   *** Likely close to a maximum now. ***
       Augmented Hessian eigenvalues:  1.08e-08 -6.30e+00 -6.70e+00 -9.52e+00 ... 
Iter:    1   L: 194.6956956440   Grad. norm: 3.009416e-09
LOCALIZATION HAS CONVERGED.

Eigenvalues of the Hessian:
  0 -6.305e+00
  1 -6.697e+00
  2 -9.516e+00
  3 -1.219e+01
  4 -1.572e+01
  5 -1.630e+01
  6 -1.799e+01
  7 -1.802e+01
  8 -1.803e+01
  9 -1.823e+01
    ...


------------------------------------------------------------------------------- 
                    LOCALIZED MOLECULAR ORBITAL COMPOSITIONS                   
------------------------------------------------------------------------------- 

The Mulliken populations for each LMO on each atom are computed
The LMO`s will be ordered according to atom index and type
  (A) Strongly localized MO`s have populations of >=0.950 on one atom
  (B) Two center bond orbitals have populations of >=0.850 on two atoms
  (C) Other MO`s are considered to be `delocalized`

FOUND  -   1 strongly local MO`s
       -  17 two center bond MO`s
       -   0 significantly delocalized MO`s

Rather strongly localized orbitals:
MO   6:   3N  -   0.962187
Bond-like localized orbitals:
MO  23:  16H  -   0.464121  and   0C  -   0.569697
MO  22:  15H  -   0.474271  and   0C  -   0.553371
MO  21:  14H  -   0.477415  and   5C  -   0.547656
MO  20:  13H  -   0.466019  and   5C  -   0.562894
MO  19:  12H  -   0.466021  and   1C  -   0.562892
MO  18:  11H  -   0.477414  and   1C  -   0.547656
MO  17:  10H  -   0.463895  and   4C  -   0.573423
MO  16:   9H  -   0.478642  and   4C  -   0.555923
MO  15:   8H  -   0.478640  and   2C  -   0.555925
MO  14:   7H  -   0.463899  and   2C  -   0.573420
MO  13:   6H  -   0.458369  and   3N  -   0.552130
MO  12:   5C  -   0.545472  and   4C  -   0.501191
MO  11:   5C  -   0.513932  and   0C  -   0.516693
MO  10:   4C  -   0.420556  and   3N  -   0.599859
MO   9:   3N  -   0.599860  and   2C  -   0.420555
MO   8:   2C  -   0.501192  and   1C  -   0.545471
MO   7:   1C  -   0.513933  and   0C  -   0.516692
Localized MO's were stored in: piperidine_ax.proc0.loc

Localizing the core orbitals
------------------------------------------------------------------------------
                           ORCA ORBITAL LOCALIZATION
------------------------------------------------------------------------------

Input orbitals are from                  ... piperidine_ax.proc0.loc
Output orbitals are to                   ... piperidine_ax.proc0.loc
Max. number of iterations                ... 128
Localizations seeded randomly            ... off
Convergence tolerance                    ... 1.000e-06
Using relative localization threshhold   ... 1.000e-08
Treshold for strong local MOs            ... 9.500e-01
Treshold for bond MOs                    ... 8.500e-01
Operator                                 ... 0
Orbital range for localization           ... 0 to 5
Localization criterion                   ... FOSTER-BOYS (AUGMENTED HESSIAN)
Doing the dipole integrals     ... o.k.
Initial value of the localization sum :    46.171028
ITERATION   0 : L=   46.1710299410 DL=  1.47e-06 (AVERGE_DL)=    0.0003126224 
ITERATION   1 : L=   46.1710299410 DL=  0.00e+00 (AVERGE_DL)=    0.0000000000 
LOCALIZATION SUM CONVERGED

------------------------------------------------------
AUGMENTED HESSIAN OPTIMIZATION OF FOSTER-BOYS ORBITALS
------------------------------------------------------

Spin operator:           0
Orbital window:          0 to 5
Number of iterations:    128
Gradient tolerance:      1.000e-06
Number of pairs:         15
Davidson threshold:      2000
Diagonalization method:  LAPACK
Iter:    0   L: 46.1710299410   Grad. norm: 1.246502e-06
   *** Likely close to a maximum now. ***
       Augmented Hessian eigenvalues:  1.90e-14 -3.08e+01 -3.08e+01 -3.38e+01 ... 
Iter:    1   L: 46.1710299410   Grad. norm: 9.950360e-21
LOCALIZATION HAS CONVERGED.

Eigenvalues of the Hessian:
  0 -3.077e+01
  1 -3.077e+01
  2 -3.377e+01
  3 -3.378e+01
  4 -3.386e+01
  5 -3.386e+01
  6 -8.509e+01
  7 -9.102e+01
  8 -9.103e+01
  9 -9.152e+01
    ...


------------------------------------------------------------------------------- 
                    LOCALIZED MOLECULAR ORBITAL COMPOSITIONS                   
------------------------------------------------------------------------------- 

The Mulliken populations for each LMO on each atom are computed
The LMO`s will be ordered according to atom index and type
  (A) Strongly localized MO`s have populations of >=0.950 on one atom
  (B) Two center bond orbitals have populations of >=0.850 on two atoms
  (C) Other MO`s are considered to be `delocalized`

FOUND  -   6 strongly local MO`s
       -   0 two center bond MO`s
       -   0 significantly delocalized MO`s

Rather strongly localized orbitals:
MO   5:   5C  -   1.001399
MO   4:   4C  -   1.001282
MO   3:   3N  -   1.000257
MO   2:   2C  -   1.001282
MO   1:   1C  -   1.001399
MO   0:   0C  -   1.001491
Localized MO's were stored in: piperidine_ax.proc0.loc

Warning: internal orbitals are localized - no re-canonicalization of internal orbitals

--------------------------
CLOSED-SHELL FOCK OPERATOR
--------------------------

RI-JK section for the Fock operator:
  RHF full Fock operator         ... done
  RHF frozen core Fock operator  ... done
Time needed for Fock operator              ...            2.068 sec
Reference energy                           ...   -250.273880961

--------------
DLPNO SETTINGS (2015 fully linear scaling implementation)
--------------

TCutMKN:           1.000e-03
TCutPAO:           1.000e-03
TCutPNO:           1.000e-07
TCutPNOSingles:    3.000e-09
TCutEN:            9.700e-01
TCutPAOExt:        1.000e-01
TCutPairs:         1.000e-05
TCutPre:           1.000e-07
TCutOSV:           1.000e-06
TCutDOij:          1.000e-05
TCutDO:            5.000e-03
TCutC:             1.000e-04
TCutCPAO:          1.000e-03
TCutCMO:           1.000e-03
TScaleDOMP2PreScr: 2.000e+00
TScaleMKNMP2PreScr:1.000e+01
TScalePNOMP2PreScr:1.000e+00
PAO overlap thresh 1.000e-08
Using PNOs for Singles Fock computation
Use new domains
Use fully linear algorithm
TCutTNO:           1.000e-09
TCutMP2Pairs:      1.000e-06
TCutDOStrong:      2.000e-03
TCutMKNStrong:     1.000e-02
TCutMKNWeak:       1.000e-01
TCutDOWeak:        4.000e-03
NTCutTNO:          1

--------------------------
Calculating differential overlap integrals ... ok
--------------------------
ELECTRON PAIR PRESCREENING
--------------------------

Dipole-based pair screening          .... used

   TCutDOij = 1.000000e-05
   TCutPre  = 1.000000e-07
   .... Finished loop over pairs
Total time spent in the prescreening                  ...     0.000 sec
sum of pair energies estimated for screened out pairs ...       0.000000000000 Eh
Thresholds for map construction and integral transformation for crude MP2:
   TCutMKN                    ...     1.0e-02
   TCutDO                     ...     1.0e-02
   TCutPairs                  ...     1.0e-05
   TCutPNO_CrudeMP2           ...     1.0e-07
   TCutPNOSingles_CrudeMP2    ...     3.0e-09
--------------------------------
LOCAL RI TRANSFORMATION (IAVPAO)
--------------------------------

Orbital window:       6 to 23
Number of PAOs:     334
Basis functions:    334 (126 shells)
Aux. functions:     816 (248 shells)

Processing maps (0.0 sec)
Average map sizes:
   Aux shells -> MOs              18.0
   Aux shells -> PAOs            334.0
   MOs        -> AO shells       125.3
   PAOs       -> AO shells       126.0

Calculating integrals (0.7 sec, 37.438 MB)
Sorting integrals (0.1 sec, 37.428 MB)
Total time for the integral transformation: 0.8 sec
--------------------------------
INITIAL GUESS AND PNO GENERATION
--------------------------------

PNO truncation parameters                   .... 
    PAOOverlapThresh   =        1.000e-08

    TCutPairs          =        1.000e-05
    TCutPNO            =        1.000e-07
    TCutPNOSingles     =        3.000e-09
    TCutMP2Pairs       =        1.000e-06
    TCutMKN            =        1.000e-02
    TCutDO             =        1.000e-02

Pair selection                          .... not used
Type of local MP2 treatment                 .... semi-local MP2
Strategy for PNO selection                  .... occupation number selection
Pair density normalization                  .... MP2 norm
Spin component scaling                      .... not used

   .... Finished loop over pairs
Making pair pair interaction lists          ... done

                       ===========================
                        171 OF  171 PAIRS ARE KEPT CCSD PAIRS
                          0 OF  171 PAIRS ARE KEPT MP2 PAIRS FOR (T)
                          0 OF  171 PAIRS ARE SKIPPED
                       ===========================

Total time spent in the initial guess                 ...     1.788 sec
SL-MP2 correlation energy (all non-screened pairs)    ...      -1.046250085665 Eh

Initial PNO correlation energy                        ...      -1.045128338755 Eh
sum of pair energies prescreened and skipped MP2 pairs...       0.000000000000 Eh
sum of pair energies of crude MP2 skipped pairs only  ...       0.000000000000 Eh
sum of MP2 pair energies for pairs that were not kept ...       0.000000000000 Eh
sum of PNO error estimates for the kept pairs         ...      -0.001121746910 Eh
                                                          --------------------
sum of all corrections                                         -0.001121746910
Initial total correlation energy                               -1.046250085665
Thresholds for map construction and integral transformation for fine MP2 and CCSD(T) calculation:
   TCutMKN   ...     1.0e-03
   TCutDO    ...     5.0e-03
   TCutPairs ...     1.0e-05
   TCutCMO   ...     1.0e-03
   TCutCPAO  ...     1.0e-03

Thresholds for map construction and integral transformation for strong Triples:
   TCutMKN   ...     1.0e-02
   TCutDO    ...     1.0e-02
   TCutCMO   ...     1.0e-03
   TCutCPAO  ...     1.0e-03

Thresholds for map construction and integral transformation for weak Triples:
   TCutMKN   ...     1.0e-01
   TCutDO    ...     2.0e-02
   TCutCMO   ...     1.0e-03
   TCutCPAO  ...     1.0e-03

--------------------------------
LOCAL RI TRANSFORMATION (IAVPAO)
--------------------------------

Orbital window:       6 to 23
Number of PAOs:     334
Basis functions:    334 (126 shells)
Aux. functions:     816 (248 shells)

Processing maps (0.0 sec)
Average map sizes:
   Aux shells -> MOs              18.0
   Aux shells -> PAOs            334.0
   MOs        -> AO shells       125.3
   PAOs       -> AO shells       126.0

Calculating integrals (0.7 sec, 37.438 MB)
Sorting integrals (0.1 sec, 37.428 MB)
Total time for the integral transformation: 0.8 sec
--------------------------------
INITIAL GUESS AND PNO GENERATION
--------------------------------

PNO truncation parameters                   .... 
    ScaleTCutPNO       =        1.000e-02
    PAOOverlapThresh   =        1.000e-08

    TCutPairs          =        1.000e-05
    TCutPNO            =        1.000e-07
    TCutPNOSingles     =        3.000e-09
    TCutMP2Pairs       =        1.000e-06
    TCutMKN            =        1.000e-03
    TCutDO             =        5.000e-03

Pair selection                          .... not used
Type of local MP2 treatment                 .... full local PMP2
Strategy for PNO selection                  .... occupation number selection
Pair density normalization                  .... MP2 norm
Spin component scaling                      .... not used

PASS-1: Formation of initial guess LMP2 amplitudes
Initial amplitudes guess done. Entering LMP2 iteration loop:
   Max. no of iterations          ...  50
   Energy convergence tolerance   ...    1.0e-07
   Residual convergence tolerance ...    5.0e-07
   Fock matrix cutoff             ...    1.0e-05 Eh
   DIIS convergence acceleration parameters:
        Max # vectors in DIIS     ... 7
        Start iteration of DIIS   ... 0
        Levelshift                ... 2.000e-01
        Damping factor 1          ... 5.000e-01
        Damping factor 2          ... 1.000e+00
   L-MP2 PNO cut-off              ...   1.0e-09
   L-MP2 PNO cut-off (core)       ...   1.0e-11
                           *** Turning on DIIS ***
LMP2-Iter=   0:  ELMP2= -1.064796006980  DE=   1.8e-02 RMAX=   3.5e-03
LMP2-Iter=   1:  ELMP2= -1.074349270066  DE=   9.6e-03 RMAX=   1.5e-03
LMP2-Iter=   2:  ELMP2= -1.075769188141  DE=   1.4e-03 RMAX=   2.6e-04
LMP2-Iter=   3:  ELMP2= -1.075894497075  DE=   1.3e-04 RMAX=   8.5e-05
LMP2-Iter=   4:  ELMP2= -1.075897937262  DE=   3.4e-06 RMAX=   1.4e-05
LMP2-Iter=   5:  ELMP2= -1.075896891228  DE=   1.0e-06 RMAX=   4.1e-06
LMP2-Iter=   6:  ELMP2= -1.075896781923  DE=   1.1e-07 RMAX=   7.4e-07
LMP2-Iter=   7:  ELMP2= -1.075896777051  DE=   4.9e-09 RMAX=   2.1e-07
LMP2-Iter=   8:  ELMP2= -1.075896780085  DE=   3.0e-09 RMAX=   2.7e-08 => CONVERGED
PASS-2: Formation of Pair natural orbitals
   .... Finished loop over pairs

 PNO Occupation Number Statistics: 
  | Av. % of trace(Dij) retained        ...  99.682021102529
  | sigma^2 in % of trace(Dij) retained ...   1.17e-01
  | Av. % of trace(Di) retained         ...  99.999708291125
  | sigma^2 in % of trace(Di) retained  ...   4.18e-09
 Distributions of % trace(Dij) recovered:
  |       >= 99.9  ...    54 ( 31.6 % of all pairs)
  |   [90.0, 99.0) ...    11 (  6.4 % of all pairs)
  |   [99.0, 99.9) ...   106 ( 62.0 % of all pairs)
 Distributions of % trace(Di) recovered :
  |       >= 99.9  ...    18 (100.0 % of all I-pairs )

Making pair pair interaction lists          ... done

                       ===========================
                        171 OF  171 PAIRS ARE KEPT
                       ===========================

Total time spent in the initial guess                 ...    25.975 sec
L-MP2 correlation energy (all non-screened pairs)     ...      -1.075896780085 Eh
L-MP2 PNO error correction                            ...      -0.000023497527 Eh
                                                          --------------------
Initial total L-MP2 energy (non-screened pairs)       ...      -1.075920277611 Eh

Initial PNO correlation energy                        ...      -1.074847748839 Eh
sum of pair energies estimated for screened out pairs ...       0.000000000000 Eh
sum of MP2 pair energies for pairs that were not kept ...       0.000000000000 Eh
sum of PNO error estimates for the kept pairs         ...      -0.001072528773 Eh
                                                          --------------------
sum of all corrections                                         -0.001072528773
Initial total correlation energy                               -1.075920277611
Thresholds for map construction and integral transformation for fine MP2 and CCSD(T) calculation:
   TCutMKN   ...     1.0e-03
   TCutDO    ...     5.0e-03
   TCutPairs ...     1.0e-05
   TCutCMO   ...     1.0e-03
   TCutCPAO  ...     1.0e-03

Time for aux screen maps:            0.004
Time for maps after fine MP2:            0.012
-----------------------------
LOCAL RI TRANSFORMATION (IJV)
-----------------------------

Orbital window:       6 to 23
Basis functions:    334 (126 shells)
Aux. functions:     816 (248 shells)

Processing maps (0.0 sec)
Average map sizes:
   Aux shells -> MOs(i)           18.0
   Aux shells -> MOs(j)           18.0
   MOs        -> AO shells       125.3

Calculating integrals (0.6 sec, 2.026 MB)
Sorting integrals (0.0 sec, 2.017 MB)
Total time for the integral transformation: 0.7 sec
--------------------------------
LOCAL RI TRANSFORMATION (VABPAO)
--------------------------------

Number of PAOs:     334
Basis functions:    334 (126 shells)
Aux. functions:     816 (248 shells)

Processing maps (0.0 sec)
Average map sizes:
   Aux shells -> PAOs            334.0
   PAOs       -> AO shells       126.0

Calculating integrals (1.9 sec, 1309.868 MB)
Finished


-------------------------------------
Pair Pair Term precalculation with     
RI-(ij|mn) and (im|jn) transformation  
ON THE FLY                             
-------------------------------------

   IBatch   1 (of   2)              ... done (   67.440 sec)
   IBatch   2 (of   2)              ... done (    6.014 sec)
Total EXT                           ...          73.454 sec

---------------------
RI-PNO TRANSFORMATION
---------------------

Total Number of PNOs                   ...  7888
Average number of PNOs per pair        ...    46
Maximal number of PNOs per pair        ...    71
   #pairs with  1 -  5 PNOs   :    0
   #pairs with  6 - 10 PNOs   :    0
   #pairs with 11 - 15 PNOs   :    1
   #pairs with 16 - 20 PNOs   :    9
   #pairs with 21 - 25 PNOs   :    7
   #pairs with 26 - 30 PNOs   :   28
   #pairs with 31 - 35 PNOs   :    7
   #pairs with 36 - 40 PNOs   :    9
   #pairs with 41 - 45 PNOs   :    6
   #pairs with 46 - 50 PNOs   :   30
   #pairs with 51 - 55 PNOs   :   27
   #pairs with 56 - 60 PNOs   :    4
   #pairs with 61 - 65 PNOs   :   15
   #pairs with 66 - 70 PNOs   :   25
   #pairs with 71 - 75 PNOs   :    3

Generation of (ij|ab)[P] integrals            ... on
Generation of (ia|bc)[P],(ja|bc)[P] integrals ... on
Storage of 3 and 4 external integrals         ... on
Generation of ALL (ka|bc)[P] integrals        ... on
Keep RI integrals in memory                   ... off

Ibatch:  1 (of  1)
Starting 2-4 index PNO integral generation ... done

Timings:
Total PNO integral transformation time     ...         24.104 sec
Size of the 3-external file                ...       175 MB
Size of the 4-external file                ...      1296 MB
Size of the IKJL file                      ...         0 MB
Size of the all 3-external file            ...      1575 MB
Size of the 1-external file                ...         3 MB

Making pair/pair overlap matrices          ... done (    2.175 sec)
Size of the pair overlap file              ... 350 MB
Redoing the guess amplitudes               ... done (    0.048 sec)

-------------------------
FINAL STARTUP INFORMATION
-------------------------

E(0)                                       ...   -250.273880961
E(L-MP2)                                   ...     -1.075920278
E(L-MP2) including corrections             ...     -1.075920278
Initial E(tot)                             ...   -251.349801239
<T|T>                                      ...      0.302521561
Number of pairs included                   ... 171
Total number of pairs                      ... 171

------------------------------------------------
                  RHF COUPLED CLUSTER ITERATIONS
------------------------------------------------

Number of PNO amplitudes to be optimized   ...       406414
Number of non-PNO amplitudes               ...     16433100
Untruncated number of regular amplitudes   ...     16433100

Iter       E(tot)           E(Corr)          Delta-E          Residual     Time
  0   -251.320110866     -1.045157376      0.030762902      0.012385158   13.14
                           *** Turning on DIIS ***
  1   -251.370606708     -1.095653218     -0.050495843      0.005907894   13.29
  2   -251.398669646     -1.123716156     -0.028062938      0.001572263   12.16
  3   -251.403744103     -1.128790613     -0.005074457      0.000550995   12.28
  4   -251.404705070     -1.129751580     -0.000960966      0.000274092   12.30
  5   -251.404867277     -1.129913787     -0.000162207      0.000155344   12.32
  6   -251.404901694     -1.129948204     -0.000034417      0.000086373   12.34
  7   -251.404906449     -1.129952959     -0.000004755      0.000044551   12.43
  8   -251.404907685     -1.129954195     -0.000001236      0.000019012   12.43
  9   -251.404907416     -1.129953926      0.000000268      0.000005686   12.31
               --- The Coupled-Cluster iterations have converged ---

----------------------
COUPLED CLUSTER ENERGY
----------------------

E(0)                                       ...   -250.273880961
E(CORR)(strong-pairs)                      ...     -1.129953926
E(CORR)(weak-pairs)                        ...     -0.001072529
E(CORR)(corrected)                         ...     -1.131026455
E(TOT)                                     ...   -251.404907416
Singles Norm <S|S>**1/2                    ...      0.051748624  
T1 diagnostic                              ...      0.008624771  

------------------
LARGEST AMPLITUDES
------------------
  13-> 29  13-> 29       0.033155
  18-> 24  18-> 24       0.028369
  21-> 24  21-> 24       0.028369
  22-> 24  22-> 24       0.028254
  16-> 24  16-> 24       0.027989
  15-> 24  15-> 24       0.027988
  14-> 30  14-> 30       0.027843
  17-> 30  17-> 30       0.027842
  19-> 24  19-> 24       0.027252
  20-> 24  20-> 24       0.027252
  23-> 24  23-> 24       0.027024
  13-> 24  13-> 24       0.026729
  14-> 24  14-> 24       0.026702
  17-> 24  17-> 24       0.026702
  11-> 34  11-> 34       0.026178
   7-> 34   7-> 34       0.026163


-------------------------------------------
DLPNO BASED TRIPLES CORRECTION
-------------------------------------------

Singles multiplier          ...  1.000000
TCutTNO                     ... 1.000e-09
TCutMP2Pairs                ... 1.000e-06
TCutDOStrong                ... 1.000e-02
TCutMKNStrong               ... 1.000e-02
TCutDOWeak                  ... 2.000e-02
TCutMKNWeak                 ... 1.000e-01

Fragment selection                          .... not used
Number of Triples that are to be computed   ...      1122

 . . . . . . . . .
10% done  
20% done  
30% done  
40% done  
50% done  
60% done  
70% done  
80% done  
90% done               (    135.922 sec)
Triples timings:
Total time for T0               ...   144.331 sec
Total time for Iterative (T)    ...     0.000 sec
Total time of overall (T)       ...   146.217 sec

Triples List generation         ...     0.000 sec
TNO generation                  ...     8.392 sec
Pair density generation         ...     0.005 sec
Look up tables                  ...     0.000 sec
Generating 3-index integrals    ...    86.008 sec
  Make 4-ind.int. from 3-ind.int...    17.477 sec
  Projecting amplitudes (D + S) ...     9.834 sec
  Downprojecting integrals      ...     0.002 sec
  Energy contr. (sum over a,b,c)...     5.841 sec
Fitting ET(->0)                 ...     0.000 sec

Everything after 3-index        ...    49.913 sec

Timing details:
 TNO integrals                  ...   102.150 sec
   Reading 3-index integrals    ...     0.220 sec
   Sorting integrals            ...    13.121 sec
       Sorting integrals 1      ...     0.001 sec
       Sorting integrals 2      ...     5.556 sec
       Sorting integrals 3      ...     0.395 sec
       Sorting integrals 4      ...     0.019 sec
       Sorting integrals 5      ...     0.109 sec
       Sorting integrals 6      ...     7.041 sec
   Calculating local VM**-1/2   ...     0.388 sec
   Orthogonal. integrals        ...     0.730 sec
   Multipl. 3-index integrals   ...    87.690 sec
   All concerning IRIab (w/TNO) ...     8.891 sec

 Calculate W0/W1                ...    16.752 sec
 W 3-ext contribution           ...     9.406 sec
 W 3-int contribution           ...     2.252 sec
 Sorting W                      ...     4.863 sec

 V exchange contribution        ...     2.059 sec

 Timings for Triples without generation
     of 3-index integrals       ...    49.911 sec
       0 weak pairs             ...    49.911 sec
       1 weak pair              ...     0.000 sec
       2 weak pairs             ...     0.000 sec
       3 weak pairs             ...     0.000 sec
  Extra time for extrapolation  ...     0.000 sec

Number of Triples   (0, 1, 2, 3 weak pairs; overall):   1122       0       0       0  (  1122)
Number of Atoms     (0, 1, 2, 3 weak pairs; overall):   16.8     0.0     0.0     0.0  (    17)
Number of PAOs      (0, 1, 2, 3 weak pairs; overall):  330.7     0.0     0.0     0.0  (   334)
Number of AuxFcns   (0, 1, 2, 3 weak pairs; overall):  418.6     0.0     0.0     0.0  (   816)
Number of TNOs      (0, 1, 2, 3 weak pairs         ):  109.8     0.0     0.0     0.0
Aver. Number of NTNO, Atoms, PAOs, AuxFcns / Triples:   1122   109.8    16.8   330.7   418.6

Triples Correction (T)                     ...     -0.045051520
Final correlation energy                   ...     -1.176077975
E(CCSD)                                    ...   -251.404907416
E(CCSD(T))                                 ...   -251.449958937


Maximum memory used throughout the entire calculation: 7753.2 MB


------------------------------------------------------------------------------- 
                                     TIMINGS                                   
------------------------------------------------------------------------------- 


Total execution time                   ...      411.052 sec

Localization of occupied MO's          ...        0.553 sec (  0.1%)
Fock Matrix Formation                  ...        2.068 sec (  0.5%)
Global overlap, Fock, MKN matrices     ...        0.204 sec (  0.0%)
Differential overlap integrals         ...        0.119 sec (  0.0%)
Organizing maps                        ...        0.035 sec (  0.0%)
RI 3-index integral generations        ...        4.018 sec (  1.0%)
RI-PNO integral transformation         ...      100.090 sec ( 24.3%)
Initial Guess                          ...       27.808 sec (  6.8%)
DIIS Solver                            ...        1.589 sec (  0.4%)
State Vector Update                    ...        0.030 sec (  0.0%)
Sigma-vector construction              ...      124.698 sec ( 30.3%)
  <D|H|D>(0-ext)                       ...        2.427 sec (  1.9% of sigma)
  <D|H|D>(2-ext Fock)                  ...        0.012 sec (  0.0% of sigma)
  <D|H|D>(2-ext)                       ...       12.819 sec ( 10.3% of sigma)
  <D|H|D>(4-ext)                       ...       15.969 sec ( 12.8% of sigma)
  <D|H|D>(4-ext-corr)                  ...       67.554 sec ( 54.2% of sigma)
  CCSD doubles correction              ...        0.177 sec (  0.1% of sigma)
  <S|H|S>                              ...        0.850 sec (  0.7% of sigma)
  <S|H|D>(1-ext)                       ...        0.305 sec (  0.2% of sigma)
  <D|H|S>(1-ext)                       ...        0.010 sec (  0.0% of sigma)
  <S|H|D>(3-ext)                       ...        0.534 sec (  0.4% of sigma)
  Fock-dressing                        ...       16.172 sec ( 13.0% of sigma)
  Singles amplitudes                   ...        0.419 sec (  0.3% of sigma)
  (ik|jl)-dressing                     ...        1.847 sec (  1.5% of sigma)
  (ij|ab),(ia|jb)-dressing             ...        2.385 sec (  1.9% of sigma)
  Pair energies                        ...        0.008 sec (  0.0% of sigma)
Total Time for computing (T)           ...      146.266 sec ( 35.6% of ALL)


-------------------------   --------------------
FINAL SINGLE POINT ENERGY      -251.449958936725
-------------------------   --------------------


                            ***************************************
                            *     ORCA property calculations      *
                            ***************************************

                                    ---------------------
                                    Active property flags
                                    ---------------------
   (+) Dipole Moment


------------------------------------------------------------------------------
                       ORCA ELECTRIC PROPERTIES CALCULATION
------------------------------------------------------------------------------

Dipole Moment Calculation                       ... on
Quadrupole Moment Calculation                   ... off
Polarizability Calculation                      ... off
GBWName                                         ... piperidine_ax.gbw
Electron density file                           ... piperidine_ax.scfp.tmp
The origin for moment calculation is the CENTER OF MASS  = ( 0.000019, -0.045754  0.000776)

-------------
DIPOLE MOMENT
-------------
                                X             Y             Z
Electronic contribution:      0.00098      -1.79402      -0.19674
Nuclear contribution   :     -0.00121       2.19610      -0.03732
                        -----------------------------------------
Total Dipole Moment    :     -0.00023       0.40208      -0.23406
                        -----------------------------------------
Magnitude (a.u.)       :      0.46525
Magnitude (Debye)      :      1.18257



--------------------
Rotational spectrum 
--------------------
 
Rotational constants in cm-1:     0.148877     0.145581     0.083708 
Rotational constants in MHz :  4463.214557  4364.410999  2509.511634 

 Dipole components along the rotational axes: 
x,y,z [a.u.] :     0.402755     0.000153    -0.232903 
x,y,z [Debye]:     1.023722     0.000389    -0.591992 

 

Timings for individual modules:

Sum of individual times         ...      425.785 sec (=   7.096 min)
GTO integral calculation        ...        0.621 sec (=   0.010 min)   0.1 %
SCF iterations                  ...       13.738 sec (=   0.229 min)   3.2 %
MDCI module                     ...      411.427 sec (=   6.857 min)  96.6 %
                             ****ORCA TERMINATED NORMALLY****
TOTAL RUN TIME: 0 days 0 hours 7 minutes 6 seconds 274 msec
piperidine_ax.gbw -> /home1/pantazis/klk/xyz/Nitrogen_compounds/piperidine_ax.gbw
piperidine_ax.job -> /home1/pantazis/klk/xyz/Nitrogen_compounds/piperidine_ax.job
piperidine_ax.loc -> /home1/pantazis/klk/xyz/Nitrogen_compounds/piperidine_ax.loc
piperidine_ax.nodes -> /home1/pantazis/klk/xyz/Nitrogen_compounds/piperidine_ax.nodes
piperidine_ax.prop -> /home1/pantazis/klk/xyz/Nitrogen_compounds/piperidine_ax.prop
piperidine_ax_property.txt -> /home1/pantazis/klk/xyz/Nitrogen_compounds/piperidine_ax_property.txt
piperidine_ax.xyz -> /home1/pantazis/klk/xyz/Nitrogen_compounds/piperidine_ax.xyz
cp: cannot stat piperidine_ax.asa.inp: No such file or directory
