! Job execution by suborca V 6.07 on ZEUS !
Job started from zeus1, running /scratch/pantazis/propanediamine_gGGg__0sucis/orca/orca copied from /opt/orca on zeussn143 in /scratch/pantazis/propanediamine_gGGg__0sucis
Job execution start: Fri Jun 28 01:00:03 CEST 2019
Shared library path: /scratch/pantazis/propanediamine_gGGg__0sucis/orca:/opt/openmpi_1.10.2/lib:/opt/intel/mkl/lib/intel64:/opt/intel/lib/intel64:
PBS Job ID is: 158279.icqc
izeussn143
izeussn143
izeussn143
izeussn143
izeussn143
izeussn143
izeussn143
izeussn143

                                 *****************
                                 * O   R   C   A *
                                 *****************

           --- An Ab Initio, DFT and Semiempirical electronic structure package ---

                  #######################################################
                  #                        -***-                        #
                  #          Department of theory and spectroscopy      #
                  #               Directorship: Frank Neese             #
                  #        Max Planck Institute fuer Kohlenforschung    #
                  #                Kaiser Wilhelm Platz 1               #
                  #                 D-45470 Muelheim/Ruhr               #
                  #                      Germany                        #
                  #                                                     #
                  #                  All rights reserved                #
                  #                        -***-                        #
                  #######################################################


                         Program Version 4.1.x  -  STABLE  -
                                (SVN: $Rev: 14094$)
                ($Date: 2019-06-14 15:01:15 +0200 (Fri, 14 Jun 2019) $)

                         (BUILD: $Sun Jun 23 06:18:31 CEST 2019$)


 With contributions from (in alphabetic order):
   Daniel Aravena         : Magnetic Properties
   Michael Atanasov       : Ab Initio Ligand Field Theory
   Alexander A. Auer      : GIAO ZORA
   Ute Becker             : Parallelization
   Giovanni Bistoni       : ED, Open-shell LED
   Martin Brehm           : Molecular dynamics
   Dmytro Bykov           : SCF Hessian
   Vijay G. Chilkuri      : MRCI spin determinant printing
   Dipayan Datta          : RHF DLPNO-CCSD density
   Achintya Kumar Dutta   : EOM-CC, STEOM-CC
   Dmitry Ganyushin       : Spin-Orbit,Spin-Spin,Magnetic field MRCI
   Miquel Garcia          : C-PCM Hessian
   Yang Guo               : DLPNO-NEVPT2, CIM, IAO-localization
   Andreas Hansen         : Spin unrestricted coupled pair/coupled cluster methods
   Benjamin Helmich-Paris : CASSCF linear response (MC-RPA)
   Lee Huntington         : MR-EOM, pCC
   Robert Izsak           : Overlap fitted RIJCOSX, COSX-SCS-MP3, EOM
   Christian Kollmar      : KDIIS, OOCD, Brueckner-CCSD(T), CCSD density
   Simone Kossmann        : Meta GGA functionals, TD-DFT gradient, OOMP2, MP2 Hessian
   Martin Krupicka        : AUTO-CI
   Lucas Lang             : DCDCAS
   Dagmar Lenk            : GEPOL surface, SMD
   Dimitrios Liakos       : Extrapolation schemes; parallel MDCI
   Dimitrios Manganas     : ROCIS; embedding schemes
   Dimitrios Pantazis     : SARC Basis sets
   Taras Petrenko         : DFT Hessian,TD-DFT gradient, ASA, ECA, R-Raman, ABS, FL, XAS/XES, NRVS
   Peter Pinski           : DLPNO-MP2, DLPNO-MP2 Gradient
   Christoph Reimann      : Effective Core Potentials
   Marius Retegan         : Local ZFS, SOC
   Christoph Riplinger    : Optimizer, TS searches, QM/MM, DLPNO-CCSD(T), (RO)-DLPNO pert. Triples
   Tobias Risthaus        : Range-separated hybrids, TD-DFT gradient, RPA, STAB
   Michael Roemelt        : Restricted open shell CIS
   Masaaki Saitow         : Open-shell DLPNO
   Barbara Sandhoefer     : DKH picture change effects
   Avijit Sen             : IP-ROCIS
   Kantharuban Sivalingam : CASSCF convergence, NEVPT2, FIC-MRCI
   Bernardo de Souza      : ESD, SOC TD-DFT
   Georgi Stoychev        : AutoAux, RI-MP2 NMR
   Willem Van den Heuvel  : Paramagnetic NMR
   Boris Wezisla          : Elementary symmetry handling
   Frank Wennmohs         : Technical directorship


 We gratefully acknowledge several colleagues who have allowed us to
 interface, adapt or use parts of their codes:
   Stefan Grimme, W. Hujo, H. Kruse,             : VdW corrections, initial TS optimization,
                  C. Bannwarth                     DFT functionals, gCP, sTDA/sTD-DF
   Ed Valeev                                     : LibInt (2-el integral package), F12 methods
   Garnet Chan, S. Sharma, J. Yang, R. Olivares  : DMRG
   Ulf Ekstrom                                   : XCFun DFT Library
   Mihaly Kallay                                 : mrcc  (arbitrary order and MRCC methods)
   Andreas Klamt, Michael Diedenhofen            : otool_cosmo (COSMO solvation model)
   Jiri Pittner, Ondrej Demel                    : Mk-CCSD
   Frank Weinhold                                : gennbo (NPA and NBO analysis)
   Christopher J. Cramer and Donald G. Truhlar   : smd solvation model
   Lars Goerigk                                  : TD-DFT with DH, B97 family of functionals
   V. Asgeirsson, H. Jonsson                     : NEB implementation
   FAccTs GmbH                                   : IRC, NEB, NEB-TS, Multilevel


 Your calculation uses the libint2 library for the computation of 2-el integrals
 For citations please refer to: http://libint.valeyev.net

 This ORCA versions uses:
   CBLAS   interface :  Fast vector & matrix operations
   LAPACKE interface :  Fast linear algebra routines
   SCALAPACK package :  Parallel linear algebra routines




***************************************
The coordinates will be read from file: propanediamine_gGGg.xyz
***************************************


----- Orbital basis set information -----
Your calculation utilizes the basis: cc-pVTZ 
       H, B-Ne : Obtained from the ccRepo (grant-hill.group.shef.ac.uk/ccrepo) Feb. 2017
                 T. H. Dunning, Jr., J. Chem. Phys. 90, 1007 (1989)
            He : Obtained from the ccRepo (grant-hill.group.shef.ac.uk/ccrepo) Feb. 2017
                 D. E. Woon, T. H. Dunning, Jr., J. Chem. Phys. 100, 2975 (1994)
  Li-Be, Na-Mg : Obtained from the ccRepo (grant-hill.group.shef.ac.uk/ccrepo) Feb. 2017
                 B. P. Prascher, D. E. Woon, K. A. Peterson, T. H. Dunning, Jr., A. K. Wilson, Theor. Chem. Acc. 128, 69 (2011)
         Al-Ar : Obtained from the ccRepo (grant-hill.group.shef.ac.uk/ccrepo) Feb. 2017
                 D. E. Woon, T. H. Dunning, Jr., J. Chem. Phys. 98, 1358 (1993)
            Ca : Obtained from the Peterson Research Group Website (tyr0.chem.wsu.edu/~kipeters) Feb. 2017
                 J. Koput, K. A. Peterson, J. Phys. Chem. 106, 9595 (2002)
         Sc-Zn : Obtained from the ccRepo (grant-hill.group.shef.ac.uk/ccrepo) Feb. 2017
                 N. B. Balabanov, K. A. Peterson, J. Chem. Phys. 123, 064107 (2005)
                 N. B. Balabanov, K. A. Peterson, J. Chem. Phys. 125, 074110 (2006)
         Ga-Kr : Obtained from the ccRepo (grant-hill.group.shef.ac.uk/ccrepo) Feb. 2017
                 A. K. Wilson, D. E. Woon, K. A. Peterson, T. H. Dunning, Jr., J. Chem. Phys. 110, 7667 (1999)
             Y : Obtained from the ccRepo (grant-hill.group.shef.ac.uk/ccrepo) Feb. 2017
                 K. A. Peterson, D. Figgen, M. Dolg, H. Stoll, J. Chem. Phys. 126, 124101 (2007)
        Ag, Au : Obtained from the Peterson Research Group Website (tyr0.chem.wsu.edu/~kipeters) Feb. 2017
                 K. A. Peterson, C. Puzzarini, Theor. Chem. Acc. 114, 283 (2005)

----- AuxC basis set information -----
Your calculation utilizes the auxiliary basis: cc-pVTZ/C 
  Obtained from the EMSL Basis Set Exchange (bse.pnl.gov) Feb. 2017
  H-He, B-F, Al-Ar, Ga-Kr : F. Weigend, A. Kohn, C. Hattig, J. Chem. Phys. 116, 3175 (2002)
             Li-Be, Na-Mg : C. Haettig, Phys. Chem. Chem. Phys. 7, 59 (2005)
                       Ne : C. Haettig, Phys. Chem. Chem. Phys. 7, 59 (2005)
                            F. Weigend, A. Kohn, C. Hattig, J. Chem. Phys. 116, 3175 (2002)
                    Sc-Zn : J. G. Hill, J. A. Platts, J. Chem. Phys. 128, 044104 (2008)

----- AuxJK basis set information -----
Your calculation utilizes the auxiliary basis: cc-pVTZ/JK 
  H, B-F, Al-Cl, Ga-Br : Obtained from the TURBOMOLE 7.0 basis set library

================================================================================
                                        WARNINGS
                       Please study these warnings very carefully!
================================================================================


WARNING: MDCI localization with Augmented Hessian Foster-Boys
  ===> : Switching off randomization!

WARNING: Post HF methods need fully converged wavefunctions
  ===> : Setting SCFConvForced true
         You can overwrite this default with %scf ConvForced false 


INFO   : the flag for use of LIBINT has been found!

================================================================================
                                       INPUT FILE
================================================================================
NAME = propanediamine_gGGg.inp
|  1> ! RHF DLPNO-CCSD(T) cc-pVTZ RIJK cc-pVTZ/JK cc-pVTZ/C
|  2> ! KDIIS SOSCF TightSCF TightPNO
|  3> 
|  4> %pal nprocs 8 end
|  5> 
|  6> %maxcore 8000
|  7> 
|  8> %scf maxiter 300
|  9>      shift shift 0.2 erroff 0.1 end
| 10> end
| 11> 
| 12> * xyzfile 0 1 propanediamine_gGGg.xyz 
| 13> 
| 14> 
| 15>                          ****END OF INPUT****
================================================================================

                       ****************************
                       * Single Point Calculation *
                       ****************************

---------------------------------
CARTESIAN COORDINATES (ANGSTROEM)
---------------------------------
  C      1.302650    0.495980    0.208150
  C     -0.014500    1.034700   -0.364190
  C     -1.287400    0.462130    0.272220
  N     -1.545880   -0.912080   -0.172790
  N      1.448670   -0.955700   -0.000820
  H      1.320580    0.671510    1.291460
  H      2.136450    1.077000   -0.221520
  H      1.508770   -1.170320   -0.993970
  H      2.302060   -1.299010    0.431820
  H     -2.140440    1.078940   -0.036260
  H     -1.204990    0.562970    1.370800
  H     -0.776170   -1.512060    0.117380
  H     -2.407210   -1.269160    0.231300
  H     -0.010830    2.124060   -0.225480
  H     -0.052300    0.853700   -1.447300

----------------------------
CARTESIAN COORDINATES (A.U.)
----------------------------
  NO LB      ZA    FRAG     MASS         X           Y           Z
   0 C     6.0000    0    12.011    2.461652    0.937266    0.393346
   1 C     6.0000    0    12.011   -0.027401    1.955300   -0.688219
   2 C     6.0000    0    12.011   -2.432833    0.873299    0.514421
   3 N     7.0000    0    14.007   -2.921290   -1.723581   -0.326526
   4 N     7.0000    0    14.007    2.737590   -1.806011   -0.001550
   5 H     1.0000    0     1.008    2.495535    1.268970    2.440506
   6 H     1.0000    0     1.008    4.037305    2.035235   -0.418612
   7 H     1.0000    0     1.008    2.851162   -2.211584   -1.878331
   8 H     1.0000    0     1.008    4.350263   -2.454773    0.816022
   9 H     1.0000    0     1.008   -4.044845    2.038901   -0.068521
  10 H     1.0000    0     1.008   -2.277101    1.063859    2.590437
  11 H     1.0000    0     1.008   -1.466749   -2.857379    0.221816
  12 H     1.0000    0     1.008   -4.548968   -2.398365    0.437094
  13 H     1.0000    0     1.008   -0.020466    4.013892   -0.426095
  14 H     1.0000    0     1.008   -0.098833    1.613259   -2.735001

--------------------------------
INTERNAL COORDINATES (ANGSTROEM)
--------------------------------
 C      0   0   0     0.000000000000     0.00000000     0.00000000
 C      1   0   0     1.533843680595     0.00000000     0.00000000
 C      2   1   0     1.533991037458   115.25613301     0.00000000
 N      3   2   1     1.467412326035   111.70939195   285.34200992
 N      1   2   3     1.473894542937   112.21597949    62.39865222
 H      1   2   3     1.097584995296   109.03509393   303.78195987
 H      1   2   3     1.103368927105   108.58249646   187.85804061
 H      5   1   2     1.017851009186   110.60160356    64.55123990
 H      5   1   2     1.016520347952   110.82220187   183.20802661
 H      3   2   1     1.096946547513   108.58682128   166.69160847
 H      3   2   1     1.106272177224   108.43023196    51.22129803
 H      4   3   2     1.018149357118   109.40616681    61.95281053
 H      4   3   2     1.016210718011   110.96366600   181.86828765
 H      2   1   3     1.098161710587   107.36186127   121.26133528
 H      2   1   3     1.098779828765   109.84672502   236.96314731

---------------------------
INTERNAL COORDINATES (A.U.)
---------------------------
 C      0   0   0     0.000000000000     0.00000000     0.00000000
 C      1   0   0     2.898544488570     0.00000000     0.00000000
 C      2   1   0     2.898822952684   115.25613301     0.00000000
 N      3   2   1     2.773007421747   111.70939195   285.34200992
 N      1   2   3     2.785257036432   112.21597949    62.39865222
 H      1   2   3     2.074135049812   109.03509393   303.78195987
 H      1   2   3     2.085065096906   108.58249646   187.85804061
 H      5   1   2     1.923459652496   110.60160356    64.55123990
 H      5   1   2     1.920945067187   110.82220187   183.20802661
 H      3   2   1     2.072928558349   108.58682128   166.69160847
 H      3   2   1     2.090551444530   108.43023196    51.22129803
 H      4   3   2     1.924023448381   109.40616681    61.95281053
 H      4   3   2     1.920359951396   110.96366600   181.86828765
 H      2   1   3     2.075224883768   107.36186127   121.26133528
 H      2   1   3     2.076392957842   109.84672502   236.96314731

---------------------
BASIS SET INFORMATION
---------------------
There are 3 groups of distinct atoms

 Group   1 Type C   : 18s5p2d1f contracted to 4s3p2d1f pattern {8811/311/11/1}
 Group   2 Type N   : 18s5p2d1f contracted to 4s3p2d1f pattern {8811/311/11/1}
 Group   3 Type H   : 5s2p1d contracted to 3s2p1d pattern {311/11/1}

Atom   0C    basis set group =>   1
Atom   1C    basis set group =>   1
Atom   2C    basis set group =>   1
Atom   3N    basis set group =>   2
Atom   4N    basis set group =>   2
Atom   5H    basis set group =>   3
Atom   6H    basis set group =>   3
Atom   7H    basis set group =>   3
Atom   8H    basis set group =>   3
Atom   9H    basis set group =>   3
Atom  10H    basis set group =>   3
Atom  11H    basis set group =>   3
Atom  12H    basis set group =>   3
Atom  13H    basis set group =>   3
Atom  14H    basis set group =>   3
-------------------------------
AUXILIARY BASIS SET INFORMATION
-------------------------------
There are 3 groups of distinct atoms

 Group   1 Type C   : 8s6p5d3f1g contracted to 8s6p5d3f1g pattern {11111111/111111/11111/111/1}
 Group   2 Type N   : 8s6p5d3f1g contracted to 8s6p5d3f1g pattern {11111111/111111/11111/111/1}
 Group   3 Type H   : 4s3p2d1f contracted to 4s3p2d1f pattern {1111/111/11/1}

Atom   0C    basis set group =>   1
Atom   1C    basis set group =>   1
Atom   2C    basis set group =>   1
Atom   3N    basis set group =>   2
Atom   4N    basis set group =>   2
Atom   5H    basis set group =>   3
Atom   6H    basis set group =>   3
Atom   7H    basis set group =>   3
Atom   8H    basis set group =>   3
Atom   9H    basis set group =>   3
Atom  10H    basis set group =>   3
Atom  11H    basis set group =>   3
Atom  12H    basis set group =>   3
Atom  13H    basis set group =>   3
Atom  14H    basis set group =>   3
-------------------------------
AUXILIARY BASIS SET INFORMATION
-------------------------------
There are 3 groups of distinct atoms

 Group   1 Type C   : 10s7p5d2f1g contracted to 10s7p5d2f1g pattern {1111111111/1111111/11111/11/1}
 Group   2 Type N   : 10s7p5d2f1g contracted to 10s7p5d2f1g pattern {1111111111/1111111/11111/11/1}
 Group   3 Type H   : 4s3p2d1f contracted to 4s3p2d1f pattern {1111/111/11/1}

Atom   0C    basis set group =>   1
Atom   1C    basis set group =>   1
Atom   2C    basis set group =>   1
Atom   3N    basis set group =>   2
Atom   4N    basis set group =>   2
Atom   5H    basis set group =>   3
Atom   6H    basis set group =>   3
Atom   7H    basis set group =>   3
Atom   8H    basis set group =>   3
Atom   9H    basis set group =>   3
Atom  10H    basis set group =>   3
Atom  11H    basis set group =>   3
Atom  12H    basis set group =>   3
Atom  13H    basis set group =>   3
Atom  14H    basis set group =>   3


           ************************************************************
           *        Program running with 8 parallel MPI-processes     *
           *              working on a common directory               *
           ************************************************************
------------------------------------------------------------------------------
                           ORCA GTO INTEGRAL CALCULATION
                           -- RI-GTO INTEGRALS CHOSEN --
------------------------------------------------------------------------------

                         BASIS SET STATISTICS AND STARTUP INFO

Gaussian basis set:
 # of primitive gaussian shells          ...  210
 # of primitive gaussian functions       ...  410
 # of contracted shells                  ...  110
 # of contracted basis functions         ...  290
 Highest angular momentum                ...    3
 Maximum contraction depth               ...    8
Auxiliary gaussian basis set:
 # of primitive gaussian shells          ...  225
 # of primitive gaussian functions       ...  695
 # of contracted shells                  ...  225
 # of contracted aux-basis functions     ...  695
 Highest angular momentum                ...    4
 Maximum contraction depth               ...    1
Ratio of auxiliary to basis functions    ...  2.40
Integral package used                  ... LIBINT
 One Electron integrals                  ... done
 Ordering auxiliary basis shells         ... done
 Integral threshhold             Thresh  ...  2.500e-11
 Primitive cut-off               TCut    ...  2.500e-12
 Pre-screening matrix                    ... done
 Shell pair data                         ... 
 Ordering of the shell pairs             ... done (   0.002 sec) 5926 of 6105 pairs
 Determination of significant pairs      ... done (   0.000 sec)
 Creation of shell pair data             ... done (   0.002 sec)
 Storage of shell pair data              ... done (   0.002 sec)
 Shell pair data done in (   0.005 sec)
 Computing two index integrals           ... done
 Cholesky decomposition of the V-matrix  ... done


Timings:
 Total evaluation time                   ...   0.526 sec (  0.009 min)
 One electron matrix time                ...   0.107 sec (  0.002 min) = 20.3%
 Schwartz matrix evaluation time         ...   0.278 sec (  0.005 min) = 52.9%
 Two index repulsion integral time       ...   0.052 sec (  0.001 min) =  9.8%
 Cholesky decomposition of V             ...   0.048 sec (  0.001 min) =  9.1%
 Three index repulsion integral time     ...   0.000 sec (  0.000 min) =  0.0%



           ************************************************************
           *        Program running with 8 parallel MPI-processes     *
           *              working on a common directory               *
           ************************************************************
-------------------------------------------------------------------------------
                                 ORCA SCF
-------------------------------------------------------------------------------

------------
SCF SETTINGS
------------
Hamiltonian:
 Ab initio Hamiltonian  Method          .... Hartree-Fock(GTOs)
 RI-approximation to the Coulomb term is turned on
   Number of auxiliary basis functions  .... 695
   RI-JK (J+K treated both via RI)      .... on


General Settings:
 Integral files         IntName         .... propanediamine_gGGg
 Hartree-Fock type      HFTyp           .... RHF
 Total Charge           Charge          ....    0
 Multiplicity           Mult            ....    1
 Number of Electrons    NEL             ....   42
 Basis Dimension        Dim             ....  290
 Nuclear Repulsion      ENuc            ....    193.5580654447 Eh

Convergence Acceleration:
 DIIS                   CNVDIIS         .... off
 Newton-Raphson         CNVNR           .... off
 SOSCF                  CNVSOSCF        .... on
   Start iteration      SOSCFMaxIt      ....   150
   Startup grad/error   SOSCFStart      ....  0.003300
 Level Shifting         CNVShift        .... on
   Level shift para.    LevelShift      ....    0.2000
   Turn off err/grad.   ShiftErr        ....    0.1000
 Zerner damping         CNVZerner       .... off
 Static damping         CNVDamp         .... off
 Fernandez-Rico         CNVRico         .... off

SCF Procedure:
 Maximum # iterations   MaxIter         ....   300
 SCF integral mode      SCFMode         .... Direct
   Integral package                     .... LIBINT
 Reset frequency        DirectResetFreq ....    20
 Integral Threshold     Thresh          ....  2.500e-11 Eh
 Primitive CutOff       TCut            ....  2.500e-12 Eh

Convergence Tolerance:
 Convergence Check Mode ConvCheckMode   .... Total+1el-Energy
 Convergence forced     ConvForced      .... 1
 Energy Change          TolE            ....  1.000e-08 Eh
 1-El. energy change                    ....  1.000e-05 Eh
 Orbital Gradient       TolG            ....  1.000e-05
 Orbital Rotation angle TolX            ....  1.000e-05


Diagonalization of the overlap matrix:
Smallest eigenvalue                        ... 5.995e-04
Time for diagonalization                   ...    0.018 sec
Threshold for overlap eigenvalues          ... 1.000e-08
Number of eigenvalues below threshold      ... 0
Time for construction of square roots      ...    0.014 sec
Total time needed                          ...    0.032 sec

-------------------
DFT GRID GENERATION
-------------------

General Integration Accuracy     IntAcc      ...  4.340
Radial Grid Type                 RadialGrid  ... Gauss-Chebyshev
Angular Grid (max. acc.)         AngularGrid ... Lebedev-110
Angular grid pruning method      GridPruning ... 3 (G Style)
Weight generation scheme         WeightScheme... Becke
Basis function cutoff            BFCut       ...    1.0000e-11
Integration weight cutoff        WCut        ...    1.0000e-14
Grids for H and He will be reduced by one unit

# of grid points (after initial pruning)     ...  16312 (   0.0 sec)
# of grid points (after weights+screening)   ...  15155 (   0.0 sec)
nearest neighbour list constructed           ...    0.0 sec
Grid point re-assignment to atoms done       ...    0.0 sec
Grid point division into batches done        ...    0.0 sec
Reduced shell lists constructed in    0.1 sec

Total number of grid points                  ...    15155
Total number of batches                      ...      245
Average number of points per batch           ...       61
Average number of grid points per atom       ...     1010
Average number of shells per batch           ...    98.78 (89.80%)
Average number of basis functions per batch  ...   258.41 (89.11%)
Average number of large shells per batch     ...    84.00 (85.04%)
Average number of large basis fcns per batch ...   217.19 (84.05%)
Average number of aux-shells per batch       ...    98.78 (43.90%)
Average number of aux functions per batch    ...   258.41 (37.18%)
Maximum spatial batch extension              ...   2.19,  2.53,  2.28 au
Average spatial batch extension              ...   0.19,  0.19,  0.18 au

Time for grid setup =    0.111 sec

------------------------------
INITIAL GUESS: MODEL POTENTIAL
------------------------------
Loading Hartree-Fock densities                     ... done
Calculating cut-offs                               ... done
Setting up the integral package                    ... done
Initializing the effective Hamiltonian             ... done
Starting the Coulomb interaction                   ... done (   0.0 sec)
Reading the grid                                   ... done
Mapping shells                                     ... done
Starting the XC term evaluation                    ... done (   0.0 sec)
Transforming the Hamiltonian                       ... done (   0.0 sec)
Diagonalizing the Hamiltonian                      ... done (   0.0 sec)
Back transforming the eigenvectors                 ... done (   0.0 sec)
Now organizing SCF variables                       ... done
                      ------------------
                      INITIAL GUESS DONE (   0.3 sec)
                      ------------------
--------------
SCF ITERATIONS
--------------
ITER       Energy         Delta-E        Max-DP      RMS-DP      [F,P]   Gradient Norm
                             ****Turning on KDIIS(Cayley)****
  0   -228.0395612374   0.000000000000 0.01897056  0.00032012  0.0758037   0.165464926
  1   -228.1480315561  -0.108470318686 0.01797889  0.00033407  0.0702542   0.140924890
  2   -228.2288753851  -0.080843828982 0.03309850  0.00057298  0.0563554   0.114722692
  3   -228.3282630285  -0.099387643471 0.05603083  0.00092733  0.0339940   0.071097491
                      *** Initiating the SOSCF procedure ***
                           *** Shutting down KDIIS ***
                      *** Re-Reading the Fockian *** 
                      *** Removing any level shift *** 
ITER      Energy       Delta-E        Grad      Rot      Max-DP    RMS-DP
  4   -228.39395453  -0.0656915006  0.003294  0.003294  0.002591  0.000073
  5   -228.39443016  -0.0004756319  0.001236  0.001540  0.001662  0.000046
  6   -228.39448036  -0.0000502018  0.000511  0.000360  0.001244  0.000022
  7   -228.39450124  -0.0000208781  0.000094  0.000177  0.000444  0.000010
  8   -228.39450186  -0.0000006231  0.000043  0.000074  0.000198  0.000004
  9   -228.39450195  -0.0000000841  0.000020  0.000013  0.000035  0.000001
 10   -228.39450196  -0.0000000134  0.000004  0.000009  0.000026  0.000000
                 **** Energy Check signals convergence ****
              ***Rediagonalizing the Fockian in SOSCF/NRSCF***

               *****************************************************
               *                     SUCCESS                       *
               *           SCF CONVERGED AFTER  11 CYCLES          *
               *****************************************************


----------------
TOTAL SCF ENERGY
----------------

Total Energy       :         -228.39450196 Eh           -6214.93036 eV

Components:
Nuclear Repulsion  :          193.55806544 Eh            5266.98273 eV
Electronic Energy  :         -421.95256741 Eh          -11481.91309 eV
One Electron Energy:         -692.72909790 Eh          -18850.11708 eV
Two Electron Energy:          270.77653049 Eh            7368.20399 eV

Virial components:
Potential Energy   :         -456.38582249 Eh          -12418.88959 eV
Kinetic Energy     :          227.99132053 Eh            6203.95923 eV
Virial Ratio       :            2.00176841


---------------
SCF CONVERGENCE
---------------

  Last Energy change         ...   -9.4758e-10  Tolerance :   1.0000e-08
  Last MAX-Density change    ...    1.1921e-05  Tolerance :   1.0000e-07
  Last RMS-Density change    ...    1.8229e-07  Tolerance :   5.0000e-09
  Last Orbital Gradient      ...    1.4504e-06  Tolerance :   1.0000e-05
  Last Orbital Rotation      ...    4.3965e-06  Tolerance :   1.0000e-05

             **** THE GBW FILE WAS UPDATED (propanediamine_gGGg.gbw) ****
             **** DENSITY FILE WAS UPDATED (propanediamine_gGGg.scfp.tmp) ****
             **** ENERGY FILE WAS UPDATED (propanediamine_gGGg.en.tmp) ****
----------------
ORBITAL ENERGIES
----------------

  NO   OCC          E(Eh)            E(eV) 
   0   2.0000     -15.539702      -422.8568 
   1   2.0000     -15.514282      -422.1651 
   2   2.0000     -11.249379      -306.1112 
   3   2.0000     -11.237943      -305.8000 
   4   2.0000     -11.214787      -305.1699 
   5   2.0000      -1.179732       -32.1021 
   6   2.0000      -1.148729       -31.2585 
   7   2.0000      -1.004908       -27.3449 
   8   2.0000      -0.876243       -23.8438 
   9   2.0000      -0.781302       -21.2603 
  10   2.0000      -0.664272       -18.0758 
  11   2.0000      -0.653009       -17.7693 
  12   2.0000      -0.621671       -16.9165 
  13   2.0000      -0.598043       -16.2736 
  14   2.0000      -0.552636       -15.0380 
  15   2.0000      -0.547324       -14.8934 
  16   2.0000      -0.491452       -13.3731 
  17   2.0000      -0.482477       -13.1289 
  18   2.0000      -0.471060       -12.8182 
  19   2.0000      -0.388708       -10.5773 
  20   2.0000      -0.370359       -10.0780 
  21   0.0000       0.138974         3.7817 
  22   0.0000       0.162098         4.4109 
  23   0.0000       0.173651         4.7253 
  24   0.0000       0.176875         4.8130 
  25   0.0000       0.205622         5.5953 
  26   0.0000       0.212338         5.7780 
  27   0.0000       0.229043         6.2326 
  28   0.0000       0.239382         6.5139 
  29   0.0000       0.255233         6.9452 
  30   0.0000       0.268991         7.3196 
  31   0.0000       0.305995         8.3265 
  32   0.0000       0.343726         9.3533 
  33   0.0000       0.362606         9.8670 
  34   0.0000       0.388727        10.5778 
  35   0.0000       0.424617        11.5544 
  36   0.0000       0.448582        12.2065 
  37   0.0000       0.484161        13.1747 
  38   0.0000       0.496864        13.5204 
  39   0.0000       0.503848        13.7104 
  40   0.0000       0.507809        13.8182 
  41   0.0000       0.553069        15.0498 
  42   0.0000       0.564956        15.3732 
  43   0.0000       0.578889        15.7524 
  44   0.0000       0.592245        16.1158 
  45   0.0000       0.605478        16.4759 
  46   0.0000       0.618556        16.8318 
  47   0.0000       0.633307        17.2332 
  48   0.0000       0.638421        17.3723 
  49   0.0000       0.647897        17.6302 
  50   0.0000       0.660257        17.9665 
  51   0.0000       0.663917        18.0661 
  52   0.0000       0.681644        18.5485 
  53   0.0000       0.703759        19.1503 
  54   0.0000       0.710001        19.3201 
  55   0.0000       0.717751        19.5310 
  56   0.0000       0.725123        19.7316 
  57   0.0000       0.737396        20.0656 
  58   0.0000       0.750734        20.4285 
  59   0.0000       0.785714        21.3804 
  60   0.0000       0.813538        22.1375 
  61   0.0000       0.842813        22.9341 
  62   0.0000       0.852965        23.2104 
  63   0.0000       0.910744        24.7826 
  64   0.0000       0.935233        25.4490 
  65   0.0000       0.967133        26.3170 
  66   0.0000       0.980994        26.6942 
  67   0.0000       0.990210        26.9450 
  68   0.0000       1.037600        28.2345 
  69   0.0000       1.055419        28.7194 
  70   0.0000       1.076939        29.3050 
  71   0.0000       1.108608        30.1668 
  72   0.0000       1.130158        30.7532 
  73   0.0000       1.138938        30.9921 
  74   0.0000       1.165759        31.7219 
  75   0.0000       1.204913        32.7873 
  76   0.0000       1.223723        33.2992 
  77   0.0000       1.236843        33.6562 
  78   0.0000       1.258603        34.2483 
  79   0.0000       1.283071        34.9141 
  80   0.0000       1.296535        35.2805 
  81   0.0000       1.313791        35.7501 
  82   0.0000       1.333099        36.2755 
  83   0.0000       1.357229        36.9321 
  84   0.0000       1.364395        37.1271 
  85   0.0000       1.376928        37.4681 
  86   0.0000       1.394359        37.9424 
  87   0.0000       1.403561        38.1928 
  88   0.0000       1.417099        38.5612 
  89   0.0000       1.446688        39.3664 
  90   0.0000       1.462661        39.8010 
  91   0.0000       1.489248        40.5245 
  92   0.0000       1.499659        40.8078 
  93   0.0000       1.512424        41.1551 
  94   0.0000       1.523132        41.4465 
  95   0.0000       1.543390        41.9978 
  96   0.0000       1.565159        42.5901 
  97   0.0000       1.586088        43.1596 
  98   0.0000       1.597062        43.4583 
  99   0.0000       1.607440        43.7407 
 100   0.0000       1.639234        44.6058 
 101   0.0000       1.679924        45.7131 
 102   0.0000       1.696921        46.1756 
 103   0.0000       1.715047        46.6688 
 104   0.0000       1.738963        47.3196 
 105   0.0000       1.763176        47.9785 
 106   0.0000       1.772293        48.2265 
 107   0.0000       1.805612        49.1332 
 108   0.0000       1.831048        49.8253 
 109   0.0000       1.860318        50.6218 
 110   0.0000       1.905037        51.8387 
 111   0.0000       1.910359        51.9835 
 112   0.0000       1.936733        52.7012 
 113   0.0000       1.981816        53.9280 
 114   0.0000       2.009023        54.6683 
 115   0.0000       2.058376        56.0113 
 116   0.0000       2.074146        56.4404 
 117   0.0000       2.115037        57.5531 
 118   0.0000       2.126635        57.8687 
 119   0.0000       2.192586        59.6633 
 120   0.0000       2.596119        70.6440 
 121   0.0000       2.662714        72.4561 
 122   0.0000       2.674413        72.7745 
 123   0.0000       2.685182        73.0675 
 124   0.0000       2.702712        73.5445 
 125   0.0000       2.755271        74.9747 
 126   0.0000       2.777363        75.5759 
 127   0.0000       2.804531        76.3152 
 128   0.0000       2.812229        76.5246 
 129   0.0000       2.848794        77.5196 
 130   0.0000       2.876304        78.2682 
 131   0.0000       2.886399        78.5429 
 132   0.0000       2.931566        79.7720 
 133   0.0000       2.970832        80.8404 
 134   0.0000       3.001431        81.6731 
 135   0.0000       3.010680        81.9248 
 136   0.0000       3.049580        82.9833 
 137   0.0000       3.078990        83.7836 
 138   0.0000       3.125709        85.0549 
 139   0.0000       3.139367        85.4265 
 140   0.0000       3.156962        85.9053 
 141   0.0000       3.182551        86.6016 
 142   0.0000       3.206194        87.2450 
 143   0.0000       3.216518        87.5259 
 144   0.0000       3.253141        88.5225 
 145   0.0000       3.258272        88.6621 
 146   0.0000       3.287525        89.4581 
 147   0.0000       3.297762        89.7367 
 148   0.0000       3.320135        90.3455 
 149   0.0000       3.349423        91.1424 
 150   0.0000       3.365191        91.5715 
 151   0.0000       3.373581        91.7998 
 152   0.0000       3.409955        92.7896 
 153   0.0000       3.416524        92.9684 
 154   0.0000       3.428816        93.3028 
 155   0.0000       3.438383        93.5632 
 156   0.0000       3.453292        93.9688 
 157   0.0000       3.487322        94.8949 
 158   0.0000       3.496219        95.1370 
 159   0.0000       3.506004        95.4032 
 160   0.0000       3.525289        95.9280 
 161   0.0000       3.581468        97.4567 
 162   0.0000       3.600656        97.9788 
 163   0.0000       3.614869        98.3656 
 164   0.0000       3.627691        98.7145 
 165   0.0000       3.640485        99.0626 
 166   0.0000       3.663611        99.6919 
 167   0.0000       3.680759       100.1586 
 168   0.0000       3.700959       100.7082 
 169   0.0000       3.709570       100.9425 
 170   0.0000       3.725744       101.3827 
 171   0.0000       3.756063       102.2077 
 172   0.0000       3.767273       102.5127 
 173   0.0000       3.778882       102.8286 
 174   0.0000       3.789867       103.1275 
 175   0.0000       3.795592       103.2833 
 176   0.0000       3.825814       104.1057 
 177   0.0000       3.845676       104.6462 
 178   0.0000       3.868304       105.2619 
 179   0.0000       3.878189       105.5309 
 180   0.0000       3.896686       106.0342 
 181   0.0000       3.908555       106.3572 
 182   0.0000       3.935354       107.0864 
 183   0.0000       3.949175       107.4625 
 184   0.0000       3.958818       107.7249 
 185   0.0000       3.970945       108.0549 
 186   0.0000       3.989728       108.5660 
 187   0.0000       4.053718       110.3073 
 188   0.0000       4.076164       110.9181 
 189   0.0000       4.085781       111.1798 
 190   0.0000       4.098182       111.5172 
 191   0.0000       4.119420       112.0951 
 192   0.0000       4.130653       112.4008 
 193   0.0000       4.166920       113.3877 
 194   0.0000       4.172152       113.5300 
 195   0.0000       4.188877       113.9851 
 196   0.0000       4.202752       114.3627 
 197   0.0000       4.215806       114.7179 
 198   0.0000       4.224154       114.9451 
 199   0.0000       4.237838       115.3174 
 200   0.0000       4.256779       115.8329 
 201   0.0000       4.283057       116.5479 
 202   0.0000       4.306683       117.1908 
 203   0.0000       4.308397       117.2374 
 204   0.0000       4.332979       117.9064 
 205   0.0000       4.358498       118.6008 
 206   0.0000       4.368221       118.8653 
 207   0.0000       4.379239       119.1652 
 208   0.0000       4.396607       119.6378 
 209   0.0000       4.422038       120.3298 
 210   0.0000       4.436797       120.7314 
 211   0.0000       4.461869       121.4136 
 212   0.0000       4.467231       121.5595 
 213   0.0000       4.494200       122.2934 
 214   0.0000       4.505900       122.6118 
 215   0.0000       4.530178       123.2724 
 216   0.0000       4.559973       124.0832 
 217   0.0000       4.573607       124.4542 
 218   0.0000       4.601863       125.2231 
 219   0.0000       4.611470       125.4845 
 220   0.0000       4.628602       125.9507 
 221   0.0000       4.655593       126.6851 
 222   0.0000       4.673466       127.1715 
 223   0.0000       4.688481       127.5800 
 224   0.0000       4.738238       128.9340 
 225   0.0000       4.750609       129.2706 
 226   0.0000       4.759867       129.5226 
 227   0.0000       4.790367       130.3525 
 228   0.0000       4.802598       130.6853 
 229   0.0000       4.824794       131.2893 
 230   0.0000       4.834448       131.5520 
 231   0.0000       4.863150       132.3330 
 232   0.0000       4.923493       133.9751 
 233   0.0000       4.976484       135.4170 
 234   0.0000       5.031743       136.9207 
 235   0.0000       5.074612       138.0872 
 236   0.0000       5.131838       139.6444 
 237   0.0000       5.155938       140.3002 
 238   0.0000       5.173118       140.7677 
 239   0.0000       5.212882       141.8497 
 240   0.0000       5.237124       142.5094 
 241   0.0000       5.244335       142.7056 
 242   0.0000       5.285320       143.8209 
 243   0.0000       5.322025       144.8197 
 244   0.0000       5.348804       145.5484 
 245   0.0000       5.400956       146.9675 
 246   0.0000       5.403555       147.0382 
 247   0.0000       5.431285       147.7928 
 248   0.0000       5.442646       148.1019 
 249   0.0000       5.478211       149.0697 
 250   0.0000       5.510326       149.9436 
 251   0.0000       5.559239       151.2746 
 252   0.0000       5.577806       151.7798 
 253   0.0000       5.596731       152.2948 
 254   0.0000       5.619435       152.9126 
 255   0.0000       5.641625       153.5164 
 256   0.0000       5.700793       155.1265 
 257   0.0000       5.730178       155.9261 
 258   0.0000       5.746111       156.3596 
 259   0.0000       5.777068       157.2020 
 260   0.0000       5.822761       158.4454 
 261   0.0000       5.847457       159.1174 
 262   0.0000       5.896484       160.4515 
 263   0.0000       5.912561       160.8890 
 264   0.0000       5.931152       161.3949 
 265   0.0000       5.972503       162.5201 
 266   0.0000       5.979553       162.7119 
 267   0.0000       6.018075       163.7602 
 268   0.0000       6.102763       166.0646 
 269   0.0000       6.139841       167.0736 
 270   0.0000       6.214146       169.0955 
 271   0.0000       6.228985       169.4993 
 272   0.0000       6.292178       171.2189 
 273   0.0000       6.312483       171.7714 
 274   0.0000       6.343843       172.6247 
 275   0.0000       6.370025       173.3372 
 276   0.0000       6.394773       174.0106 
 277   0.0000       6.436002       175.1325 
 278   0.0000       6.451359       175.5504 
 279   0.0000       6.550843       178.2575 
 280   0.0000       6.600567       179.6106 
 281   0.0000       6.655755       181.1123 
 282   0.0000       6.681459       181.8117 
 283   0.0000       7.324132       199.2998 
 284   0.0000       7.372261       200.6094 
 285   0.0000      12.431385       338.2752 
 286   0.0000      12.907360       351.2271 
 287   0.0000      13.277928       361.3108 
 288   0.0000      13.515286       367.7696 
 289   0.0000      13.702470       372.8632 

                    ********************************
                    * MULLIKEN POPULATION ANALYSIS *
                    ********************************

-----------------------
MULLIKEN ATOMIC CHARGES
-----------------------
   0 C :   -0.062216
   1 C :   -0.188917
   2 C :   -0.036614
   3 N :   -0.402898
   4 N :   -0.391977
   5 H :    0.084426
   6 H :    0.081010
   7 H :    0.148924
   8 H :    0.141817
   9 H :    0.087459
  10 H :    0.056199
  11 H :    0.158262
  12 H :    0.135055
  13 H :    0.097111
  14 H :    0.092359
Sum of atomic charges:   -0.0000000

--------------------------------
MULLIKEN REDUCED ORBITAL CHARGES
--------------------------------
  0 C s       :     3.197396  s :     3.197396
      pz      :     1.001127  p :     2.725740
      px      :     0.953897
      py      :     0.770716
      dz2     :     0.033320  d :     0.130494
      dxz     :     0.014685
      dyz     :     0.017956
      dx2y2   :     0.030256
      dxy     :     0.034277
      f0      :     0.001459  f :     0.008586
      f+1     :     0.000598
      f-1     :     0.000975
      f+2     :     0.001047
      f-2     :     0.000495
      f+3     :     0.001940
      f-3     :     0.002072
  1 C s       :     3.211138  s :     3.211138
      pz      :     0.990452  p :     2.864649
      px      :     0.873925
      py      :     1.000272
      dz2     :     0.035750  d :     0.106614
      dxz     :     0.018932
      dyz     :     0.005850
      dx2y2   :     0.030511
      dxy     :     0.015571
      f0      :     0.001210  f :     0.006515
      f+1     :     0.000928
      f-1     :     0.000522
      f+2     :     0.000610
      f-2     :     0.000800
      f+3     :     0.000969
      f-3     :     0.001476
  2 C s       :     3.186273  s :     3.186273
      pz      :     0.944685  p :     2.716509
      px      :     0.955186
      py      :     0.816638
      dz2     :     0.033336  d :     0.125169
      dxz     :     0.012257
      dyz     :     0.020890
      dx2y2   :     0.026477
      dxy     :     0.032210
      f0      :     0.001651  f :     0.008663
      f+1     :     0.000637
      f-1     :     0.001238
      f+2     :     0.001455
      f-2     :     0.000693
      f+3     :     0.001397
      f-3     :     0.001591
  3 N s       :     3.500746  s :     3.500746
      pz      :     1.717936  p :     3.858558
      px      :     1.073827
      py      :     1.066795
      dz2     :     0.002792  d :     0.041256
      dxz     :     0.007941
      dyz     :     0.010280
      dx2y2   :     0.008558
      dxy     :     0.011685
      f0      :     0.000585  f :     0.002338
      f+1     :     0.000132
      f-1     :     0.000378
      f+2     :     0.000295
      f-2     :     0.000049
      f+3     :     0.000351
      f-3     :     0.000547
  4 N s       :     3.523925  s :     3.523925
      pz      :     1.171068  p :     3.825044
      px      :     1.436607
      py      :     1.217369
      dz2     :     0.013158  d :     0.040770
      dxz     :     0.003429
      dyz     :     0.005191
      dx2y2   :     0.013007
      dxy     :     0.005986
      f0      :     0.000508  f :     0.002238
      f+1     :     0.000013
      f-1     :     0.000326
      f+2     :     0.000343
      f-2     :     0.000075
      f+3     :     0.000326
      f-3     :     0.000647
  5 H s       :     0.886482  s :     0.886482
      pz      :     0.011407  p :     0.026615
      px      :     0.008899
      py      :     0.006308
      dz2     :     0.000735  d :     0.002477
      dxz     :     0.000849
      dyz     :     0.000790
      dx2y2   :     0.000078
      dxy     :     0.000025
  6 H s       :     0.890970  s :     0.890970
      pz      :     0.006573  p :     0.025642
      px      :     0.011704
      py      :     0.007366
      dz2     :     0.000431  d :     0.002378
      dxz     :     0.000358
      dyz     :     0.000217
      dx2y2   :     0.000820
      dxy     :     0.000552
  7 H s       :     0.790618  s :     0.790618
      pz      :     0.019582  p :     0.055800
      px      :     0.022025
      py      :     0.014192
      dz2     :     0.001557  d :     0.004658
      dxz     :     0.001703
      dyz     :     0.001268
      dx2y2   :     0.000093
      dxy     :     0.000037
  8 H s       :     0.795647  s :     0.795647
      pz      :     0.017759  p :     0.057564
      px      :     0.021872
      py      :     0.017933
      dz2     :     0.000997  d :     0.004972
      dxz     :     0.000910
      dyz     :     0.000465
      dx2y2   :     0.001502
      dxy     :     0.001098
  9 H s       :     0.882384  s :     0.882384
      pz      :     0.007491  p :     0.027634
      px      :     0.011833
      py      :     0.008310
      dz2     :     0.000423  d :     0.002524
      dxz     :     0.000368
      dyz     :     0.000208
      dx2y2   :     0.000906
      dxy     :     0.000619
 10 H s       :     0.916121  s :     0.916121
      pz      :     0.011852  p :     0.025288
      px      :     0.007038
      py      :     0.006399
      dz2     :     0.000816  d :     0.002391
      dxz     :     0.000764
      dyz     :     0.000748
      dx2y2   :     0.000041
      dxy     :     0.000022
 11 H s       :     0.781627  s :     0.781627
      pz      :     0.022377  p :     0.055483
      px      :     0.016864
      py      :     0.016241
      dz2     :     0.000600  d :     0.004628
      dxz     :     0.001307
      dyz     :     0.000663
      dx2y2   :     0.001021
      dxy     :     0.001038
 12 H s       :     0.803206  s :     0.803206
      pz      :     0.023807  p :     0.056935
      px      :     0.017566
      py      :     0.015563
      dz2     :     0.000925  d :     0.004803
      dxz     :     0.001518
      dyz     :     0.000393
      dx2y2   :     0.000865
      dxy     :     0.001103
 13 H s       :     0.871666  s :     0.871666
      pz      :     0.007503  p :     0.028764
      px      :     0.009438
      py      :     0.011823
      dz2     :     0.000271  d :     0.002459
      dxz     :     0.000010
      dyz     :     0.000617
      dx2y2   :     0.000529
      dxy     :     0.001033
 14 H s       :     0.877839  s :     0.877839
      pz      :     0.011999  p :     0.027366
      px      :     0.008552
      py      :     0.006815
      dz2     :     0.000769  d :     0.002436
      dxz     :     0.001008
      dyz     :     0.000590
      dx2y2   :     0.000064
      dxy     :     0.000004


                     *******************************
                     * LOEWDIN POPULATION ANALYSIS *
                     *******************************

----------------------
LOEWDIN ATOMIC CHARGES
----------------------
   0 C :   -0.013842
   1 C :    0.044396
   2 C :   -0.014769
   3 N :    0.308286
   4 N :    0.330269
   5 H :   -0.031316
   6 H :   -0.042143
   7 H :   -0.104882
   8 H :   -0.109305
   9 H :   -0.032175
  10 H :   -0.045601
  11 H :   -0.124595
  12 H :   -0.114857
  13 H :   -0.022543
  14 H :   -0.026921

-------------------------------
LOEWDIN REDUCED ORBITAL CHARGES
-------------------------------
  0 C s       :     2.674632  s :     2.674632
      pz      :     0.981103  p :     2.772581
      px      :     0.956621
      py      :     0.834856
      dz2     :     0.118633  d :     0.511327
      dxz     :     0.053648
      dyz     :     0.073708
      dx2y2   :     0.120290
      dxy     :     0.145049
      f0      :     0.007056  f :     0.055303
      f+1     :     0.003898
      f-1     :     0.006609
      f+2     :     0.008324
      f-2     :     0.006209
      f+3     :     0.012519
      f-3     :     0.010687
  1 C s       :     2.666731  s :     2.666731
      pz      :     0.960409  p :     2.836360
      px      :     0.917856
      py      :     0.958094
      dz2     :     0.121573  d :     0.413350
      dxz     :     0.076712
      dyz     :     0.023646
      dx2y2   :     0.123433
      dxy     :     0.067986
      f0      :     0.004846  f :     0.039163
      f+1     :     0.006841
      f-1     :     0.003686
      f+2     :     0.004613
      f-2     :     0.006186
      f+3     :     0.006241
      f-3     :     0.006749
  2 C s       :     2.672945  s :     2.672945
      pz      :     0.967323  p :     2.771954
      px      :     0.954557
      py      :     0.850075
      dz2     :     0.136259  d :     0.513666
      dxz     :     0.049885
      dyz     :     0.103991
      dx2y2   :     0.098197
      dxy     :     0.125334
      f0      :     0.007084  f :     0.056204
      f+1     :     0.004368
      f-1     :     0.007690
      f+2     :     0.011116
      f-2     :     0.007036
      f+3     :     0.009466
      f-3     :     0.009445
  3 N s       :     2.894426  s :     2.894426
      pz      :     1.486944  p :     3.634593
      px      :     1.098009
      py      :     1.049640
      dz2     :     0.017021  d :     0.152156
      dxz     :     0.016658
      dyz     :     0.025727
      dx2y2   :     0.037417
      dxy     :     0.055333
      f0      :     0.000567  f :     0.010539
      f+1     :     0.000127
      f-1     :     0.001213
      f+2     :     0.002531
      f-2     :     0.002214
      f+3     :     0.001665
      f-3     :     0.002221
  4 N s       :     2.897220  s :     2.897220
      pz      :     1.156825  p :     3.609598
      px      :     1.313526
      py      :     1.139247
      dz2     :     0.042960  d :     0.152423
      dxz     :     0.013266
      dyz     :     0.030576
      dx2y2   :     0.036067
      dxy     :     0.029554
      f0      :     0.002192  f :     0.010490
      f+1     :     0.000460
      f-1     :     0.001772
      f+2     :     0.001723
      f-2     :     0.000793
      f+3     :     0.001722
      f-3     :     0.001827
  5 H s       :     0.856478  s :     0.856478
      pz      :     0.076249  p :     0.147038
      px      :     0.038787
      py      :     0.032003
      dz2     :     0.009609  d :     0.027800
      dxz     :     0.009599
      dyz     :     0.007948
      dx2y2   :     0.000518
      dxy     :     0.000125
  6 H s       :     0.866034  s :     0.866034
      pz      :     0.043718  p :     0.149119
      px      :     0.060460
      py      :     0.044940
      dz2     :     0.005067  d :     0.026991
      dxz     :     0.005286
      dyz     :     0.003036
      dx2y2   :     0.007377
      dxy     :     0.006225
  7 H s       :     0.779546  s :     0.779546
      pz      :     0.118994  p :     0.265754
      px      :     0.082625
      py      :     0.064134
      dz2     :     0.018558  d :     0.059583
      dxz     :     0.021493
      dyz     :     0.017489
      dx2y2   :     0.001275
      dxy     :     0.000768
  8 H s       :     0.782343  s :     0.782343
      pz      :     0.068154  p :     0.267694
      px      :     0.129925
      py      :     0.069615
      dz2     :     0.011245  d :     0.059267
      dxz     :     0.012264
      dyz     :     0.005852
      dx2y2   :     0.017315
      dxy     :     0.012592
  9 H s       :     0.856886  s :     0.856886
      pz      :     0.041251  p :     0.147571
      px      :     0.061099
      py      :     0.045221
      dz2     :     0.004168  d :     0.027718
      dxz     :     0.005499
      dyz     :     0.002989
      dx2y2   :     0.008183
      dxy     :     0.006878
 10 H s       :     0.870629  s :     0.870629
      pz      :     0.076766  p :     0.148116
      px      :     0.037863
      py      :     0.033486
      dz2     :     0.009460  d :     0.026856
      dxz     :     0.009270
      dyz     :     0.007697
      dx2y2   :     0.000306
      dxy     :     0.000123
 11 H s       :     0.780003  s :     0.780003
      pz      :     0.105994  p :     0.284707
      px      :     0.105002
      py      :     0.073712
      dz2     :     0.007313  d :     0.059885
      dxz     :     0.014664
      dyz     :     0.008796
      dx2y2   :     0.015275
      dxy     :     0.013838
 12 H s       :     0.787379  s :     0.787379
      pz      :     0.114211  p :     0.268092
      px      :     0.093089
      py      :     0.060792
      dz2     :     0.010293  d :     0.059385
      dxz     :     0.017573
      dyz     :     0.004724
      dx2y2   :     0.013154
      dxy     :     0.013641
 13 H s       :     0.842101  s :     0.842101
      pz      :     0.040317  p :     0.152266
      px      :     0.038771
      py      :     0.073178
      dz2     :     0.002956  d :     0.028177
      dxz     :     0.000062
      dyz     :     0.008840
      dx2y2   :     0.007056
      dxy     :     0.009263
 14 H s       :     0.846271  s :     0.846271
      pz      :     0.075161  p :     0.152389
      px      :     0.038398
      py      :     0.038830
      dz2     :     0.009776  d :     0.028261
      dxz     :     0.009153
      dyz     :     0.008516
      dx2y2   :     0.000654
      dxy     :     0.000162


                      *****************************
                      * MAYER POPULATION ANALYSIS *
                      *****************************

  NA   - Mulliken gross atomic population
  ZA   - Total nuclear charge
  QA   - Mulliken gross atomic charge
  VA   - Mayer's total valence
  BVA  - Mayer's bonded valence
  FA   - Mayer's free valence

  ATOM       NA         ZA         QA         VA         BVA        FA
  0 C      6.0622     6.0000    -0.0622     3.9012     3.9012    -0.0000
  1 C      6.1889     6.0000    -0.1889     3.8482     3.8482     0.0000
  2 C      6.0366     6.0000    -0.0366     3.9118     3.9118     0.0000
  3 N      7.4029     7.0000    -0.4029     2.9266     2.9266    -0.0000
  4 N      7.3920     7.0000    -0.3920     2.9560     2.9560    -0.0000
  5 H      0.9156     1.0000     0.0844     0.9816     0.9816    -0.0000
  6 H      0.9190     1.0000     0.0810     0.9721     0.9721     0.0000
  7 H      0.8511     1.0000     0.1489     1.0033     1.0033    -0.0000
  8 H      0.8582     1.0000     0.1418     1.0083     1.0083     0.0000
  9 H      0.9125     1.0000     0.0875     0.9808     0.9808    -0.0000
 10 H      0.9438     1.0000     0.0562     0.9738     0.9738     0.0000
 11 H      0.8417     1.0000     0.1583     1.0338     1.0338    -0.0000
 12 H      0.8649     1.0000     0.1351     1.0103     1.0103    -0.0000
 13 H      0.9029     1.0000     0.0971     0.9849     0.9849    -0.0000
 14 H      0.9076     1.0000     0.0924     0.9943     0.9943    -0.0000

  Mayer bond orders larger than 0.1
B(  0-C ,  1-C ) :   0.9569 B(  0-C ,  4-N ) :   0.9616 B(  0-C ,  5-H ) :   0.9818 
B(  0-C ,  6-H ) :   0.9930 B(  1-C ,  2-C ) :   0.9503 B(  1-C , 13-H ) :   0.9910 
B(  1-C , 14-H ) :   0.9771 B(  2-C ,  3-N ) :   0.9853 B(  2-C ,  9-H ) :   0.9888 
B(  2-C , 10-H ) :   0.9826 B(  3-N , 11-H ) :   0.9609 B(  3-N , 12-H ) :   0.9922 
B(  4-N ,  7-H ) :   0.9796 B(  4-N ,  8-H ) :   0.9878 

-------
TIMINGS
-------

Total SCF time: 0 days 0 hours 0 min 8 sec 

Total time                  ....       8.340 sec
Sum of individual times     ....       8.118 sec  ( 97.3%)

Fock matrix formation       ....       7.626 sec  ( 91.4%)
Diagonalization             ....       0.059 sec  (  0.7%)
Density matrix formation    ....       0.010 sec  (  0.1%)
Population analysis         ....       0.044 sec  (  0.5%)
Initial guess               ....       0.200 sec  (  2.4%)
Orbital Transformation      ....       0.000 sec  (  0.0%)
Orbital Orthonormalization  ....       0.000 sec  (  0.0%)
DIIS solution               ....       0.000 sec  (  0.0%)
SOSCF solution              ....       0.069 sec  (  0.8%)


           ************************************************************
           *        Program running with 8 parallel MPI-processes     *
           *              working on a common directory               *
           ************************************************************


------------------------------------------------------------------------------- 
                              ORCA-MATRIX DRIVEN CI                            
------------------------------------------------------------------------------- 


Wavefunction type
-----------------
Correlation treatment                      ...      CCSD     
Single excitations                         ... ON
Orbital optimization                       ... OFF
Calculation of Z vector                    ... OFF
Calculation of Brueckner orbitals          ... OFF
Perturbative triple excitations            ... ON
Calculation of F12 correction              ... OFF
Frozen core treatment                      ... chemical core (10 el)
Reference Wavefunction                     ... RHF
  Internal Orbitals:     5 ...   20 ( 16 MO's/ 32 electrons)
  Virtual  Orbitals:    21 ...  289 (269 MO's              )
Number of AO's                             ...    290
Number of electrons                        ...     42
Number of correlated electrons             ...     32

Algorithmic settings
--------------------
Integral transformation                    ... All integrals via the RI transformation
K(C) Formation                             ... RI-DLPNO
   PNO-Integral Storage                    ... ON DISK
   PNO occupation number cut-off           ... 1.000e-07
   Singles PNO occupation number cut-off   ... 3.000e-09
   PNO Mulliken prescreening cut-off       ... 1.000e-03
   Domain cut-off (Mulliken population)    ... 1.000e-03
   PNO Normalization                       ...    1
Maximum number of iterations               ...        50
Convergence tolerance (max. residuum)      ... 1.000e-05
Level shift for amplitude update           ... 2.000e-01
Maximum number of DIIS vectors             ...         7
DIIS turned on at iteration                ...         0
Damping before turning on DIIS             ...     0.500
Damping after turning on DIIS              ...     0.000
Pair specific amplitude update             ... OFF
Natural orbital iterations                 ... OFF
Perturbative natural orbital generation    ... OFF
Printlevel                                 ... 2

Singles Fock matrix elements calculated using PNOs.

Memory handling:
----------------
Maximum memory for working arrays          ...   8000 MB
Data storage in matrix containers          ... UNCOMPRESSED
Data type for integral storage             ... DOUBLE
In-Core Storage of quantities:
   Amplitudes+Sigma Vector      ... NO
   J+K operators                ... NO
   DIIS vectors                 ... NO
   3-external integrals         ... NO
   4-external integrals         ... NO

Localization treatment:
-----------------------
Localization option                        ...    6
Localization threshhold                    ... -1.0e+00
Using relative localization threshhold     ... 1.0e-08
Neglect threshold for strong pairs         ... 1.000e-05 Eh
Prescreening threshold for very weak pairs ... 1.000e-07 Eh

Initializing the integral package          ... done
Localizing the valence orbitals
------------------------------------------------------------------------------
                           ORCA ORBITAL LOCALIZATION
------------------------------------------------------------------------------

Input orbitals are from                  ... propanediamine_gGGg.proc0.gbw
Output orbitals are to                   ... propanediamine_gGGg.proc0.loc
Max. number of iterations                ... 128
Localizations seeded randomly            ... off
Convergence tolerance                    ... 1.000e-06
Using relative localization threshhold   ... 1.000e-08
Treshold for strong local MOs            ... 9.500e-01
Treshold for bond MOs                    ... 8.500e-01
Operator                                 ... 0
Orbital range for localization           ... 5 to 20
Localization criterion                   ... FOSTER-BOYS (AUGMENTED HESSIAN)
Doing the dipole integrals     ... o.k.
Initial value of the localization sum :   138.985239
ITERATION   0 : L=  174.5176914766 DL=  3.55e+01 (AVERGE_DL)=    0.5441541781 
ITERATION   1 : L=  177.0758717679 DL=  2.56e+00 (AVERGE_DL)=    0.1460074282 
ITERATION   2 : L=  177.0956114033 DL=  1.97e-02 (AVERGE_DL)=    0.0128256369 
ITERATION   3 : L=  177.0957566967 DL=  1.45e-04 (AVERGE_DL)=    0.0011003538 
ITERATION   4 : L=  177.0957581935 DL=  1.50e-06 (AVERGE_DL)=    0.0001116823 
ITERATION   5 : L=  177.0957582064 DL=  1.29e-08 (AVERGE_DL)=    0.0000103716 
LOCALIZATION SUM CONVERGED

------------------------------------------------------
AUGMENTED HESSIAN OPTIMIZATION OF FOSTER-BOYS ORBITALS
------------------------------------------------------

Spin operator:           0
Orbital window:          5 to 20
Number of iterations:    128
Gradient tolerance:      1.000e-06
Number of pairs:         120
Davidson threshold:      2000
Diagonalization method:  LAPACK
Iter:    0   L: 177.0957582064   Grad. norm: 7.911104e-04
   *** Likely close to a maximum now. ***
       Augmented Hessian eigenvalues:  4.15e-09 -5.99e+00 -6.29e+00 -6.52e+00 ... 
Iter:    1   L: 177.0957582084   Grad. norm: 2.318500e-10
LOCALIZATION HAS CONVERGED.

Eigenvalues of the Hessian:
  0 -5.993e+00
  1 -6.289e+00
  2 -6.520e+00
  3 -6.643e+00
  4 -9.468e+00
  5 -9.716e+00
  6 -1.134e+01
  7 -1.145e+01
  8 -1.497e+01
  9 -1.513e+01
    ...


------------------------------------------------------------------------------- 
                    LOCALIZED MOLECULAR ORBITAL COMPOSITIONS                   
------------------------------------------------------------------------------- 

The Mulliken populations for each LMO on each atom are computed
The LMO`s will be ordered according to atom index and type
  (A) Strongly localized MO`s have populations of >=0.950 on one atom
  (B) Two center bond orbitals have populations of >=0.850 on two atoms
  (C) Other MO`s are considered to be `delocalized`

FOUND  -   2 strongly local MO`s
       -  14 two center bond MO`s
       -   0 significantly delocalized MO`s

Rather strongly localized orbitals:
MO   6:   4N  -   0.984766
MO   5:   3N  -   0.977475
Bond-like localized orbitals:
MO  20:  14H  -   0.467716  and   1C  -   0.555848
MO  19:  13H  -   0.469458  and   1C  -   0.561519
MO  18:  12H  -   0.444970  and   3N  -   0.570985
MO  17:  11H  -   0.416587  and   3N  -   0.603911
MO  16:  10H  -   0.496085  and   2C  -   0.547932
MO  15:   9H  -   0.476145  and   2C  -   0.556144
MO  14:   8H  -   0.442467  and   4N  -   0.571714
MO  13:   7H  -   0.439248  and   4N  -   0.576251
MO  12:   6H  -   0.482193  and   0C  -   0.566273
MO  11:   5H  -   0.477372  and   0C  -   0.550665
MO  10:   4N  -   0.604223  and   0C  -   0.414293
MO   9:   3N  -   0.594123  and   2C  -   0.425656
MO   8:   2C  -   0.509228  and   1C  -   0.524952
MO   7:   1C  -   0.510281  and   0C  -   0.524115
Localized MO's were stored in: propanediamine_gGGg.proc0.loc

Localizing the core orbitals
------------------------------------------------------------------------------
                           ORCA ORBITAL LOCALIZATION
------------------------------------------------------------------------------

Input orbitals are from                  ... propanediamine_gGGg.proc0.loc
Output orbitals are to                   ... propanediamine_gGGg.proc0.loc
Max. number of iterations                ... 128
Localizations seeded randomly            ... off
Convergence tolerance                    ... 1.000e-06
Using relative localization threshhold   ... 1.000e-08
Treshold for strong local MOs            ... 9.500e-01
Treshold for bond MOs                    ... 8.500e-01
Operator                                 ... 0
Orbital range for localization           ... 0 to 4
Localization criterion                   ... FOSTER-BOYS (AUGMENTED HESSIAN)
Doing the dipole integrals     ... o.k.
Initial value of the localization sum :    40.704278
ITERATION   0 : L=   40.7042797295 DL=  1.31e-06 (AVERGE_DL)=    0.0003613265 
ITERATION   1 : L=   40.7042797295 DL=  0.00e+00 (AVERGE_DL)=    0.0000000000 
LOCALIZATION SUM CONVERGED

------------------------------------------------------
AUGMENTED HESSIAN OPTIMIZATION OF FOSTER-BOYS ORBITALS
------------------------------------------------------

Spin operator:           0
Orbital window:          0 to 4
Number of iterations:    128
Gradient tolerance:      1.000e-06
Number of pairs:         10
Davidson threshold:      2000
Diagonalization method:  LAPACK
Iter:    0   L: 40.7042797295   Grad. norm: 5.912520e-07
   *** Likely close to a maximum now. ***
       Augmented Hessian eigenvalues:  8.63e-15 -3.08e+01 -3.10e+01 -3.36e+01 ... 
Iter:    1   L: 40.7042797295   Grad. norm: 9.942541e-21
LOCALIZATION HAS CONVERGED.

Eigenvalues of the Hessian:
  0 -3.075e+01
  1 -3.103e+01
  2 -3.361e+01
  3 -3.361e+01
  4 -8.816e+01
  5 -8.906e+01
  6 -9.590e+01
  7 -1.286e+02
  8 -1.367e+02
  9 -1.463e+02


------------------------------------------------------------------------------- 
                    LOCALIZED MOLECULAR ORBITAL COMPOSITIONS                   
------------------------------------------------------------------------------- 

The Mulliken populations for each LMO on each atom are computed
The LMO`s will be ordered according to atom index and type
  (A) Strongly localized MO`s have populations of >=0.950 on one atom
  (B) Two center bond orbitals have populations of >=0.850 on two atoms
  (C) Other MO`s are considered to be `delocalized`

FOUND  -   5 strongly local MO`s
       -   0 two center bond MO`s
       -   0 significantly delocalized MO`s

Rather strongly localized orbitals:
MO   4:   4N  -   1.000148
MO   3:   3N  -   1.000183
MO   2:   2C  -   1.001238
MO   1:   1C  -   1.001453
MO   0:   0C  -   1.001242
Localized MO's were stored in: propanediamine_gGGg.proc0.loc

Warning: internal orbitals are localized - no re-canonicalization of internal orbitals

--------------------------
CLOSED-SHELL FOCK OPERATOR
--------------------------

RI-JK section for the Fock operator:
  RHF full Fock operator         ... done
  RHF frozen core Fock operator  ... done
Time needed for Fock operator              ...            1.348 sec
Reference energy                           ...   -228.394501963

--------------
DLPNO SETTINGS (2015 fully linear scaling implementation)
--------------

TCutMKN:           1.000e-03
TCutPAO:           1.000e-03
TCutPNO:           1.000e-07
TCutPNOSingles:    3.000e-09
TCutEN:            9.700e-01
TCutPAOExt:        1.000e-01
TCutPairs:         1.000e-05
TCutPre:           1.000e-07
TCutOSV:           1.000e-06
TCutDOij:          1.000e-05
TCutDO:            5.000e-03
TCutC:             1.000e-04
TCutCPAO:          1.000e-03
TCutCMO:           1.000e-03
TScaleDOMP2PreScr: 2.000e+00
TScaleMKNMP2PreScr:1.000e+01
TScalePNOMP2PreScr:1.000e+00
PAO overlap thresh 1.000e-08
Using PNOs for Singles Fock computation
Use new domains
Use fully linear algorithm
TCutTNO:           1.000e-09
TCutMP2Pairs:      1.000e-06
TCutDOStrong:      2.000e-03
TCutMKNStrong:     1.000e-02
TCutMKNWeak:       1.000e-01
TCutDOWeak:        4.000e-03
NTCutTNO:          1

--------------------------
Calculating differential overlap integrals ... ok
--------------------------
ELECTRON PAIR PRESCREENING
--------------------------

Dipole-based pair screening          .... used

   TCutDOij = 1.000000e-05
   TCutPre  = 1.000000e-07
   .... Finished loop over pairs
Total time spent in the prescreening                  ...     0.000 sec
sum of pair energies estimated for screened out pairs ...       0.000000000000 Eh
Thresholds for map construction and integral transformation for crude MP2:
   TCutMKN                    ...     1.0e-02
   TCutDO                     ...     1.0e-02
   TCutPairs                  ...     1.0e-05
   TCutPNO_CrudeMP2           ...     1.0e-07
   TCutPNOSingles_CrudeMP2    ...     3.0e-09
--------------------------------
LOCAL RI TRANSFORMATION (IAVPAO)
--------------------------------

Orbital window:       5 to 20
Number of PAOs:     290
Basis functions:    290 (110 shells)
Aux. functions:     705 (215 shells)

Processing maps (0.0 sec)
Average map sizes:
   Aux shells -> MOs              16.0
   Aux shells -> PAOs            290.0
   MOs        -> AO shells       108.1
   PAOs       -> AO shells       110.0

Calculating integrals (0.5 sec, 24.965 MB)
Sorting integrals (0.0 sec, 24.957 MB)
Total time for the integral transformation: 0.5 sec
--------------------------------
INITIAL GUESS AND PNO GENERATION
--------------------------------

PNO truncation parameters                   .... 
    PAOOverlapThresh   =        1.000e-08

    TCutPairs          =        1.000e-05
    TCutPNO            =        1.000e-07
    TCutPNOSingles     =        3.000e-09
    TCutMP2Pairs       =        1.000e-06
    TCutMKN            =        1.000e-02
    TCutDO             =        1.000e-02

Pair selection                          .... not used
Type of local MP2 treatment                 .... semi-local MP2
Strategy for PNO selection                  .... occupation number selection
Pair density normalization                  .... MP2 norm
Spin component scaling                      .... not used

   .... Finished loop over pairs
Making pair pair interaction lists          ... done

                       ===========================
                        136 OF  136 PAIRS ARE KEPT CCSD PAIRS
                          0 OF  136 PAIRS ARE KEPT MP2 PAIRS FOR (T)
                          0 OF  136 PAIRS ARE SKIPPED
                       ===========================

Total time spent in the initial guess                 ...     0.932 sec
SL-MP2 correlation energy (all non-screened pairs)    ...      -0.937983284941 Eh

Initial PNO correlation energy                        ...      -0.937192712193 Eh
sum of pair energies prescreened and skipped MP2 pairs...       0.000000000000 Eh
sum of pair energies of crude MP2 skipped pairs only  ...       0.000000000000 Eh
sum of MP2 pair energies for pairs that were not kept ...       0.000000000000 Eh
sum of PNO error estimates for the kept pairs         ...      -0.000790572748 Eh
                                                          --------------------
sum of all corrections                                         -0.000790572748
Initial total correlation energy                               -0.937983284941
Thresholds for map construction and integral transformation for fine MP2 and CCSD(T) calculation:
   TCutMKN   ...     1.0e-03
   TCutDO    ...     5.0e-03
   TCutPairs ...     1.0e-05
   TCutCMO   ...     1.0e-03
   TCutCPAO  ...     1.0e-03

Thresholds for map construction and integral transformation for strong Triples:
   TCutMKN   ...     1.0e-02
   TCutDO    ...     1.0e-02
   TCutCMO   ...     1.0e-03
   TCutCPAO  ...     1.0e-03

Thresholds for map construction and integral transformation for weak Triples:
   TCutMKN   ...     1.0e-01
   TCutDO    ...     2.0e-02
   TCutCMO   ...     1.0e-03
   TCutCPAO  ...     1.0e-03

--------------------------------
LOCAL RI TRANSFORMATION (IAVPAO)
--------------------------------

Orbital window:       5 to 20
Number of PAOs:     290
Basis functions:    290 (110 shells)
Aux. functions:     705 (215 shells)

Processing maps (0.0 sec)
Average map sizes:
   Aux shells -> MOs              16.0
   Aux shells -> PAOs            290.0
   MOs        -> AO shells       108.1
   PAOs       -> AO shells       110.0

Calculating integrals (0.5 sec, 24.965 MB)
Sorting integrals (0.0 sec, 24.957 MB)
Total time for the integral transformation: 0.5 sec
--------------------------------
INITIAL GUESS AND PNO GENERATION
--------------------------------

PNO truncation parameters                   .... 
    ScaleTCutPNO       =        1.000e-02
    PAOOverlapThresh   =        1.000e-08

    TCutPairs          =        1.000e-05
    TCutPNO            =        1.000e-07
    TCutPNOSingles     =        3.000e-09
    TCutMP2Pairs       =        1.000e-06
    TCutMKN            =        1.000e-03
    TCutDO             =        5.000e-03

Pair selection                          .... not used
Type of local MP2 treatment                 .... full local PMP2
Strategy for PNO selection                  .... occupation number selection
Pair density normalization                  .... MP2 norm
Spin component scaling                      .... not used

PASS-1: Formation of initial guess LMP2 amplitudes
Initial amplitudes guess done. Entering LMP2 iteration loop:
   Max. no of iterations          ...  50
   Energy convergence tolerance   ...    1.0e-07
   Residual convergence tolerance ...    5.0e-07
   Fock matrix cutoff             ...    1.0e-05 Eh
   DIIS convergence acceleration parameters:
        Max # vectors in DIIS     ... 7
        Start iteration of DIIS   ... 0
        Levelshift                ... 2.000e-01
        Damping factor 1          ... 5.000e-01
        Damping factor 2          ... 1.000e+00
   L-MP2 PNO cut-off              ...   1.0e-09
   L-MP2 PNO cut-off (core)       ...   1.0e-11
                           *** Turning on DIIS ***
LMP2-Iter=   0:  ELMP2= -0.954025265296  DE=   1.6e-02 RMAX=   4.7e-03
LMP2-Iter=   1:  ELMP2= -0.962523858412  DE=   8.5e-03 RMAX=   1.4e-03
LMP2-Iter=   2:  ELMP2= -0.963759912937  DE=   1.2e-03 RMAX=   2.7e-04
LMP2-Iter=   3:  ELMP2= -0.963879336190  DE=   1.2e-04 RMAX=   8.5e-05
LMP2-Iter=   4:  ELMP2= -0.963883712717  DE=   4.4e-06 RMAX=   1.2e-05
LMP2-Iter=   5:  ELMP2= -0.963882978915  DE=   7.3e-07 RMAX=   3.9e-06
LMP2-Iter=   6:  ELMP2= -0.963882885511  DE=   9.3e-08 RMAX=   5.1e-07
LMP2-Iter=   7:  ELMP2= -0.963882880483  DE=   5.0e-09 RMAX=   1.6e-07
LMP2-Iter=   8:  ELMP2= -0.963882883618  DE=   3.1e-09 RMAX=   1.8e-08 => CONVERGED
PASS-2: Formation of Pair natural orbitals
   .... Finished loop over pairs

 PNO Occupation Number Statistics: 
  | Av. % of trace(Dij) retained        ...  99.605531719839
  | sigma^2 in % of trace(Dij) retained ...   2.33e-01
  | Av. % of trace(Di) retained         ...  99.999748736481
  | sigma^2 in % of trace(Di) retained  ...   3.89e-09
 Distributions of % trace(Dij) recovered:
  |       >= 99.9  ...    48 ( 35.3 % of all pairs)
  |   [90.0, 99.0) ...    17 ( 12.5 % of all pairs)
  |   [99.0, 99.9) ...    71 ( 52.2 % of all pairs)
 Distributions of % trace(Di) recovered :
  |       >= 99.9  ...    16 (100.0 % of all I-pairs )

Making pair pair interaction lists          ... done

                       ===========================
                        136 OF  136 PAIRS ARE KEPT
                       ===========================

Total time spent in the initial guess                 ...     6.484 sec
L-MP2 correlation energy (all non-screened pairs)     ...      -0.963882883618 Eh
L-MP2 PNO error correction                            ...      -0.000015635456 Eh
                                                          --------------------
Initial total L-MP2 energy (non-screened pairs)       ...      -0.963898519075 Eh

Initial PNO correlation energy                        ...      -0.963128054123 Eh
sum of pair energies estimated for screened out pairs ...       0.000000000000 Eh
sum of MP2 pair energies for pairs that were not kept ...       0.000000000000 Eh
sum of PNO error estimates for the kept pairs         ...      -0.000770464952 Eh
                                                          --------------------
sum of all corrections                                         -0.000770464952
Initial total correlation energy                               -0.963898519075
Thresholds for map construction and integral transformation for fine MP2 and CCSD(T) calculation:
   TCutMKN   ...     1.0e-03
   TCutDO    ...     5.0e-03
   TCutPairs ...     1.0e-05
   TCutCMO   ...     1.0e-03
   TCutCPAO  ...     1.0e-03

Time for aux screen maps:            0.002
Time for maps after fine MP2:            0.008
-----------------------------
LOCAL RI TRANSFORMATION (IJV)
-----------------------------

Orbital window:       5 to 20
Basis functions:    290 (110 shells)
Aux. functions:     705 (215 shells)

Processing maps (0.0 sec)
Average map sizes:
   Aux shells -> MOs(i)           16.0
   Aux shells -> MOs(j)           16.0
   MOs        -> AO shells       108.1

Calculating integrals (0.4 sec, 1.385 MB)
Sorting integrals (0.0 sec, 1.377 MB)
Total time for the integral transformation: 0.5 sec
--------------------------------
LOCAL RI TRANSFORMATION (VABPAO)
--------------------------------

Number of PAOs:     290
Basis functions:    290 (110 shells)
Aux. functions:     705 (215 shells)

Processing maps (0.0 sec)
Average map sizes:
   Aux shells -> PAOs            290.0
   PAOs       -> AO shells       110.0

Calculating integrals (1.2 sec, 848.894 MB)
Finished


-------------------------------------
Pair Pair Term precalculation with     
RI-(ij|mn) and (im|jn) transformation  
ON THE FLY                             
-------------------------------------

   IBatch   1 (of   1)              ... done (   25.416 sec)
Total EXT                           ...          25.416 sec

---------------------
RI-PNO TRANSFORMATION
---------------------

Total Number of PNOs                   ...  5816
Average number of PNOs per pair        ...    42
Maximal number of PNOs per pair        ...    71
   #pairs with  1 -  5 PNOs   :    0
   #pairs with  6 - 10 PNOs   :    3
   #pairs with 11 - 15 PNOs   :   10
   #pairs with 16 - 20 PNOs   :    8
   #pairs with 21 - 25 PNOs   :   11
   #pairs with 26 - 30 PNOs   :   13
   #pairs with 31 - 35 PNOs   :    3
   #pairs with 36 - 40 PNOs   :    8
   #pairs with 41 - 45 PNOs   :    5
   #pairs with 46 - 50 PNOs   :   21
   #pairs with 51 - 55 PNOs   :   17
   #pairs with 56 - 60 PNOs   :    9
   #pairs with 61 - 65 PNOs   :   14
   #pairs with 66 - 70 PNOs   :   13
   #pairs with 71 - 75 PNOs   :    1

Generation of (ij|ab)[P] integrals            ... on
Generation of (ia|bc)[P],(ja|bc)[P] integrals ... on
Storage of 3 and 4 external integrals         ... on
Generation of ALL (ka|bc)[P] integrals        ... on
Keep RI integrals in memory                   ... off

Ibatch:  1 (of  1)
Starting 2-4 index PNO integral generation ... done

Timings:
Total PNO integral transformation time     ...         15.776 sec
Size of the 3-external file                ...       124 MB
Size of the 4-external file                ...       914 MB
Size of the IKJL file                      ...         0 MB
Size of the all 3-external file            ...       999 MB
Size of the 1-external file                ...         2 MB

Making pair/pair overlap matrices          ... done (    0.966 sec)
Size of the pair overlap file              ... 198 MB
Redoing the guess amplitudes               ... done (    0.002 sec)

-------------------------
FINAL STARTUP INFORMATION
-------------------------

E(0)                                       ...   -228.394501963
E(L-MP2)                                   ...     -0.963898519
E(L-MP2) including corrections             ...     -0.963898519
Initial E(tot)                             ...   -229.358400482
<T|T>                                      ...      0.262096565
Number of pairs included                   ... 136
Total number of pairs                      ... 136

------------------------------------------------
                  RHF COUPLED CLUSTER ITERATIONS
------------------------------------------------

Number of PNO amplitudes to be optimized   ...       293012
Number of non-PNO amplitudes               ...      9841096
Untruncated number of regular amplitudes   ...      9841096

Iter       E(tot)           E(Corr)          Delta-E          Residual     Time
  0   -229.332526868     -0.937254441      0.026644078      0.016186636    7.45
                           *** Turning on DIIS ***
  1   -229.376020849     -0.980748422     -0.043493981      0.006002808    7.46
  2   -229.400641153     -1.005368726     -0.024620304      0.001789971    7.49
  3   -229.405180233     -1.009907805     -0.004539079      0.000534466    9.40
  4   -229.406059626     -1.010787198     -0.000879393      0.000231746    8.00
  5   -229.406204962     -1.010932534     -0.000145336      0.000124791    7.09
  6   -229.406235604     -1.010963176     -0.000030642      0.000068128    7.20
  7   -229.406239960     -1.010967532     -0.000004356      0.000038611    7.41
  8   -229.406240933     -1.010968506     -0.000000973      0.000016075    7.30
  9   -229.406240637     -1.010968209      0.000000296      0.000005324    7.85
               --- The Coupled-Cluster iterations have converged ---

----------------------
COUPLED CLUSTER ENERGY
----------------------

E(0)                                       ...   -228.394501963
E(CORR)(strong-pairs)                      ...     -1.010968209
E(CORR)(weak-pairs)                        ...     -0.000770465
E(CORR)(corrected)                         ...     -1.011738674
E(TOT)                                     ...   -229.406240637
Singles Norm <S|S>**1/2                    ...      0.046087765  
T1 diagnostic                              ...      0.008147243  

------------------
LARGEST AMPLITUDES
------------------
  20-> 27  20-> 27       0.035304
  11-> 28  11-> 28       0.032835
  16-> 26  16-> 26       0.031245
  15-> 27  15-> 27       0.030535
  16-> 21  16-> 21       0.028922
  14-> 27  14-> 27       0.028862
  13-> 27  13-> 27       0.028744
  12-> 27  12-> 27       0.028300
  12-> 21  12-> 21       0.028095
  11-> 21  11-> 21       0.027887
  20-> 21  20-> 21       0.027752
  19-> 21  19-> 21       0.027662
  15-> 21  15-> 21       0.027407
  14-> 24  14-> 24       0.027358
  13-> 21  13-> 21       0.027162
  12-> 25  12-> 25       0.026905


-------------------------------------------
DLPNO BASED TRIPLES CORRECTION
-------------------------------------------

Singles multiplier          ...  1.000000
TCutTNO                     ... 1.000e-09
TCutMP2Pairs                ... 1.000e-06
TCutDOStrong                ... 1.000e-02
TCutMKNStrong               ... 1.000e-02
TCutDOWeak                  ... 2.000e-02
TCutMKNWeak                 ... 1.000e-01

Fragment selection                          .... not used
Number of Triples that are to be computed   ...       800

 . . . . . . . . .
10% done  
20% done  
30% done  
40% done  
50% done  
60% done  
70% done  
80% done  
90% done               (     60.228 sec)
Triples timings:
Total time for T0               ...    64.487 sec
Total time for Iterative (T)    ...     0.000 sec
Total time of overall (T)       ...    73.640 sec

Triples List generation         ...     0.000 sec
TNO generation                  ...     4.253 sec
Pair density generation         ...     0.003 sec
Look up tables                  ...     0.000 sec
Generating 3-index integrals    ...    36.220 sec
  Make 4-ind.int. from 3-ind.int...     8.338 sec
  Projecting amplitudes (D + S) ...     4.455 sec
  Downprojecting integrals      ...     0.002 sec
  Energy contr. (sum over a,b,c)...     3.313 sec
Fitting ET(->0)                 ...     0.000 sec

Everything after 3-index        ...    24.008 sec

Timing details:
 TNO integrals                  ...    43.893 sec
   Reading 3-index integrals    ...     0.156 sec
   Sorting integrals            ...     6.849 sec
       Sorting integrals 1      ...     0.001 sec
       Sorting integrals 2      ...     2.884 sec
       Sorting integrals 3      ...     0.205 sec
       Sorting integrals 4      ...     0.010 sec
       Sorting integrals 5      ...     0.064 sec
       Sorting integrals 6      ...     3.684 sec
   Calculating local VM**-1/2   ...     0.201 sec
   Orthogonal. integrals        ...     0.353 sec
   Multipl. 3-index integrals   ...    36.334 sec
   All concerning IRIab (w/TNO) ...     3.893 sec

 Calculate W0/W1                ...     7.895 sec
 W 3-ext contribution           ...     4.101 sec
 W 3-int contribution           ...     1.146 sec
 Sorting W                      ...     2.542 sec

 V exchange contribution        ...     1.069 sec

 Timings for Triples without generation
     of 3-index integrals       ...    24.007 sec
       0 weak pairs             ...    24.007 sec
       1 weak pair              ...     0.000 sec
       2 weak pairs             ...     0.000 sec
       3 weak pairs             ...     0.000 sec
  Extra time for extrapolation  ...     0.000 sec

Number of Triples   (0, 1, 2, 3 weak pairs; overall):    800       0       0       0  (   800)
Number of Atoms     (0, 1, 2, 3 weak pairs; overall):   14.6     0.0     0.0     0.0  (    15)
Number of PAOs      (0, 1, 2, 3 weak pairs; overall):  284.9     0.0     0.0     0.0  (   290)
Number of AuxFcns   (0, 1, 2, 3 weak pairs; overall):  365.0     0.0     0.0     0.0  (   705)
Number of TNOs      (0, 1, 2, 3 weak pairs         ):   99.7     0.0     0.0     0.0
Aver. Number of NTNO, Atoms, PAOs, AuxFcns / Triples:    800    99.7    14.6   284.9   365.0

Triples Correction (T)                     ...     -0.037982314
Final correlation energy                   ...     -1.049720989
E(CCSD)                                    ...   -229.406240637
E(CCSD(T))                                 ...   -229.444222951


Maximum memory used throughout the entire calculation: 4615.6 MB


------------------------------------------------------------------------------- 
                                     TIMINGS                                   
------------------------------------------------------------------------------- 


Total execution time                   ...      214.114 sec

Localization of occupied MO's          ...        0.496 sec (  0.2%)
Fock Matrix Formation                  ...        1.348 sec (  0.6%)
Global overlap, Fock, MKN matrices     ...        0.192 sec (  0.1%)
Differential overlap integrals         ...        0.077 sec (  0.0%)
Organizing maps                        ...        0.024 sec (  0.0%)
RI 3-index integral generations        ...        2.675 sec (  1.2%)
RI-PNO integral transformation         ...       50.988 sec ( 23.8%)
Initial Guess                          ...        7.451 sec (  3.5%)
DIIS Solver                            ...        0.952 sec (  0.4%)
State Vector Update                    ...        0.021 sec (  0.0%)
Sigma-vector construction              ...       76.460 sec ( 35.7%)
  <D|H|D>(0-ext)                       ...        1.261 sec (  1.6% of sigma)
  <D|H|D>(2-ext Fock)                  ...        0.008 sec (  0.0% of sigma)
  <D|H|D>(2-ext)                       ...        5.980 sec (  7.8% of sigma)
  <D|H|D>(4-ext)                       ...       10.861 sec ( 14.2% of sigma)
  <D|H|D>(4-ext-corr)                  ...       44.810 sec ( 58.6% of sigma)
  CCSD doubles correction              ...        0.102 sec (  0.1% of sigma)
  <S|H|S>                              ...        0.280 sec (  0.4% of sigma)
  <S|H|D>(1-ext)                       ...        0.151 sec (  0.2% of sigma)
  <D|H|S>(1-ext)                       ...        0.006 sec (  0.0% of sigma)
  <S|H|D>(3-ext)                       ...        0.363 sec (  0.5% of sigma)
  Fock-dressing                        ...        9.966 sec ( 13.0% of sigma)
  Singles amplitudes                   ...        0.254 sec (  0.3% of sigma)
  (ik|jl)-dressing                     ...        0.909 sec (  1.2% of sigma)
  (ij|ab),(ia|jb)-dressing             ...        1.306 sec (  1.7% of sigma)
  Pair energies                        ...        0.005 sec (  0.0% of sigma)
Total Time for computing (T)           ...       73.671 sec ( 34.4% of ALL)


-------------------------   --------------------
FINAL SINGLE POINT ENERGY      -229.444222951394
-------------------------   --------------------


                            ***************************************
                            *     ORCA property calculations      *
                            ***************************************

                                    ---------------------
                                    Active property flags
                                    ---------------------
   (+) Dipole Moment


------------------------------------------------------------------------------
                       ORCA ELECTRIC PROPERTIES CALCULATION
------------------------------------------------------------------------------

Dipole Moment Calculation                       ... on
Quadrupole Moment Calculation                   ... off
Polarizability Calculation                      ... off
GBWName                                         ... propanediamine_gGGg.gbw
Electron density file                           ... propanediamine_gGGg.scfp.tmp
The origin for moment calculation is the CENTER OF MASS  = (-0.017113, -0.028037 -0.013102)

-------------
DIPOLE MOMENT
-------------
                                X             Y             Z
Electronic contribution:     -0.17224      -1.00888      -0.26931
Nuclear contribution   :      0.71866       1.17760       0.55036
                        -----------------------------------------
Total Dipole Moment    :      0.54641       0.16872       0.28105
                        -----------------------------------------
Magnitude (a.u.)       :      0.63720
Magnitude (Debye)      :      1.61963



--------------------
Rotational spectrum 
--------------------
 
Rotational constants in cm-1:     0.245534     0.120290     0.089708 
Rotational constants in MHz :  7360.920607  3606.201592  2689.384766 

 Dipole components along the rotational axes: 
x,y,z [a.u.] :     0.550583    -0.166947     0.273877 
x,y,z [Debye]:     1.399472    -0.424346     0.696141 

 

Timings for individual modules:

Sum of individual times         ...      223.578 sec (=   3.726 min)
GTO integral calculation        ...        0.702 sec (=   0.012 min)   0.3 %
SCF iterations                  ...        8.484 sec (=   0.141 min)   3.8 %
MDCI module                     ...      214.392 sec (=   3.573 min)  95.9 %
                             ****ORCA TERMINATED NORMALLY****
TOTAL RUN TIME: 0 days 0 hours 3 minutes 43 seconds 919 msec
propanediamine_gGGg.gbw -> /home1/pantazis/klk/xyz/Nitrogen_compounds/propanediamine_gGGg.gbw
propanediamine_gGGg.job -> /home1/pantazis/klk/xyz/Nitrogen_compounds/propanediamine_gGGg.job
propanediamine_gGGg.loc -> /home1/pantazis/klk/xyz/Nitrogen_compounds/propanediamine_gGGg.loc
propanediamine_gGGg.nodes -> /home1/pantazis/klk/xyz/Nitrogen_compounds/propanediamine_gGGg.nodes
propanediamine_gGGg.prop -> /home1/pantazis/klk/xyz/Nitrogen_compounds/propanediamine_gGGg.prop
propanediamine_gGGg_property.txt -> /home1/pantazis/klk/xyz/Nitrogen_compounds/propanediamine_gGGg_property.txt
propanediamine_gGGg.xyz -> /home1/pantazis/klk/xyz/Nitrogen_compounds/propanediamine_gGGg.xyz
cp: cannot stat propanediamine_gGGg.asa.inp: No such file or directory
