! Job execution by suborca V 6.07 on ZEUS !
Job started from zeus1, running /scratch/pantazis/propen_3_ol_skew_g_plus__hTufuA/orca/orca copied from /opt/orca on zeussn129 in /scratch/pantazis/propen_3_ol_skew_g_plus__hTufuA
Job execution start: Thu Jun 27 14:19:14 CEST 2019
Shared library path: /scratch/pantazis/propen_3_ol_skew_g_plus__hTufuA/orca:/opt/openmpi_1.10.2/lib:/opt/intel/mkl/lib/intel64:/opt/intel/lib/intel64:
PBS Job ID is: 158153.icqc
izeussn129
izeussn129
izeussn129
izeussn129
izeussn129
izeussn129
izeussn129
izeussn129

                                 *****************
                                 * O   R   C   A *
                                 *****************

           --- An Ab Initio, DFT and Semiempirical electronic structure package ---

                  #######################################################
                  #                        -***-                        #
                  #          Department of theory and spectroscopy      #
                  #               Directorship: Frank Neese             #
                  #        Max Planck Institute fuer Kohlenforschung    #
                  #                Kaiser Wilhelm Platz 1               #
                  #                 D-45470 Muelheim/Ruhr               #
                  #                      Germany                        #
                  #                                                     #
                  #                  All rights reserved                #
                  #                        -***-                        #
                  #######################################################


                         Program Version 4.1.x  -  STABLE  -
                                (SVN: $Rev: 14094$)
                ($Date: 2019-06-14 15:01:15 +0200 (Fri, 14 Jun 2019) $)

                         (BUILD: $Sun Jun 23 06:18:31 CEST 2019$)


 With contributions from (in alphabetic order):
   Daniel Aravena         : Magnetic Properties
   Michael Atanasov       : Ab Initio Ligand Field Theory
   Alexander A. Auer      : GIAO ZORA
   Ute Becker             : Parallelization
   Giovanni Bistoni       : ED, Open-shell LED
   Martin Brehm           : Molecular dynamics
   Dmytro Bykov           : SCF Hessian
   Vijay G. Chilkuri      : MRCI spin determinant printing
   Dipayan Datta          : RHF DLPNO-CCSD density
   Achintya Kumar Dutta   : EOM-CC, STEOM-CC
   Dmitry Ganyushin       : Spin-Orbit,Spin-Spin,Magnetic field MRCI
   Miquel Garcia          : C-PCM Hessian
   Yang Guo               : DLPNO-NEVPT2, CIM, IAO-localization
   Andreas Hansen         : Spin unrestricted coupled pair/coupled cluster methods
   Benjamin Helmich-Paris : CASSCF linear response (MC-RPA)
   Lee Huntington         : MR-EOM, pCC
   Robert Izsak           : Overlap fitted RIJCOSX, COSX-SCS-MP3, EOM
   Christian Kollmar      : KDIIS, OOCD, Brueckner-CCSD(T), CCSD density
   Simone Kossmann        : Meta GGA functionals, TD-DFT gradient, OOMP2, MP2 Hessian
   Martin Krupicka        : AUTO-CI
   Lucas Lang             : DCDCAS
   Dagmar Lenk            : GEPOL surface, SMD
   Dimitrios Liakos       : Extrapolation schemes; parallel MDCI
   Dimitrios Manganas     : ROCIS; embedding schemes
   Dimitrios Pantazis     : SARC Basis sets
   Taras Petrenko         : DFT Hessian,TD-DFT gradient, ASA, ECA, R-Raman, ABS, FL, XAS/XES, NRVS
   Peter Pinski           : DLPNO-MP2, DLPNO-MP2 Gradient
   Christoph Reimann      : Effective Core Potentials
   Marius Retegan         : Local ZFS, SOC
   Christoph Riplinger    : Optimizer, TS searches, QM/MM, DLPNO-CCSD(T), (RO)-DLPNO pert. Triples
   Tobias Risthaus        : Range-separated hybrids, TD-DFT gradient, RPA, STAB
   Michael Roemelt        : Restricted open shell CIS
   Masaaki Saitow         : Open-shell DLPNO
   Barbara Sandhoefer     : DKH picture change effects
   Avijit Sen             : IP-ROCIS
   Kantharuban Sivalingam : CASSCF convergence, NEVPT2, FIC-MRCI
   Bernardo de Souza      : ESD, SOC TD-DFT
   Georgi Stoychev        : AutoAux, RI-MP2 NMR
   Willem Van den Heuvel  : Paramagnetic NMR
   Boris Wezisla          : Elementary symmetry handling
   Frank Wennmohs         : Technical directorship


 We gratefully acknowledge several colleagues who have allowed us to
 interface, adapt or use parts of their codes:
   Stefan Grimme, W. Hujo, H. Kruse,             : VdW corrections, initial TS optimization,
                  C. Bannwarth                     DFT functionals, gCP, sTDA/sTD-DF
   Ed Valeev                                     : LibInt (2-el integral package), F12 methods
   Garnet Chan, S. Sharma, J. Yang, R. Olivares  : DMRG
   Ulf Ekstrom                                   : XCFun DFT Library
   Mihaly Kallay                                 : mrcc  (arbitrary order and MRCC methods)
   Andreas Klamt, Michael Diedenhofen            : otool_cosmo (COSMO solvation model)
   Jiri Pittner, Ondrej Demel                    : Mk-CCSD
   Frank Weinhold                                : gennbo (NPA and NBO analysis)
   Christopher J. Cramer and Donald G. Truhlar   : smd solvation model
   Lars Goerigk                                  : TD-DFT with DH, B97 family of functionals
   V. Asgeirsson, H. Jonsson                     : NEB implementation
   FAccTs GmbH                                   : IRC, NEB, NEB-TS, Multilevel


 Your calculation uses the libint2 library for the computation of 2-el integrals
 For citations please refer to: http://libint.valeyev.net

 This ORCA versions uses:
   CBLAS   interface :  Fast vector & matrix operations
   LAPACKE interface :  Fast linear algebra routines
   SCALAPACK package :  Parallel linear algebra routines




***************************************
The coordinates will be read from file: propen_3_ol_skew_g_plus.xyz
***************************************


----- Orbital basis set information -----
Your calculation utilizes the basis: cc-pVTZ 
       H, B-Ne : Obtained from the ccRepo (grant-hill.group.shef.ac.uk/ccrepo) Feb. 2017
                 T. H. Dunning, Jr., J. Chem. Phys. 90, 1007 (1989)
            He : Obtained from the ccRepo (grant-hill.group.shef.ac.uk/ccrepo) Feb. 2017
                 D. E. Woon, T. H. Dunning, Jr., J. Chem. Phys. 100, 2975 (1994)
  Li-Be, Na-Mg : Obtained from the ccRepo (grant-hill.group.shef.ac.uk/ccrepo) Feb. 2017
                 B. P. Prascher, D. E. Woon, K. A. Peterson, T. H. Dunning, Jr., A. K. Wilson, Theor. Chem. Acc. 128, 69 (2011)
         Al-Ar : Obtained from the ccRepo (grant-hill.group.shef.ac.uk/ccrepo) Feb. 2017
                 D. E. Woon, T. H. Dunning, Jr., J. Chem. Phys. 98, 1358 (1993)
            Ca : Obtained from the Peterson Research Group Website (tyr0.chem.wsu.edu/~kipeters) Feb. 2017
                 J. Koput, K. A. Peterson, J. Phys. Chem. 106, 9595 (2002)
         Sc-Zn : Obtained from the ccRepo (grant-hill.group.shef.ac.uk/ccrepo) Feb. 2017
                 N. B. Balabanov, K. A. Peterson, J. Chem. Phys. 123, 064107 (2005)
                 N. B. Balabanov, K. A. Peterson, J. Chem. Phys. 125, 074110 (2006)
         Ga-Kr : Obtained from the ccRepo (grant-hill.group.shef.ac.uk/ccrepo) Feb. 2017
                 A. K. Wilson, D. E. Woon, K. A. Peterson, T. H. Dunning, Jr., J. Chem. Phys. 110, 7667 (1999)
             Y : Obtained from the ccRepo (grant-hill.group.shef.ac.uk/ccrepo) Feb. 2017
                 K. A. Peterson, D. Figgen, M. Dolg, H. Stoll, J. Chem. Phys. 126, 124101 (2007)
        Ag, Au : Obtained from the Peterson Research Group Website (tyr0.chem.wsu.edu/~kipeters) Feb. 2017
                 K. A. Peterson, C. Puzzarini, Theor. Chem. Acc. 114, 283 (2005)

----- AuxC basis set information -----
Your calculation utilizes the auxiliary basis: cc-pVTZ/C 
  Obtained from the EMSL Basis Set Exchange (bse.pnl.gov) Feb. 2017
  H-He, B-F, Al-Ar, Ga-Kr : F. Weigend, A. Kohn, C. Hattig, J. Chem. Phys. 116, 3175 (2002)
             Li-Be, Na-Mg : C. Haettig, Phys. Chem. Chem. Phys. 7, 59 (2005)
                       Ne : C. Haettig, Phys. Chem. Chem. Phys. 7, 59 (2005)
                            F. Weigend, A. Kohn, C. Hattig, J. Chem. Phys. 116, 3175 (2002)
                    Sc-Zn : J. G. Hill, J. A. Platts, J. Chem. Phys. 128, 044104 (2008)

----- AuxJK basis set information -----
Your calculation utilizes the auxiliary basis: cc-pVTZ/JK 
  H, B-F, Al-Cl, Ga-Br : Obtained from the TURBOMOLE 7.0 basis set library

================================================================================
                                        WARNINGS
                       Please study these warnings very carefully!
================================================================================


WARNING: MDCI localization with Augmented Hessian Foster-Boys
  ===> : Switching off randomization!

WARNING: Post HF methods need fully converged wavefunctions
  ===> : Setting SCFConvForced true
         You can overwrite this default with %scf ConvForced false 


INFO   : the flag for use of LIBINT has been found!

================================================================================
                                       INPUT FILE
================================================================================
NAME = propen_3_ol_skew_g_plus.inp
|  1> ! RHF DLPNO-CCSD(T) cc-pVTZ RIJK cc-pVTZ/JK cc-pVTZ/C
|  2> ! KDIIS SOSCF TightSCF TightPNO
|  3> 
|  4> %pal nprocs 8 end
|  5> 
|  6> %maxcore 8000
|  7> 
|  8> %scf maxiter 300
|  9>      shift shift 0.2 erroff 0.1 end
| 10> end
| 11> 
| 12> * xyzfile 0 1 propen_3_ol_skew_g_plus.xyz 
| 13> 
| 14> 
| 15>                          ****END OF INPUT****
================================================================================

                       ****************************
                       * Single Point Calculation *
                       ****************************

---------------------------------
CARTESIAN COORDINATES (ANGSTROEM)
---------------------------------
  C     -1.808020    0.030620   -0.256030
  C     -0.665130   -0.297940    0.354410
  C      0.602950    0.503920    0.261040
  O      1.700350   -0.271290   -0.235810
  H     -2.703350   -0.577000   -0.161240
  H     -1.888830    0.928520   -0.865700
  H     -0.606210   -1.204920    0.955970
  H      0.441590    1.400290   -0.355720
  H      0.923960    0.834840    1.254680
  H      1.451260   -0.631020   -1.098010

----------------------------
CARTESIAN COORDINATES (A.U.)
----------------------------
  NO LB      ZA    FRAG     MASS         X           Y           Z
   0 C     6.0000    0    12.011   -3.416663    0.057863   -0.483827
   1 C     6.0000    0    12.011   -1.256914   -0.563025    0.669738
   2 C     6.0000    0    12.011    1.139410    0.952271    0.493294
   3 O     8.0000    0    15.999    3.213196   -0.512664   -0.445616
   4 H     1.0000    0     1.008   -5.108591   -1.090372   -0.304699
   5 H     1.0000    0     1.008   -3.569371    1.754649   -1.635936
   6 H     1.0000    0     1.008   -1.145571   -2.276969    1.806521
   7 H     1.0000    0     1.008    0.834484    2.646165   -0.672213
   8 H     1.0000    0     1.008    1.746031    1.577619    2.371002
   9 H     1.0000    0     1.008    2.742484   -1.192455   -2.074938

--------------------------------
INTERNAL COORDINATES (ANGSTROEM)
--------------------------------
 C      0   0   0     0.000000000000     0.00000000     0.00000000
 C      1   0   0     1.336707230212     0.00000000     0.00000000
 C      2   1   0     1.503237939549   124.17848580     0.00000000
 O      3   2   1     1.432514302407   112.27835726   237.02688212
 H      1   2   3     1.086187376745   121.83091487   180.07312555
 H      1   2   3     1.088325399410   121.47327803   359.43530028
 H      2   1   3     1.089935190917   120.18592965   180.87705500
 H      3   2   1     1.099958691997   110.22888668     1.38150944
 H      3   2   1     1.095388477254   110.61073812   120.48298083
 H      4   3   2     0.966871419063   108.25650040    56.95751896

---------------------------
INTERNAL COORDINATES (A.U.)
---------------------------
 C      0   0   0     0.000000000000     0.00000000     0.00000000
 C      1   0   0     2.526010586332     0.00000000     0.00000000
 C      2   1   0     2.840708019868   124.17848580     0.00000000
 O      3   2   1     2.707059714474   112.27835726   237.02688212
 H      1   2   3     2.052596672170   121.83091487   180.07312555
 H      1   2   3     2.056636949475   121.47327803   359.43530028
 H      2   1   3     2.059679014557   120.18592965   180.87705500
 H      3   2   1     2.078620686501   110.22888668     1.38150944
 H      3   2   1     2.069984232262   110.61073812   120.48298083
 H      4   3   2     1.827122188744   108.25650040    56.95751896

---------------------
BASIS SET INFORMATION
---------------------
There are 3 groups of distinct atoms

 Group   1 Type C   : 18s5p2d1f contracted to 4s3p2d1f pattern {8811/311/11/1}
 Group   2 Type O   : 18s5p2d1f contracted to 4s3p2d1f pattern {8811/311/11/1}
 Group   3 Type H   : 5s2p1d contracted to 3s2p1d pattern {311/11/1}

Atom   0C    basis set group =>   1
Atom   1C    basis set group =>   1
Atom   2C    basis set group =>   1
Atom   3O    basis set group =>   2
Atom   4H    basis set group =>   3
Atom   5H    basis set group =>   3
Atom   6H    basis set group =>   3
Atom   7H    basis set group =>   3
Atom   8H    basis set group =>   3
Atom   9H    basis set group =>   3
-------------------------------
AUXILIARY BASIS SET INFORMATION
-------------------------------
There are 3 groups of distinct atoms

 Group   1 Type C   : 8s6p5d3f1g contracted to 8s6p5d3f1g pattern {11111111/111111/11111/111/1}
 Group   2 Type O   : 8s6p5d3f1g contracted to 8s6p5d3f1g pattern {11111111/111111/11111/111/1}
 Group   3 Type H   : 4s3p2d1f contracted to 4s3p2d1f pattern {1111/111/11/1}

Atom   0C    basis set group =>   1
Atom   1C    basis set group =>   1
Atom   2C    basis set group =>   1
Atom   3O    basis set group =>   2
Atom   4H    basis set group =>   3
Atom   5H    basis set group =>   3
Atom   6H    basis set group =>   3
Atom   7H    basis set group =>   3
Atom   8H    basis set group =>   3
Atom   9H    basis set group =>   3
-------------------------------
AUXILIARY BASIS SET INFORMATION
-------------------------------
There are 3 groups of distinct atoms

 Group   1 Type C   : 10s7p5d2f1g contracted to 10s7p5d2f1g pattern {1111111111/1111111/11111/11/1}
 Group   2 Type O   : 10s7p5d2f1g contracted to 10s7p5d2f1g pattern {1111111111/1111111/11111/11/1}
 Group   3 Type H   : 4s3p2d1f contracted to 4s3p2d1f pattern {1111/111/11/1}

Atom   0C    basis set group =>   1
Atom   1C    basis set group =>   1
Atom   2C    basis set group =>   1
Atom   3O    basis set group =>   2
Atom   4H    basis set group =>   3
Atom   5H    basis set group =>   3
Atom   6H    basis set group =>   3
Atom   7H    basis set group =>   3
Atom   8H    basis set group =>   3
Atom   9H    basis set group =>   3


           ************************************************************
           *        Program running with 8 parallel MPI-processes     *
           *              working on a common directory               *
           ************************************************************
------------------------------------------------------------------------------
                           ORCA GTO INTEGRAL CALCULATION
                           -- RI-GTO INTEGRALS CHOSEN --
------------------------------------------------------------------------------

                         BASIS SET STATISTICS AND STARTUP INFO

Gaussian basis set:
 # of primitive gaussian shells          ...  152
 # of primitive gaussian functions       ...  296
 # of contracted shells                  ...   76
 # of contracted basis functions         ...  204
 Highest angular momentum                ...    3
 Maximum contraction depth               ...    8
Auxiliary gaussian basis set:
 # of primitive gaussian shells          ...  160
 # of primitive gaussian functions       ...  496
 # of contracted shells                  ...  160
 # of contracted aux-basis functions     ...  496
 Highest angular momentum                ...    4
 Maximum contraction depth               ...    1
Ratio of auxiliary to basis functions    ...  2.43
Integral package used                  ... LIBINT
 One Electron integrals                  ... done
 Ordering auxiliary basis shells         ... done
 Integral threshhold             Thresh  ...  2.500e-11
 Primitive cut-off               TCut    ...  2.500e-12
 Pre-screening matrix                    ... done
 Shell pair data                         ... 
 Ordering of the shell pairs             ... done (   0.001 sec) 2868 of 2926 pairs
 Determination of significant pairs      ... done (   0.000 sec)
 Creation of shell pair data             ... done (   0.001 sec)
 Storage of shell pair data              ... done (   0.001 sec)
 Shell pair data done in (   0.002 sec)
 Computing two index integrals           ... done
 Cholesky decomposition of the V-matrix  ... done


Timings:
 Total evaluation time                   ...   0.273 sec (  0.005 min)
 One electron matrix time                ...   0.026 sec (  0.000 min) =  9.5%
 Schwartz matrix evaluation time         ...   0.165 sec (  0.003 min) = 60.3%
 Two index repulsion integral time       ...   0.028 sec (  0.000 min) = 10.2%
 Cholesky decomposition of V             ...   0.027 sec (  0.000 min) =  9.8%
 Three index repulsion integral time     ...   0.000 sec (  0.000 min) =  0.0%



           ************************************************************
           *        Program running with 8 parallel MPI-processes     *
           *              working on a common directory               *
           ************************************************************
-------------------------------------------------------------------------------
                                 ORCA SCF
-------------------------------------------------------------------------------

------------
SCF SETTINGS
------------
Hamiltonian:
 Ab initio Hamiltonian  Method          .... Hartree-Fock(GTOs)
 RI-approximation to the Coulomb term is turned on
   Number of auxiliary basis functions  .... 496
   RI-JK (J+K treated both via RI)      .... on


General Settings:
 Integral files         IntName         .... propen_3_ol_skew_g_plus
 Hartree-Fock type      HFTyp           .... RHF
 Total Charge           Charge          ....    0
 Multiplicity           Mult            ....    1
 Number of Electrons    NEL             ....   32
 Basis Dimension        Dim             ....  204
 Nuclear Repulsion      ENuc            ....    116.2631315219 Eh

Convergence Acceleration:
 DIIS                   CNVDIIS         .... off
 Newton-Raphson         CNVNR           .... off
 SOSCF                  CNVSOSCF        .... on
   Start iteration      SOSCFMaxIt      ....   150
   Startup grad/error   SOSCFStart      ....  0.003300
 Level Shifting         CNVShift        .... on
   Level shift para.    LevelShift      ....    0.2000
   Turn off err/grad.   ShiftErr        ....    0.1000
 Zerner damping         CNVZerner       .... off
 Static damping         CNVDamp         .... off
 Fernandez-Rico         CNVRico         .... off

SCF Procedure:
 Maximum # iterations   MaxIter         ....   300
 SCF integral mode      SCFMode         .... Direct
   Integral package                     .... LIBINT
 Reset frequency        DirectResetFreq ....    20
 Integral Threshold     Thresh          ....  2.500e-11 Eh
 Primitive CutOff       TCut            ....  2.500e-12 Eh

Convergence Tolerance:
 Convergence Check Mode ConvCheckMode   .... Total+1el-Energy
 Convergence forced     ConvForced      .... 1
 Energy Change          TolE            ....  1.000e-08 Eh
 1-El. energy change                    ....  1.000e-05 Eh
 Orbital Gradient       TolG            ....  1.000e-05
 Orbital Rotation angle TolX            ....  1.000e-05


Diagonalization of the overlap matrix:
Smallest eigenvalue                        ... 4.785e-04
Time for diagonalization                   ...    0.011 sec
Threshold for overlap eigenvalues          ... 1.000e-08
Number of eigenvalues below threshold      ... 0
Time for construction of square roots      ...    0.007 sec
Total time needed                          ...    0.018 sec

-------------------
DFT GRID GENERATION
-------------------

General Integration Accuracy     IntAcc      ...  4.340
Radial Grid Type                 RadialGrid  ... Gauss-Chebyshev
Angular Grid (max. acc.)         AngularGrid ... Lebedev-110
Angular grid pruning method      GridPruning ... 3 (G Style)
Weight generation scheme         WeightScheme... Becke
Basis function cutoff            BFCut       ...    1.0000e-11
Integration weight cutoff        WCut        ...    1.0000e-14
Grids for H and He will be reduced by one unit

# of grid points (after initial pruning)     ...  11448 (   0.0 sec)
# of grid points (after weights+screening)   ...  10925 (   0.0 sec)
nearest neighbour list constructed           ...    0.0 sec
Grid point re-assignment to atoms done       ...    0.0 sec
Grid point division into batches done        ...    0.0 sec
Reduced shell lists constructed in    0.0 sec

Total number of grid points                  ...    10925
Total number of batches                      ...      176
Average number of points per batch           ...       62
Average number of grid points per atom       ...     1092
Average number of shells per batch           ...    66.13 (87.01%)
Average number of basis functions per batch  ...   174.57 (85.57%)
Average number of large shells per batch     ...    57.43 (86.85%)
Average number of large basis fcns per batch ...   150.04 (85.95%)
Average number of aux-shells per batch       ...    66.13 (41.33%)
Average number of aux functions per batch    ...   174.57 (35.19%)
Maximum spatial batch extension              ...   4.98,  6.40,  6.04 au
Average spatial batch extension              ...   0.24,  0.26,  0.26 au

Time for grid setup =    0.055 sec

------------------------------
INITIAL GUESS: MODEL POTENTIAL
------------------------------
Loading Hartree-Fock densities                     ... done
Calculating cut-offs                               ... done
Setting up the integral package                    ... done
Initializing the effective Hamiltonian             ... done
Starting the Coulomb interaction                   ... done (   0.0 sec)
Reading the grid                                   ... done
Mapping shells                                     ... done
Starting the XC term evaluation                    ... done (   0.0 sec)
Transforming the Hamiltonian                       ... done (   0.0 sec)
Diagonalizing the Hamiltonian                      ... done (   0.0 sec)
Back transforming the eigenvectors                 ... done (   0.0 sec)
Now organizing SCF variables                       ... done
                      ------------------
                      INITIAL GUESS DONE (   0.2 sec)
                      ------------------
--------------
SCF ITERATIONS
--------------
ITER       Energy         Delta-E        Max-DP      RMS-DP      [F,P]   Gradient Norm
                             ****Turning on KDIIS(Cayley)****
  0   -191.7853377599   0.000000000000 0.01069393  0.00031356  0.1466521   0.154820014
  1   -191.8433980272  -0.058060267263 0.01788657  0.00036573  0.1353431   0.134355938
  2   -191.8941859276  -0.050787900461 0.02930811  0.00061187  0.1081582   0.109263769
  3   -191.9565769000  -0.062390972398 0.04451839  0.00097346  0.0655976   0.066930906
                      *** Initiating the SOSCF procedure ***
                           *** Shutting down KDIIS ***
                      *** Re-Reading the Fockian *** 
                      *** Removing any level shift *** 
ITER      Energy       Delta-E        Grad      Rot      Max-DP    RMS-DP
  4   -191.99643691  -0.0398600139  0.001804  0.001804  0.002400  0.000082
  5   -191.99658613  -0.0001492147  0.000325  0.000411  0.000697  0.000023
  6   -191.99659039  -0.0000042579  0.000235  0.000332  0.000383  0.000014
  7   -191.99659154  -0.0000011547  0.000025  0.000035  0.000106  0.000002
  8   -191.99659159  -0.0000000448  0.000012  0.000016  0.000022  0.000001
  9   -191.99659159  -0.0000000087  0.000006  0.000013  0.000009  0.000000
                  ***Gradient check signals convergence***
              ***Rediagonalizing the Fockian in SOSCF/NRSCF***

               *****************************************************
               *                     SUCCESS                       *
               *           SCF CONVERGED AFTER  10 CYCLES          *
               *****************************************************


----------------
TOTAL SCF ENERGY
----------------

Total Energy       :         -191.99659160 Eh           -5224.49287 eV

Components:
Nuclear Repulsion  :          116.26313152 Eh            3163.68065 eV
Electronic Energy  :         -308.25972312 Eh           -8388.17351 eV
One Electron Energy:         -490.90955631 Eh          -13358.32815 eV
Two Electron Energy:          182.64983319 Eh            4970.15464 eV

Virial components:
Potential Energy   :         -383.65488251 Eh          -10439.78010 eV
Kinetic Energy     :          191.65829092 Eh            5215.28724 eV
Virial Ratio       :            2.00176512


---------------
SCF CONVERGENCE
---------------

  Last Energy change         ...   -6.7456e-10  Tolerance :   1.0000e-08
  Last MAX-Density change    ...    3.3312e-06  Tolerance :   1.0000e-07
  Last RMS-Density change    ...    1.2201e-07  Tolerance :   5.0000e-09
  Last Orbital Gradient      ...    1.3646e-06  Tolerance :   1.0000e-05
  Last Orbital Rotation      ...    1.8879e-06  Tolerance :   1.0000e-05

             **** THE GBW FILE WAS UPDATED (propen_3_ol_skew_g_plus.gbw) ****
             **** DENSITY FILE WAS UPDATED (propen_3_ol_skew_g_plus.scfp.tmp) ****
             **** ENERGY FILE WAS UPDATED (propen_3_ol_skew_g_plus.en.tmp) ****
----------------
ORBITAL ENERGIES
----------------

  NO   OCC          E(Eh)            E(eV) 
   0   2.0000     -20.554728      -559.3226 
   1   2.0000     -11.282511      -307.0127 
   2   2.0000     -11.239816      -305.8509 
   3   2.0000     -11.234654      -305.7105 
   4   2.0000      -1.353898       -36.8414 
   5   2.0000      -1.062961       -28.9246 
   6   2.0000      -0.919426       -25.0188 
   7   2.0000      -0.775321       -21.0976 
   8   2.0000      -0.696544       -18.9539 
   9   2.0000      -0.621109       -16.9012 
  10   2.0000      -0.612864       -16.6769 
  11   2.0000      -0.599889       -16.3238 
  12   2.0000      -0.530826       -14.4445 
  13   2.0000      -0.493305       -13.4235 
  14   2.0000      -0.451396       -12.2831 
  15   2.0000      -0.375738       -10.2243 
  16   0.0000       0.138324         3.7640 
  17   0.0000       0.152422         4.1476 
  18   0.0000       0.171713         4.6726 
  19   0.0000       0.180964         4.9243 
  20   0.0000       0.185796         5.0558 
  21   0.0000       0.224781         6.1166 
  22   0.0000       0.241293         6.5659 
  23   0.0000       0.305783         8.3208 
  24   0.0000       0.320366         8.7176 
  25   0.0000       0.407053        11.0765 
  26   0.0000       0.414225        11.2716 
  27   0.0000       0.448069        12.1926 
  28   0.0000       0.474398        12.9090 
  29   0.0000       0.484847        13.1934 
  30   0.0000       0.520605        14.1664 
  31   0.0000       0.555739        15.1224 
  32   0.0000       0.571102        15.5405 
  33   0.0000       0.573467        15.6048 
  34   0.0000       0.599088        16.3020 
  35   0.0000       0.605817        16.4851 
  36   0.0000       0.622248        16.9322 
  37   0.0000       0.628949        17.1146 
  38   0.0000       0.652591        17.7579 
  39   0.0000       0.671211        18.2646 
  40   0.0000       0.700967        19.0743 
  41   0.0000       0.724318        19.7097 
  42   0.0000       0.755543        20.5594 
  43   0.0000       0.812080        22.0978 
  44   0.0000       0.821713        22.3599 
  45   0.0000       0.831446        22.6248 
  46   0.0000       0.843814        22.9613 
  47   0.0000       0.873972        23.7820 
  48   0.0000       0.907962        24.7069 
  49   0.0000       0.922684        25.1075 
  50   0.0000       0.958347        26.0779 
  51   0.0000       0.978913        26.6376 
  52   0.0000       1.085668        29.5425 
  53   0.0000       1.096319        29.8324 
  54   0.0000       1.124908        30.6103 
  55   0.0000       1.152670        31.3658 
  56   0.0000       1.203960        32.7614 
  57   0.0000       1.231300        33.5054 
  58   0.0000       1.251708        34.0607 
  59   0.0000       1.268288        34.5119 
  60   0.0000       1.293258        35.1914 
  61   0.0000       1.309398        35.6305 
  62   0.0000       1.318414        35.8759 
  63   0.0000       1.365407        37.1546 
  64   0.0000       1.373078        37.3634 
  65   0.0000       1.414427        38.4885 
  66   0.0000       1.420451        38.6524 
  67   0.0000       1.468242        39.9529 
  68   0.0000       1.492839        40.6222 
  69   0.0000       1.519190        41.3393 
  70   0.0000       1.549230        42.1567 
  71   0.0000       1.563545        42.5462 
  72   0.0000       1.591965        43.3196 
  73   0.0000       1.646572        44.8055 
  74   0.0000       1.679495        45.7014 
  75   0.0000       1.698613        46.2216 
  76   0.0000       1.721502        46.8444 
  77   0.0000       1.747276        47.5458 
  78   0.0000       1.788951        48.6798 
  79   0.0000       1.891622        51.4737 
  80   0.0000       2.048205        55.7345 
  81   0.0000       2.153460        58.5986 
  82   0.0000       2.203121        59.9500 
  83   0.0000       2.209652        60.1277 
  84   0.0000       2.336612        63.5824 
  85   0.0000       2.396115        65.2016 
  86   0.0000       2.413794        65.6827 
  87   0.0000       2.444518        66.5187 
  88   0.0000       2.540892        69.1412 
  89   0.0000       2.592401        70.5428 
  90   0.0000       2.620786        71.3152 
  91   0.0000       2.653546        72.2067 
  92   0.0000       2.676555        72.8328 
  93   0.0000       2.714164        73.8562 
  94   0.0000       2.789908        75.9173 
  95   0.0000       2.833829        77.1124 
  96   0.0000       2.868306        78.0506 
  97   0.0000       2.949504        80.2601 
  98   0.0000       2.980883        81.1140 
  99   0.0000       3.022884        82.2569 
 100   0.0000       3.034680        82.5778 
 101   0.0000       3.061539        83.3087 
 102   0.0000       3.080604        83.8275 
 103   0.0000       3.132084        85.2283 
 104   0.0000       3.172671        86.3328 
 105   0.0000       3.192130        86.8623 
 106   0.0000       3.198780        87.0432 
 107   0.0000       3.208817        87.3163 
 108   0.0000       3.227950        87.8370 
 109   0.0000       3.255073        88.5750 
 110   0.0000       3.273250        89.0697 
 111   0.0000       3.289946        89.5240 
 112   0.0000       3.329459        90.5992 
 113   0.0000       3.341905        90.9379 
 114   0.0000       3.378341        91.9293 
 115   0.0000       3.389849        92.2425 
 116   0.0000       3.404473        92.6404 
 117   0.0000       3.450054        93.8808 
 118   0.0000       3.466623        94.3316 
 119   0.0000       3.521939        95.8368 
 120   0.0000       3.527568        95.9900 
 121   0.0000       3.572166        97.2036 
 122   0.0000       3.587696        97.6262 
 123   0.0000       3.595985        97.8517 
 124   0.0000       3.652197        99.3813 
 125   0.0000       3.679195       100.1160 
 126   0.0000       3.707786       100.8940 
 127   0.0000       3.744753       101.8999 
 128   0.0000       3.766699       102.4971 
 129   0.0000       3.799586       103.3920 
 130   0.0000       3.838339       104.4465 
 131   0.0000       3.893327       105.9428 
 132   0.0000       3.911819       106.4460 
 133   0.0000       3.924716       106.7969 
 134   0.0000       3.946279       107.3837 
 135   0.0000       3.975296       108.1733 
 136   0.0000       3.996364       108.7466 
 137   0.0000       4.036319       109.8338 
 138   0.0000       4.045365       110.0800 
 139   0.0000       4.115599       111.9911 
 140   0.0000       4.139994       112.6550 
 141   0.0000       4.153812       113.0310 
 142   0.0000       4.181362       113.7806 
 143   0.0000       4.193704       114.1165 
 144   0.0000       4.216216       114.7291 
 145   0.0000       4.251396       115.6864 
 146   0.0000       4.270058       116.1942 
 147   0.0000       4.293637       116.8358 
 148   0.0000       4.315857       117.4405 
 149   0.0000       4.335928       117.9866 
 150   0.0000       4.359366       118.6244 
 151   0.0000       4.403642       119.8292 
 152   0.0000       4.439288       120.7992 
 153   0.0000       4.485627       122.0601 
 154   0.0000       4.524444       123.1164 
 155   0.0000       4.542967       123.6204 
 156   0.0000       4.561544       124.1259 
 157   0.0000       4.577437       124.5584 
 158   0.0000       4.674666       127.2041 
 159   0.0000       4.679436       127.3339 
 160   0.0000       4.716606       128.3454 
 161   0.0000       4.782158       130.1291 
 162   0.0000       4.820607       131.1754 
 163   0.0000       4.876365       132.6926 
 164   0.0000       4.958639       134.9314 
 165   0.0000       4.987534       135.7177 
 166   0.0000       5.083679       138.3339 
 167   0.0000       5.101807       138.8272 
 168   0.0000       5.132038       139.6498 
 169   0.0000       5.153827       140.2428 
 170   0.0000       5.226321       142.2154 
 171   0.0000       5.260060       143.1335 
 172   0.0000       5.275391       143.5507 
 173   0.0000       5.320898       144.7890 
 174   0.0000       5.336030       145.2008 
 175   0.0000       5.444950       148.1646 
 176   0.0000       5.456823       148.4877 
 177   0.0000       5.509466       149.9202 
 178   0.0000       5.553995       151.1319 
 179   0.0000       5.610950       152.6817 
 180   0.0000       5.729769       155.9149 
 181   0.0000       5.750530       156.4799 
 182   0.0000       5.784474       157.4036 
 183   0.0000       5.960884       162.2039 
 184   0.0000       5.966338       162.3523 
 185   0.0000       6.134131       166.9182 
 186   0.0000       6.203344       168.8016 
 187   0.0000       6.292319       171.2227 
 188   0.0000       6.360699       173.0834 
 189   0.0000       6.392441       173.9472 
 190   0.0000       6.621707       180.1858 
 191   0.0000       6.647628       180.8912 
 192   0.0000       6.988483       190.1663 
 193   0.0000       7.131916       194.0693 
 194   0.0000       7.174909       195.2392 
 195   0.0000       7.261145       197.5858 
 196   0.0000       7.367418       200.4776 
 197   0.0000       7.431167       202.2123 
 198   0.0000       7.663727       208.5406 
 199   0.0000       7.932247       215.8474 
 200   0.0000      11.389997       309.9376 
 201   0.0000      12.280261       334.1629 
 202   0.0000      13.239870       360.2752 
 203   0.0000      14.595015       397.1506 

                    ********************************
                    * MULLIKEN POPULATION ANALYSIS *
                    ********************************

-----------------------
MULLIKEN ATOMIC CHARGES
-----------------------
   0 C :   -0.332891
   1 C :   -0.165731
   2 C :    0.105606
   3 O :   -0.419014
   4 H :    0.146528
   5 H :    0.139485
   6 H :    0.160767
   7 H :    0.062551
   8 H :    0.082114
   9 H :    0.220585
Sum of atomic charges:    0.0000000

--------------------------------
MULLIKEN REDUCED ORBITAL CHARGES
--------------------------------
  0 C s       :     3.328975  s :     3.328975
      pz      :     0.971628  p :     2.910911
      px      :     0.941520
      py      :     0.997763
      dz2     :     0.014330  d :     0.086266
      dxz     :     0.011507
      dyz     :     0.015061
      dx2y2   :     0.019128
      dxy     :     0.026239
      f0      :     0.000393  f :     0.006740
      f+1     :     0.001521
      f-1     :     0.000380
      f+2     :     0.001370
      f-2     :     0.000646
      f+3     :     0.000837
      f-3     :     0.001592
  1 C s       :     3.236902  s :     3.236902
      pz      :     0.946755  p :     2.820795
      px      :     0.899771
      py      :     0.974269
      dz2     :     0.013117  d :     0.099611
      dxz     :     0.019594
      dyz     :     0.017963
      dx2y2   :     0.021853
      dxy     :     0.027085
      f0      :     0.000652  f :     0.008423
      f+1     :     0.001638
      f-1     :     0.000439
      f+2     :     0.001436
      f-2     :     0.001126
      f+3     :     0.001225
      f-3     :     0.001906
  2 C s       :     3.149690  s :     3.149690
      pz      :     0.975632  p :     2.595748
      px      :     0.754826
      py      :     0.865290
      dz2     :     0.021390  d :     0.137905
      dxz     :     0.027871
      dyz     :     0.020542
      dx2y2   :     0.036557
      dxy     :     0.031544
      f0      :     0.001030  f :     0.011052
      f+1     :     0.001349
      f-1     :     0.001163
      f+2     :     0.001094
      f-2     :     0.001617
      f+3     :     0.002521
      f-3     :     0.002279
  3 O s       :     3.762332  s :     3.762332
      pz      :     1.392045  p :     4.628533
      px      :     1.571049
      py      :     1.665439
      dz2     :     0.006874  d :     0.026745
      dxz     :     0.005626
      dyz     :     0.002956
      dx2y2   :     0.004189
      dxy     :     0.007100
      f0      :     0.000164  f :     0.001404
      f+1     :     0.000137
      f-1     :     0.000301
      f+2     :     0.000075
      f-2     :     0.000286
      f+3     :     0.000147
      f-3     :     0.000294
  4 H s       :     0.827217  s :     0.827217
      pz      :     0.008419  p :     0.024184
      px      :     0.006587
      py      :     0.009177
      dz2     :     0.000158  d :     0.002071
      dxz     :     0.000521
      dyz     :     0.000172
      dx2y2   :     0.000601
      dxy     :     0.000619
  5 H s       :     0.834592  s :     0.834592
      pz      :     0.008571  p :     0.023771
      px      :     0.006789
      py      :     0.008411
      dz2     :     0.000437  d :     0.002152
      dxz     :     0.000275
      dyz     :     0.000507
      dx2y2   :     0.000411
      dxy     :     0.000522
  6 H s       :     0.812028  s :     0.812028
      pz      :     0.007945  p :     0.024876
      px      :     0.007914
      py      :     0.009017
      dz2     :     0.000454  d :     0.002329
      dxz     :     0.000304
      dyz     :     0.000449
      dx2y2   :     0.000438
      dxy     :     0.000683
  7 H s       :     0.909546  s :     0.909546
      pz      :     0.007397  p :     0.025596
      px      :     0.006614
      py      :     0.011585
      dz2     :     0.000410  d :     0.002307
      dxz     :     0.000248
      dyz     :     0.000602
      dx2y2   :     0.000500
      dxy     :     0.000546
  8 H s       :     0.888742  s :     0.888742
      pz      :     0.010891  p :     0.026724
      px      :     0.006675
      py      :     0.009157
      dz2     :     0.000826  d :     0.002420
      dxz     :     0.000530
      dyz     :     0.000708
      dx2y2   :     0.000096
      dxy     :     0.000261
  9 H s       :     0.695771  s :     0.695771
      pz      :     0.025233  p :     0.076449
      px      :     0.021138
      py      :     0.030078
      dz2     :     0.002363  d :     0.007196
      dxz     :     0.001761
      dyz     :     0.002022
      dx2y2   :     0.000412
      dxy     :     0.000637


                     *******************************
                     * LOEWDIN POPULATION ANALYSIS *
                     *******************************

----------------------
LOEWDIN ATOMIC CHARGES
----------------------
   0 C :    0.084083
   1 C :    0.010836
   2 C :   -0.047812
   3 O :    0.305612
   4 H :   -0.037564
   5 H :   -0.039520
   6 H :   -0.027779
   7 H :   -0.032873
   8 H :   -0.023619
   9 H :   -0.191365

-------------------------------
LOEWDIN REDUCED ORBITAL CHARGES
-------------------------------
  0 C s       :     2.727986  s :     2.727986
      pz      :     0.913864  p :     2.873808
      px      :     1.009875
      py      :     0.950069
      dz2     :     0.035227  d :     0.286994
      dxz     :     0.046244
      dyz     :     0.043129
      dx2y2   :     0.078682
      dxy     :     0.083712
      f0      :     0.001945  f :     0.027129
      f+1     :     0.005139
      f-1     :     0.000642
      f+2     :     0.004805
      f-2     :     0.003914
      f+3     :     0.004943
      f-3     :     0.005742
  1 C s       :     2.726784  s :     2.726784
      pz      :     0.887072  p :     2.820524
      px      :     1.002243
      py      :     0.931208
      dz2     :     0.044018  d :     0.403402
      dxz     :     0.083239
      dyz     :     0.060245
      dx2y2   :     0.111357
      dxy     :     0.104543
      f0      :     0.003801  f :     0.038454
      f+1     :     0.005822
      f-1     :     0.000924
      f+2     :     0.005138
      f-2     :     0.007084
      f+3     :     0.008784
      f-3     :     0.006901
  2 C s       :     2.680367  s :     2.680367
      pz      :     0.965832  p :     2.726775
      px      :     0.852476
      py      :     0.908467
      dz2     :     0.093802  d :     0.566362
      dxz     :     0.094029
      dyz     :     0.094286
      dx2y2   :     0.139772
      dxy     :     0.144473
      f0      :     0.006831  f :     0.074308
      f+1     :     0.011122
      f-1     :     0.005635
      f+2     :     0.009981
      f-2     :     0.010499
      f+3     :     0.016622
      f-3     :     0.013619
  3 O s       :     3.219696  s :     3.219696
      pz      :     1.379675  p :     4.404281
      px      :     1.492410
      py      :     1.532196
      dz2     :     0.016643  d :     0.066201
      dxz     :     0.012940
      dyz     :     0.012213
      dx2y2   :     0.010017
      dxy     :     0.014388
      f0      :     0.000560  f :     0.004210
      f+1     :     0.000873
      f-1     :     0.000581
      f+2     :     0.000419
      f-2     :     0.000566
      f+3     :     0.000581
      f-3     :     0.000630
  4 H s       :     0.855477  s :     0.855477
      pz      :     0.040262  p :     0.155558
      px      :     0.063205
      py      :     0.052090
      dz2     :     0.002430  d :     0.026529
      dxz     :     0.005698
      dyz     :     0.002559
      dx2y2   :     0.008156
      dxy     :     0.007687
  5 H s       :     0.857885  s :     0.857885
      pz      :     0.052636  p :     0.155025
      px      :     0.033829
      py      :     0.068560
      dz2     :     0.005237  d :     0.026610
      dxz     :     0.002764
      dyz     :     0.007184
      dx2y2   :     0.005163
      dxy     :     0.006262
  6 H s       :     0.847306  s :     0.847306
      pz      :     0.050707  p :     0.153501
      px      :     0.033789
      py      :     0.069004
      dz2     :     0.005017  d :     0.026972
      dxz     :     0.002658
      dyz     :     0.007356
      dx2y2   :     0.005485
      dxy     :     0.006456
  7 H s       :     0.864057  s :     0.864057
      pz      :     0.047659  p :     0.141941
      px      :     0.030118
      py      :     0.064164
      dz2     :     0.005682  d :     0.026875
      dxz     :     0.002670
      dyz     :     0.007003
      dx2y2   :     0.005644
      dxy     :     0.005877
  8 H s       :     0.853276  s :     0.853276
      pz      :     0.070507  p :     0.143092
      px      :     0.034284
      py      :     0.038301
      dz2     :     0.009330  d :     0.027251
      dxz     :     0.006537
      dyz     :     0.008231
      dx2y2   :     0.001063
      dxy     :     0.002091
  9 H s       :     0.727436  s :     0.727436
      pz      :     0.157885  p :     0.363146
      px      :     0.096777
      py      :     0.108485
      dz2     :     0.034169  d :     0.100783
      dxz     :     0.026372
      dyz     :     0.026711
      dx2y2   :     0.005946
      dxy     :     0.007586


                      *****************************
                      * MAYER POPULATION ANALYSIS *
                      *****************************

  NA   - Mulliken gross atomic population
  ZA   - Total nuclear charge
  QA   - Mulliken gross atomic charge
  VA   - Mayer's total valence
  BVA  - Mayer's bonded valence
  FA   - Mayer's free valence

  ATOM       NA         ZA         QA         VA         BVA        FA
  0 C      6.3329     6.0000    -0.3329     3.8389     3.8389     0.0000
  1 C      6.1657     6.0000    -0.1657     3.7608     3.7608     0.0000
  2 C      5.8944     6.0000     0.1056     3.9309     3.9309    -0.0000
  3 O      8.4190     8.0000    -0.4190     1.9814     1.9814     0.0000
  4 H      0.8535     1.0000     0.1465     0.9736     0.9736     0.0000
  5 H      0.8605     1.0000     0.1395     0.9743     0.9743     0.0000
  6 H      0.8392     1.0000     0.1608     0.9770     0.9770     0.0000
  7 H      0.9374     1.0000     0.0626     0.9761     0.9761    -0.0000
  8 H      0.9179     1.0000     0.0821     0.9743     0.9743     0.0000
  9 H      0.7794     1.0000     0.2206     1.0197     1.0197     0.0000

  Mayer bond orders larger than 0.1
B(  0-C ,  1-C ) :   1.8560 B(  0-C ,  4-H ) :   0.9726 B(  0-C ,  5-H ) :   0.9639 
B(  1-C ,  2-C ) :   0.9687 B(  1-C ,  6-H ) :   0.9546 B(  2-C ,  3-O ) :   0.9780 
B(  2-C ,  7-H ) :   0.9841 B(  2-C ,  8-H ) :   0.9734 B(  3-O ,  9-H ) :   0.9855 


-------
TIMINGS
-------

Total SCF time: 0 days 0 hours 0 min 3 sec 

Total time                  ....       3.769 sec
Sum of individual times     ....       3.591 sec  ( 95.3%)

Fock matrix formation       ....       3.314 sec  ( 87.9%)
Diagonalization             ....       0.025 sec  (  0.7%)
Density matrix formation    ....       0.005 sec  (  0.1%)
Population analysis         ....       0.010 sec  (  0.3%)
Initial guess               ....       0.159 sec  (  4.2%)
Orbital Transformation      ....       0.000 sec  (  0.0%)
Orbital Orthonormalization  ....       0.000 sec  (  0.0%)
DIIS solution               ....       0.000 sec  (  0.0%)
SOSCF solution              ....       0.025 sec  (  0.7%)


           ************************************************************
           *        Program running with 8 parallel MPI-processes     *
           *              working on a common directory               *
           ************************************************************


------------------------------------------------------------------------------- 
                              ORCA-MATRIX DRIVEN CI                            
------------------------------------------------------------------------------- 


Wavefunction type
-----------------
Correlation treatment                      ...      CCSD     
Single excitations                         ... ON
Orbital optimization                       ... OFF
Calculation of Z vector                    ... OFF
Calculation of Brueckner orbitals          ... OFF
Perturbative triple excitations            ... ON
Calculation of F12 correction              ... OFF
Frozen core treatment                      ... chemical core (8 el)
Reference Wavefunction                     ... RHF
  Internal Orbitals:     4 ...   15 ( 12 MO's/ 24 electrons)
  Virtual  Orbitals:    16 ...  203 (188 MO's              )
Number of AO's                             ...    204
Number of electrons                        ...     32
Number of correlated electrons             ...     24

Algorithmic settings
--------------------
Integral transformation                    ... All integrals via the RI transformation
K(C) Formation                             ... RI-DLPNO
   PNO-Integral Storage                    ... ON DISK
   PNO occupation number cut-off           ... 1.000e-07
   Singles PNO occupation number cut-off   ... 3.000e-09
   PNO Mulliken prescreening cut-off       ... 1.000e-03
   Domain cut-off (Mulliken population)    ... 1.000e-03
   PNO Normalization                       ...    1
Maximum number of iterations               ...        50
Convergence tolerance (max. residuum)      ... 1.000e-05
Level shift for amplitude update           ... 2.000e-01
Maximum number of DIIS vectors             ...         7
DIIS turned on at iteration                ...         0
Damping before turning on DIIS             ...     0.500
Damping after turning on DIIS              ...     0.000
Pair specific amplitude update             ... OFF
Natural orbital iterations                 ... OFF
Perturbative natural orbital generation    ... OFF
Printlevel                                 ... 2

Singles Fock matrix elements calculated using PNOs.

Memory handling:
----------------
Maximum memory for working arrays          ...   8000 MB
Data storage in matrix containers          ... UNCOMPRESSED
Data type for integral storage             ... DOUBLE
In-Core Storage of quantities:
   Amplitudes+Sigma Vector      ... NO
   J+K operators                ... NO
   DIIS vectors                 ... NO
   3-external integrals         ... NO
   4-external integrals         ... NO

Localization treatment:
-----------------------
Localization option                        ...    6
Localization threshhold                    ... -1.0e+00
Using relative localization threshhold     ... 1.0e-08
Neglect threshold for strong pairs         ... 1.000e-05 Eh
Prescreening threshold for very weak pairs ... 1.000e-07 Eh

Initializing the integral package          ... done
Localizing the valence orbitals
------------------------------------------------------------------------------
                           ORCA ORBITAL LOCALIZATION
------------------------------------------------------------------------------

Input orbitals are from                  ... propen_3_ol_skew_g_plus.proc0.gbw
Output orbitals are to                   ... propen_3_ol_skew_g_plus.proc0.loc
Max. number of iterations                ... 128
Localizations seeded randomly            ... off
Convergence tolerance                    ... 1.000e-06
Using relative localization threshhold   ... 1.000e-08
Treshold for strong local MOs            ... 9.500e-01
Treshold for bond MOs                    ... 8.500e-01
Operator                                 ... 0
Orbital range for localization           ... 4 to 15
Localization criterion                   ... FOSTER-BOYS (AUGMENTED HESSIAN)
Doing the dipole integrals     ... o.k.
Initial value of the localization sum :    78.789586
ITERATION   0 : L=  106.2957509349 DL=  2.75e+01 (AVERGE_DL)=    0.6455695784 
ITERATION   1 : L=  109.9305965752 DL=  3.63e+00 (AVERGE_DL)=    0.2346772652 
ITERATION   2 : L=  110.0878979406 DL=  1.57e-01 (AVERGE_DL)=    0.0488196069 
ITERATION   3 : L=  110.0879566127 DL=  5.87e-05 (AVERGE_DL)=    0.0009428530 
ITERATION   4 : L=  110.0879582564 DL=  1.64e-06 (AVERGE_DL)=    0.0001578105 
ITERATION   5 : L=  110.0879583746 DL=  1.18e-07 (AVERGE_DL)=    0.0000423160 
LOCALIZATION SUM CONVERGED

------------------------------------------------------
AUGMENTED HESSIAN OPTIMIZATION OF FOSTER-BOYS ORBITALS
------------------------------------------------------

Spin operator:           0
Orbital window:          4 to 15
Number of iterations:    128
Gradient tolerance:      1.000e-06
Number of pairs:         66
Davidson threshold:      2000
Diagonalization method:  LAPACK
Iter:    0   L: 110.0879583746   Grad. norm: 4.959696e-04
   *** Likely close to a maximum now. ***
       Augmented Hessian eigenvalues:  3.16e-08 -1.34e+00 -3.55e+00 -5.20e+00 ... 
Iter:    1   L: 110.0879583904   Grad. norm: 1.245103e-08
LOCALIZATION HAS CONVERGED.

Eigenvalues of the Hessian:
  0 -1.344e+00
  1 -3.548e+00
  2 -5.199e+00
  3 -5.550e+00
  4 -5.589e+00
  5 -7.548e+00
  6 -1.035e+01
  7 -1.797e+01
  8 -1.848e+01
  9 -1.914e+01
    ...


------------------------------------------------------------------------------- 
                    LOCALIZED MOLECULAR ORBITAL COMPOSITIONS                   
------------------------------------------------------------------------------- 

The Mulliken populations for each LMO on each atom are computed
The LMO`s will be ordered according to atom index and type
  (A) Strongly localized MO`s have populations of >=0.950 on one atom
  (B) Two center bond orbitals have populations of >=0.850 on two atoms
  (C) Other MO`s are considered to be `delocalized`

FOUND  -   2 strongly local MO`s
       -  10 two center bond MO`s
       -   0 significantly delocalized MO`s

Rather strongly localized orbitals:
MO   5:   3O  -   0.976580
MO   4:   3O  -   0.987442
Bond-like localized orbitals:
MO  15:   9H  -   0.389752  and   3O  -   0.618170
MO  14:   8H  -   0.479898  and   2C  -   0.547052
MO  13:   7H  -   0.491326  and   2C  -   0.551440
MO  12:   6H  -   0.429572  and   1C  -   0.586128
MO  11:   5H  -   0.445728  and   0C  -   0.576891
MO  10:   4H  -   0.440151  and   0C  -   0.587324
MO   9:   3O  -   0.662626  and   2C  -   0.347660
MO   8:   2C  -   0.479823  and   1C  -   0.566297
MO   7:   1C  -   0.496700  and   0C  -   0.513705
MO   6:   1C  -   0.505049  and   0C  -   0.510093
Localized MO's were stored in: propen_3_ol_skew_g_plus.proc0.loc

Localizing the core orbitals
------------------------------------------------------------------------------
                           ORCA ORBITAL LOCALIZATION
------------------------------------------------------------------------------

Input orbitals are from                  ... propen_3_ol_skew_g_plus.proc0.loc
Output orbitals are to                   ... propen_3_ol_skew_g_plus.proc0.loc
Max. number of iterations                ... 128
Localizations seeded randomly            ... off
Convergence tolerance                    ... 1.000e-06
Using relative localization threshhold   ... 1.000e-08
Treshold for strong local MOs            ... 9.500e-01
Treshold for bond MOs                    ... 8.500e-01
Operator                                 ... 0
Orbital range for localization           ... 0 to 3
Localization criterion                   ... FOSTER-BOYS (AUGMENTED HESSIAN)
Doing the dipole integrals     ... o.k.
Initial value of the localization sum :    27.489405
ITERATION   0 : L=   27.4894093162 DL=  4.18e-06 (AVERGE_DL)=    0.0008350091 
ITERATION   1 : L=   27.4894093162 DL=  0.00e+00 (AVERGE_DL)=    0.0000000000 
LOCALIZATION SUM CONVERGED

------------------------------------------------------
AUGMENTED HESSIAN OPTIMIZATION OF FOSTER-BOYS ORBITALS
------------------------------------------------------

Spin operator:           0
Orbital window:          0 to 3
Number of iterations:    128
Gradient tolerance:      1.000e-06
Number of pairs:         6
Davidson threshold:      2000
Diagonalization method:  LAPACK
Iter:    0   L: 27.4894093162   Grad. norm: 1.113767e-06
   *** Likely close to a maximum now. ***
       Augmented Hessian eigenvalues:  1.77e-14 -2.55e+01 -2.93e+01 -3.23e+01 ... 
Iter:    1   L: 27.4894093162   Grad. norm: 3.032629e-21
LOCALIZATION HAS CONVERGED.

Eigenvalues of the Hessian:
  0 -2.552e+01
  1 -2.930e+01
  2 -3.228e+01
  3 -8.490e+01
  4 -9.005e+01
  5 -1.771e+02


------------------------------------------------------------------------------- 
                    LOCALIZED MOLECULAR ORBITAL COMPOSITIONS                   
------------------------------------------------------------------------------- 

The Mulliken populations for each LMO on each atom are computed
The LMO`s will be ordered according to atom index and type
  (A) Strongly localized MO`s have populations of >=0.950 on one atom
  (B) Two center bond orbitals have populations of >=0.850 on two atoms
  (C) Other MO`s are considered to be `delocalized`

FOUND  -   4 strongly local MO`s
       -   0 two center bond MO`s
       -   0 significantly delocalized MO`s

Rather strongly localized orbitals:
MO   3:   3O  -   0.999775
MO   2:   2C  -   1.001026
MO   1:   1C  -   1.000863
MO   0:   0C  -   1.000639
Localized MO's were stored in: propen_3_ol_skew_g_plus.proc0.loc

Warning: internal orbitals are localized - no re-canonicalization of internal orbitals

--------------------------
CLOSED-SHELL FOCK OPERATOR
--------------------------

RI-JK section for the Fock operator:
  RHF full Fock operator         ... done
  RHF frozen core Fock operator  ... done
Time needed for Fock operator              ...            0.675 sec
Reference energy                           ...   -191.996591596

--------------
DLPNO SETTINGS (2015 fully linear scaling implementation)
--------------

TCutMKN:           1.000e-03
TCutPAO:           1.000e-03
TCutPNO:           1.000e-07
TCutPNOSingles:    3.000e-09
TCutEN:            9.700e-01
TCutPAOExt:        1.000e-01
TCutPairs:         1.000e-05
TCutPre:           1.000e-07
TCutOSV:           1.000e-06
TCutDOij:          1.000e-05
TCutDO:            5.000e-03
TCutC:             1.000e-04
TCutCPAO:          1.000e-03
TCutCMO:           1.000e-03
TScaleDOMP2PreScr: 2.000e+00
TScaleMKNMP2PreScr:1.000e+01
TScalePNOMP2PreScr:1.000e+00
PAO overlap thresh 1.000e-08
Using PNOs for Singles Fock computation
Use new domains
Use fully linear algorithm
TCutTNO:           1.000e-09
TCutMP2Pairs:      1.000e-06
TCutDOStrong:      2.000e-03
TCutMKNStrong:     1.000e-02
TCutMKNWeak:       1.000e-01
TCutDOWeak:        4.000e-03
NTCutTNO:          1

--------------------------
Calculating differential overlap integrals ... ok
--------------------------
ELECTRON PAIR PRESCREENING
--------------------------

Dipole-based pair screening          .... used

   TCutDOij = 1.000000e-05
   TCutPre  = 1.000000e-07
   .... Finished loop over pairs
Total time spent in the prescreening                  ...     0.000 sec
sum of pair energies estimated for screened out pairs ...       0.000000000000 Eh
Thresholds for map construction and integral transformation for crude MP2:
   TCutMKN                    ...     1.0e-02
   TCutDO                     ...     1.0e-02
   TCutPairs                  ...     1.0e-05
   TCutPNO_CrudeMP2           ...     1.0e-07
   TCutPNOSingles_CrudeMP2    ...     3.0e-09
--------------------------------
LOCAL RI TRANSFORMATION (IAVPAO)
--------------------------------

Orbital window:       4 to 15
Number of PAOs:     204
Basis functions:    204 (76 shells)
Aux. functions:     504 (152 shells)

Processing maps (0.0 sec)
Average map sizes:
   Aux shells -> MOs              12.0
   Aux shells -> PAOs            204.0
   MOs        -> AO shells        75.5
   PAOs       -> AO shells        76.0

Calculating integrals (0.3 sec, 9.419 MB)
Sorting integrals (0.0 sec, 9.413 MB)
Total time for the integral transformation: 0.4 sec
--------------------------------
INITIAL GUESS AND PNO GENERATION
--------------------------------

PNO truncation parameters                   .... 
    PAOOverlapThresh   =        1.000e-08

    TCutPairs          =        1.000e-05
    TCutPNO            =        1.000e-07
    TCutPNOSingles     =        3.000e-09
    TCutMP2Pairs       =        1.000e-06
    TCutMKN            =        1.000e-02
    TCutDO             =        1.000e-02

Pair selection                          .... not used
Type of local MP2 treatment                 .... semi-local MP2
Strategy for PNO selection                  .... occupation number selection
Pair density normalization                  .... MP2 norm
Spin component scaling                      .... not used

   .... Finished loop over pairs
Making pair pair interaction lists          ... done

                       ===========================
                         78 OF   78 PAIRS ARE KEPT CCSD PAIRS
                          0 OF   78 PAIRS ARE KEPT MP2 PAIRS FOR (T)
                          0 OF   78 PAIRS ARE SKIPPED
                       ===========================

Total time spent in the initial guess                 ...     0.292 sec
SL-MP2 correlation energy (all non-screened pairs)    ...      -0.717744879500 Eh

Initial PNO correlation energy                        ...      -0.717266001118 Eh
sum of pair energies prescreened and skipped MP2 pairs...       0.000000000000 Eh
sum of pair energies of crude MP2 skipped pairs only  ...       0.000000000000 Eh
sum of MP2 pair energies for pairs that were not kept ...       0.000000000000 Eh
sum of PNO error estimates for the kept pairs         ...      -0.000478878382 Eh
                                                          --------------------
sum of all corrections                                         -0.000478878382
Initial total correlation energy                               -0.717744879500
Thresholds for map construction and integral transformation for fine MP2 and CCSD(T) calculation:
   TCutMKN   ...     1.0e-03
   TCutDO    ...     5.0e-03
   TCutPairs ...     1.0e-05
   TCutCMO   ...     1.0e-03
   TCutCPAO  ...     1.0e-03

Thresholds for map construction and integral transformation for strong Triples:
   TCutMKN   ...     1.0e-02
   TCutDO    ...     1.0e-02
   TCutCMO   ...     1.0e-03
   TCutCPAO  ...     1.0e-03

Thresholds for map construction and integral transformation for weak Triples:
   TCutMKN   ...     1.0e-01
   TCutDO    ...     2.0e-02
   TCutCMO   ...     1.0e-03
   TCutCPAO  ...     1.0e-03

--------------------------------
LOCAL RI TRANSFORMATION (IAVPAO)
--------------------------------

Orbital window:       4 to 15
Number of PAOs:     204
Basis functions:    204 (76 shells)
Aux. functions:     504 (152 shells)

Processing maps (0.0 sec)
Average map sizes:
   Aux shells -> MOs              12.0
   Aux shells -> PAOs            204.0
   MOs        -> AO shells        75.5
   PAOs       -> AO shells        76.0

Calculating integrals (0.3 sec, 9.419 MB)
Sorting integrals (0.0 sec, 9.413 MB)
Total time for the integral transformation: 0.4 sec
--------------------------------
INITIAL GUESS AND PNO GENERATION
--------------------------------

PNO truncation parameters                   .... 
    ScaleTCutPNO       =        1.000e-02
    PAOOverlapThresh   =        1.000e-08

    TCutPairs          =        1.000e-05
    TCutPNO            =        1.000e-07
    TCutPNOSingles     =        3.000e-09
    TCutMP2Pairs       =        1.000e-06
    TCutMKN            =        1.000e-03
    TCutDO             =        5.000e-03

Pair selection                          .... not used
Type of local MP2 treatment                 .... full local PMP2
Strategy for PNO selection                  .... occupation number selection
Pair density normalization                  .... MP2 norm
Spin component scaling                      .... not used

PASS-1: Formation of initial guess LMP2 amplitudes
Initial amplitudes guess done. Entering LMP2 iteration loop:
   Max. no of iterations          ...  50
   Energy convergence tolerance   ...    1.0e-07
   Residual convergence tolerance ...    5.0e-07
   Fock matrix cutoff             ...    1.0e-05 Eh
   DIIS convergence acceleration parameters:
        Max # vectors in DIIS     ... 7
        Start iteration of DIIS   ... 0
        Levelshift                ... 2.000e-01
        Damping factor 1          ... 5.000e-01
        Damping factor 2          ... 1.000e+00
   L-MP2 PNO cut-off              ...   1.0e-09
   L-MP2 PNO cut-off (core)       ...   1.0e-11
                           *** Turning on DIIS ***
LMP2-Iter=   0:  ELMP2= -0.732369863832  DE=   1.5e-02 RMAX=   1.5e-02
LMP2-Iter=   1:  ELMP2= -0.740334960913  DE=   8.0e-03 RMAX=   6.5e-03
LMP2-Iter=   2:  ELMP2= -0.741799505600  DE=   1.5e-03 RMAX=   2.3e-03
LMP2-Iter=   3:  ELMP2= -0.741998204827  DE=   2.0e-04 RMAX=   7.6e-04
LMP2-Iter=   4:  ELMP2= -0.741999343759  DE=   1.1e-06 RMAX=   1.9e-04
LMP2-Iter=   5:  ELMP2= -0.741994587249  DE=   4.8e-06 RMAX=   3.4e-05
LMP2-Iter=   6:  ELMP2= -0.741994307349  DE=   2.8e-07 RMAX=   5.9e-06
LMP2-Iter=   7:  ELMP2= -0.741994309394  DE=   2.0e-09 RMAX=   9.0e-07
LMP2-Iter=   8:  ELMP2= -0.741994338257  DE=   2.9e-08 RMAX=   1.3e-07
LMP2-Iter=   9:  ELMP2= -0.741994340477  DE=   2.2e-09 RMAX=   2.2e-08 => CONVERGED
PASS-2: Formation of Pair natural orbitals
   .... Finished loop over pairs

 PNO Occupation Number Statistics: 
  | Av. % of trace(Dij) retained        ...  99.698528529212
  | sigma^2 in % of trace(Dij) retained ...   2.96e-01
  | Av. % of trace(Di) retained         ...  99.999786522230
  | sigma^2 in % of trace(Di) retained  ...   3.33e-09
 Distributions of % trace(Dij) recovered:
  |       >= 99.9  ...    35 ( 44.9 % of all pairs)
  |   [90.0, 99.0) ...     6 (  7.7 % of all pairs)
  |   [99.0, 99.9) ...    37 ( 47.4 % of all pairs)
 Distributions of % trace(Di) recovered :
  |       >= 99.9  ...    12 (100.0 % of all I-pairs )

Making pair pair interaction lists          ... done

                       ===========================
                         78 OF   78 PAIRS ARE KEPT
                       ===========================

Total time spent in the initial guess                 ...     2.794 sec
L-MP2 correlation energy (all non-screened pairs)     ...      -0.741994340477 Eh
L-MP2 PNO error correction                            ...      -0.000007057089 Eh
                                                          --------------------
Initial total L-MP2 energy (non-screened pairs)       ...      -0.742001397566 Eh

Initial PNO correlation energy                        ...      -0.741540350135 Eh
sum of pair energies estimated for screened out pairs ...       0.000000000000 Eh
sum of MP2 pair energies for pairs that were not kept ...       0.000000000000 Eh
sum of PNO error estimates for the kept pairs         ...      -0.000461047431 Eh
                                                          --------------------
sum of all corrections                                         -0.000461047431
Initial total correlation energy                               -0.742001397566
Thresholds for map construction and integral transformation for fine MP2 and CCSD(T) calculation:
   TCutMKN   ...     1.0e-03
   TCutDO    ...     5.0e-03
   TCutPairs ...     1.0e-05
   TCutCMO   ...     1.0e-03
   TCutCPAO  ...     1.0e-03

Time for aux screen maps:            0.001
Time for maps after fine MP2:            0.004
-----------------------------
LOCAL RI TRANSFORMATION (IJV)
-----------------------------

Orbital window:       4 to 15
Basis functions:    204 (76 shells)
Aux. functions:     504 (152 shells)

Processing maps (0.0 sec)
Average map sizes:
   Aux shells -> MOs(i)           12.0
   Aux shells -> MOs(j)           12.0
   MOs        -> AO shells        75.5

Calculating integrals (0.3 sec, 0.559 MB)
Sorting integrals (0.0 sec, 0.554 MB)
Total time for the integral transformation: 0.3 sec
--------------------------------
LOCAL RI TRANSFORMATION (VABPAO)
--------------------------------

Number of PAOs:     204
Basis functions:    204 (76 shells)
Aux. functions:     504 (152 shells)

Processing maps (0.0 sec)
Average map sizes:
   Aux shells -> PAOs            204.0
   PAOs       -> AO shells        76.0

Calculating integrals (0.6 sec, 302.593 MB)
Finished


-------------------------------------
Pair Pair Term precalculation with     
RI-(ij|mn) and (im|jn) transformation  
ON THE FLY                             
-------------------------------------

   IBatch   1 (of   1)              ... done (    8.885 sec)
Total EXT                           ...           8.885 sec

---------------------
RI-PNO TRANSFORMATION
---------------------

Total Number of PNOs                   ...  3725
Average number of PNOs per pair        ...    47
Maximal number of PNOs per pair        ...    76
   #pairs with  1 -  5 PNOs   :    0
   #pairs with  6 - 10 PNOs   :    2
   #pairs with 11 - 15 PNOs   :    2
   #pairs with 16 - 20 PNOs   :    0
   #pairs with 21 - 25 PNOs   :    3
   #pairs with 26 - 30 PNOs   :    7
   #pairs with 31 - 35 PNOs   :    4
   #pairs with 36 - 40 PNOs   :    3
   #pairs with 41 - 45 PNOs   :    5
   #pairs with 46 - 50 PNOs   :   14
   #pairs with 51 - 55 PNOs   :   13
   #pairs with 56 - 60 PNOs   :    6
   #pairs with 61 - 65 PNOs   :   13
   #pairs with 66 - 70 PNOs   :    4
   #pairs with 71 - 75 PNOs   :    1
   #pairs with 76 - 80 PNOs   :    1

Generation of (ij|ab)[P] integrals            ... on
Generation of (ia|bc)[P],(ja|bc)[P] integrals ... on
Storage of 3 and 4 external integrals         ... on
Generation of ALL (ka|bc)[P] integrals        ... on
Keep RI integrals in memory                   ... off

Ibatch:  1 (of  1)
Starting 2-4 index PNO integral generation ... done

Timings:
Total PNO integral transformation time     ...          5.352 sec
Size of the 3-external file                ...        85 MB
Size of the 4-external file                ...       626 MB
Size of the IKJL file                      ...         0 MB
Size of the all 3-external file            ...       510 MB
Size of the 1-external file                ...         1 MB

Making pair/pair overlap matrices          ... done (    0.273 sec)
Size of the pair overlap file              ... 84 MB
Redoing the guess amplitudes               ... done (    0.002 sec)

-------------------------
FINAL STARTUP INFORMATION
-------------------------

E(0)                                       ...   -191.996591596
E(L-MP2)                                   ...     -0.742001398
E(L-MP2) including corrections             ...     -0.742001398
Initial E(tot)                             ...   -192.738592993
<T|T>                                      ...      0.196872809
Number of pairs included                   ... 78
Total number of pairs                      ... 78

------------------------------------------------
                  RHF COUPLED CLUSTER ITERATIONS
------------------------------------------------

Number of PNO amplitudes to be optimized   ...       196499
Number of non-PNO amplitudes               ...      2756832
Untruncated number of regular amplitudes   ...      2756832

Iter       E(tot)           E(Corr)          Delta-E          Residual     Time
  0   -192.714272701     -0.717220058      0.024781339      0.017093191    6.05
                           *** Turning on DIIS ***
  1   -192.744699547     -0.747646904     -0.030426846      0.011705420   16.88
  2   -192.764456249     -0.767403606     -0.019756702      0.006944968    6.11
  3   -192.768869972     -0.771817329     -0.004413723      0.003782123    6.05
  4   -192.770181403     -0.773128760     -0.001311431      0.002006447    6.09
  5   -192.770573815     -0.773521172     -0.000392412      0.000824893    6.05
  6   -192.770689892     -0.773637249     -0.000116077      0.000236758    6.13
  7   -192.770703791     -0.773651148     -0.000013899      0.000051881    6.29
  8   -192.770703753     -0.773651110      0.000000038      0.000010195    6.23
  9   -192.770702808     -0.773650165      0.000000945      0.000005540    6.18
               --- The Coupled-Cluster iterations have converged ---

----------------------
COUPLED CLUSTER ENERGY
----------------------

E(0)                                       ...   -191.996591596
E(CORR)(strong-pairs)                      ...     -0.773650165
E(CORR)(weak-pairs)                        ...     -0.000461047
E(CORR)(corrected)                         ...     -0.774111212
E(TOT)                                     ...   -192.770702808
Singles Norm <S|S>**1/2                    ...      0.049768005  
T1 diagnostic                              ...      0.010158851  

------------------
LARGEST AMPLITUDES
------------------
   6-> 16   6-> 16       0.061549
   7-> 16   7-> 16       0.060695
   7-> 16   6-> 16       0.054653
  13-> 22  13-> 22       0.034849
  11-> 23  11-> 23       0.034019
  15-> 16  15-> 16       0.029162
  13-> 16  13-> 16       0.028251
  14-> 16  14-> 16       0.027034
  14-> 23  14-> 23       0.026958
   9-> 16   9-> 16       0.026869
  13-> 22  13-> 16       0.025643
  13-> 16  13-> 22       0.025643
  11-> 17  11-> 17       0.025414
  10-> 23  10-> 23       0.025349
  11-> 17  11-> 23       0.025138
  11-> 23  11-> 17       0.025138


-------------------------------------------
DLPNO BASED TRIPLES CORRECTION
-------------------------------------------

Singles multiplier          ...  1.000000
TCutTNO                     ... 1.000e-09
TCutMP2Pairs                ... 1.000e-06
TCutDOStrong                ... 1.000e-02
TCutMKNStrong               ... 1.000e-02
TCutDOWeak                  ... 2.000e-02
TCutMKNWeak                 ... 1.000e-01

Fragment selection                          .... not used
Number of Triples that are to be computed   ...       352

 . . . . . . . . .
10% done  
20% done  
30% done  
40% done  
50% done  
60% done  
70% done  
80% done  
90% done               (     20.292 sec)
Triples timings:
Total time for T0               ...    21.168 sec
Total time for Iterative (T)    ...     0.000 sec
Total time of overall (T)       ...    21.168 sec

Triples List generation         ...     0.000 sec
TNO generation                  ...     0.873 sec
Pair density generation         ...     0.002 sec
Look up tables                  ...     0.000 sec
Generating 3-index integrals    ...     9.439 sec
  Make 4-ind.int. from 3-ind.int...     4.206 sec
  Projecting amplitudes (D + S) ...     0.892 sec
  Downprojecting integrals      ...     0.001 sec
  Energy contr. (sum over a,b,c)...     1.533 sec
Fitting ET(->0)                 ...     0.000 sec

Everything after 3-index        ...    10.853 sec

Timing details:
 TNO integrals                  ...    13.107 sec
   Reading 3-index integrals    ...     0.052 sec
   Sorting integrals            ...     2.414 sec
       Sorting integrals 1      ...     0.000 sec
       Sorting integrals 2      ...     0.548 sec
       Sorting integrals 3      ...     0.107 sec
       Sorting integrals 4      ...     0.003 sec
       Sorting integrals 5      ...     0.017 sec
       Sorting integrals 6      ...     1.739 sec
   Calculating local VM**-1/2   ...     0.067 sec
   Orthogonal. integrals        ...     0.146 sec
   Multipl. 3-index integrals   ...    10.428 sec
   All concerning IRIab (w/TNO) ...     2.142 sec

 Calculate W0/W1                ...     4.217 sec
 W 3-ext contribution           ...     2.435 sec
 W 3-int contribution           ...     0.507 sec
 Sorting W                      ...     1.212 sec

 V exchange contribution        ...     0.524 sec

 Timings for Triples without generation
     of 3-index integrals       ...    10.853 sec
       0 weak pairs             ...    10.853 sec
       1 weak pair              ...     0.000 sec
       2 weak pairs             ...     0.000 sec
       3 weak pairs             ...     0.000 sec
  Extra time for extrapolation  ...     0.000 sec

Number of Triples   (0, 1, 2, 3 weak pairs; overall):    352       0       0       0  (   352)
Number of Atoms     (0, 1, 2, 3 weak pairs; overall):    9.9     0.0     0.0     0.0  (    10)
Number of PAOs      (0, 1, 2, 3 weak pairs; overall):  202.5     0.0     0.0     0.0  (   204)
Number of AuxFcns   (0, 1, 2, 3 weak pairs; overall):  336.3     0.0     0.0     0.0  (   504)
Number of TNOs      (0, 1, 2, 3 weak pairs         ):  100.9     0.0     0.0     0.0
Aver. Number of NTNO, Atoms, PAOs, AuxFcns / Triples:    352   100.9     9.9   202.5   336.3

Triples Correction (T)                     ...     -0.030323467
Final correlation energy                   ...     -0.804434679
E(CCSD)                                    ...   -192.770702808
E(CCSD(T))                                 ...   -192.801026275


Maximum memory used throughout the entire calculation: 2023.3 MB


------------------------------------------------------------------------------- 
                                     TIMINGS                                   
------------------------------------------------------------------------------- 


Total execution time                   ...      114.644 sec

Localization of occupied MO's          ...        0.427 sec (  0.4%)
Fock Matrix Formation                  ...        0.675 sec (  0.6%)
Global overlap, Fock, MKN matrices     ...        0.169 sec (  0.1%)
Differential overlap integrals         ...        0.045 sec (  0.0%)
Organizing maps                        ...        0.012 sec (  0.0%)
RI 3-index integral generations        ...        1.595 sec (  1.4%)
RI-PNO integral transformation         ...       14.811 sec ( 12.9%)
Initial Guess                          ...        3.111 sec (  2.7%)
DIIS Solver                            ...        0.669 sec (  0.6%)
State Vector Update                    ...        0.014 sec (  0.0%)
Sigma-vector construction              ...       71.932 sec ( 62.7%)
  <D|H|D>(0-ext)                       ...        0.561 sec (  0.8% of sigma)
  <D|H|D>(2-ext Fock)                  ...        0.007 sec (  0.0% of sigma)
  <D|H|D>(2-ext)                       ...        2.013 sec (  2.8% of sigma)
  <D|H|D>(4-ext)                       ...        9.095 sec ( 12.6% of sigma)
  <D|H|D>(4-ext-corr)                  ...       43.370 sec ( 60.3% of sigma)
  CCSD doubles correction              ...        0.051 sec (  0.1% of sigma)
  <S|H|S>                              ...        0.132 sec (  0.2% of sigma)
  <S|H|D>(1-ext)                       ...        0.091 sec (  0.1% of sigma)
  <D|H|S>(1-ext)                       ...        0.003 sec (  0.0% of sigma)
  <S|H|D>(3-ext)                       ...        0.252 sec (  0.4% of sigma)
  Fock-dressing                        ...       14.709 sec ( 20.4% of sigma)
  Singles amplitudes                   ...        0.115 sec (  0.2% of sigma)
  (ik|jl)-dressing                     ...        0.414 sec (  0.6% of sigma)
  (ij|ab),(ia|jb)-dressing             ...        0.917 sec (  1.3% of sigma)
  Pair energies                        ...        0.004 sec (  0.0% of sigma)
Total Time for computing (T)           ...       21.184 sec ( 18.5% of ALL)


-------------------------   --------------------
FINAL SINGLE POINT ENERGY      -192.801026274695
-------------------------   --------------------


                            ***************************************
                            *     ORCA property calculations      *
                            ***************************************

                                    ---------------------
                                    Active property flags
                                    ---------------------
   (+) Dipole Moment


------------------------------------------------------------------------------
                       ORCA ELECTRIC PROPERTIES CALCULATION
------------------------------------------------------------------------------

Dipole Moment Calculation                       ... on
Quadrupole Moment Calculation                   ... off
Polarizability Calculation                      ... off
GBWName                                         ... propen_3_ol_skew_g_plus.gbw
Electron density file                           ... propen_3_ol_skew_g_plus.scfp.tmp
The origin for moment calculation is the CENTER OF MASS  = ( 0.076145, -0.024137  0.008853)

-------------
DIPOLE MOMENT
-------------
                                X             Y             Z
Electronic contribution:      1.84492      -0.68655       0.00353
Nuclear contribution   :     -2.43661       0.77237      -0.28325
                        -----------------------------------------
Total Dipole Moment    :     -0.59169       0.08583      -0.27972
                        -----------------------------------------
Magnitude (a.u.)       :      0.66008
Magnitude (Debye)      :      1.67779



--------------------
Rotational spectrum 
--------------------
 
Rotational constants in cm-1:     0.857386     0.142719     0.139531 
Rotational constants in MHz : 25703.796911  4278.616173  4183.032378 

 Dipole components along the rotational axes: 
x,y,z [a.u.] :    -0.589974     0.011540     0.295807 
x,y,z [Debye]:    -1.499595     0.029333     0.751881 

 

Timings for individual modules:

Sum of individual times         ...      119.103 sec (=   1.985 min)
GTO integral calculation        ...        0.397 sec (=   0.007 min)   0.3 %
SCF iterations                  ...        3.875 sec (=   0.065 min)   3.3 %
MDCI module                     ...      114.830 sec (=   1.914 min)  96.4 %
                             ****ORCA TERMINATED NORMALLY****
TOTAL RUN TIME: 0 days 0 hours 1 minutes 59 seconds 375 msec
propen_3_ol_skew_g_plus.gbw -> /home1/pantazis/klk/xyz_1/Oxygen_compounds/propen_3_ol_skew_g_plus.gbw
propen_3_ol_skew_g_plus.job -> /home1/pantazis/klk/xyz_1/Oxygen_compounds/propen_3_ol_skew_g_plus.job
propen_3_ol_skew_g_plus.loc -> /home1/pantazis/klk/xyz_1/Oxygen_compounds/propen_3_ol_skew_g_plus.loc
propen_3_ol_skew_g_plus.nodes -> /home1/pantazis/klk/xyz_1/Oxygen_compounds/propen_3_ol_skew_g_plus.nodes
propen_3_ol_skew_g_plus.prop -> /home1/pantazis/klk/xyz_1/Oxygen_compounds/propen_3_ol_skew_g_plus.prop
propen_3_ol_skew_g_plus_property.txt -> /home1/pantazis/klk/xyz_1/Oxygen_compounds/propen_3_ol_skew_g_plus_property.txt
propen_3_ol_skew_g_plus.xyz -> /home1/pantazis/klk/xyz_1/Oxygen_compounds/propen_3_ol_skew_g_plus.xyz
cp: cannot stat propen_3_ol_skew_g_plus.asa.inp: No such file or directory
