! Job execution by suborca V 6.07 on ZEUS !
Job started from zeus1, running /scratch/pantazis/propene_H_H_ecl__fKLS4I/orca/orca copied from /opt/orca on zeussn126 in /scratch/pantazis/propene_H_H_ecl__fKLS4I
Job execution start: Fri Jun 28 02:28:56 CEST 2019
Shared library path: /scratch/pantazis/propene_H_H_ecl__fKLS4I/orca:/opt/openmpi_1.10.2/lib:/opt/intel/mkl/lib/intel64:/opt/intel/lib/intel64:
PBS Job ID is: 158338.icqc
izeussn126
izeussn126
izeussn126
izeussn126
izeussn126
izeussn126
izeussn126
izeussn126

                                 *****************
                                 * O   R   C   A *
                                 *****************

           --- An Ab Initio, DFT and Semiempirical electronic structure package ---

                  #######################################################
                  #                        -***-                        #
                  #          Department of theory and spectroscopy      #
                  #               Directorship: Frank Neese             #
                  #        Max Planck Institute fuer Kohlenforschung    #
                  #                Kaiser Wilhelm Platz 1               #
                  #                 D-45470 Muelheim/Ruhr               #
                  #                      Germany                        #
                  #                                                     #
                  #                  All rights reserved                #
                  #                        -***-                        #
                  #######################################################


                         Program Version 4.1.x  -  STABLE  -
                                (SVN: $Rev: 14094$)
                ($Date: 2019-06-14 15:01:15 +0200 (Fri, 14 Jun 2019) $)

                         (BUILD: $Sun Jun 23 06:18:31 CEST 2019$)


 With contributions from (in alphabetic order):
   Daniel Aravena         : Magnetic Properties
   Michael Atanasov       : Ab Initio Ligand Field Theory
   Alexander A. Auer      : GIAO ZORA
   Ute Becker             : Parallelization
   Giovanni Bistoni       : ED, Open-shell LED
   Martin Brehm           : Molecular dynamics
   Dmytro Bykov           : SCF Hessian
   Vijay G. Chilkuri      : MRCI spin determinant printing
   Dipayan Datta          : RHF DLPNO-CCSD density
   Achintya Kumar Dutta   : EOM-CC, STEOM-CC
   Dmitry Ganyushin       : Spin-Orbit,Spin-Spin,Magnetic field MRCI
   Miquel Garcia          : C-PCM Hessian
   Yang Guo               : DLPNO-NEVPT2, CIM, IAO-localization
   Andreas Hansen         : Spin unrestricted coupled pair/coupled cluster methods
   Benjamin Helmich-Paris : CASSCF linear response (MC-RPA)
   Lee Huntington         : MR-EOM, pCC
   Robert Izsak           : Overlap fitted RIJCOSX, COSX-SCS-MP3, EOM
   Christian Kollmar      : KDIIS, OOCD, Brueckner-CCSD(T), CCSD density
   Simone Kossmann        : Meta GGA functionals, TD-DFT gradient, OOMP2, MP2 Hessian
   Martin Krupicka        : AUTO-CI
   Lucas Lang             : DCDCAS
   Dagmar Lenk            : GEPOL surface, SMD
   Dimitrios Liakos       : Extrapolation schemes; parallel MDCI
   Dimitrios Manganas     : ROCIS; embedding schemes
   Dimitrios Pantazis     : SARC Basis sets
   Taras Petrenko         : DFT Hessian,TD-DFT gradient, ASA, ECA, R-Raman, ABS, FL, XAS/XES, NRVS
   Peter Pinski           : DLPNO-MP2, DLPNO-MP2 Gradient
   Christoph Reimann      : Effective Core Potentials
   Marius Retegan         : Local ZFS, SOC
   Christoph Riplinger    : Optimizer, TS searches, QM/MM, DLPNO-CCSD(T), (RO)-DLPNO pert. Triples
   Tobias Risthaus        : Range-separated hybrids, TD-DFT gradient, RPA, STAB
   Michael Roemelt        : Restricted open shell CIS
   Masaaki Saitow         : Open-shell DLPNO
   Barbara Sandhoefer     : DKH picture change effects
   Avijit Sen             : IP-ROCIS
   Kantharuban Sivalingam : CASSCF convergence, NEVPT2, FIC-MRCI
   Bernardo de Souza      : ESD, SOC TD-DFT
   Georgi Stoychev        : AutoAux, RI-MP2 NMR
   Willem Van den Heuvel  : Paramagnetic NMR
   Boris Wezisla          : Elementary symmetry handling
   Frank Wennmohs         : Technical directorship


 We gratefully acknowledge several colleagues who have allowed us to
 interface, adapt or use parts of their codes:
   Stefan Grimme, W. Hujo, H. Kruse,             : VdW corrections, initial TS optimization,
                  C. Bannwarth                     DFT functionals, gCP, sTDA/sTD-DF
   Ed Valeev                                     : LibInt (2-el integral package), F12 methods
   Garnet Chan, S. Sharma, J. Yang, R. Olivares  : DMRG
   Ulf Ekstrom                                   : XCFun DFT Library
   Mihaly Kallay                                 : mrcc  (arbitrary order and MRCC methods)
   Andreas Klamt, Michael Diedenhofen            : otool_cosmo (COSMO solvation model)
   Jiri Pittner, Ondrej Demel                    : Mk-CCSD
   Frank Weinhold                                : gennbo (NPA and NBO analysis)
   Christopher J. Cramer and Donald G. Truhlar   : smd solvation model
   Lars Goerigk                                  : TD-DFT with DH, B97 family of functionals
   V. Asgeirsson, H. Jonsson                     : NEB implementation
   FAccTs GmbH                                   : IRC, NEB, NEB-TS, Multilevel


 Your calculation uses the libint2 library for the computation of 2-el integrals
 For citations please refer to: http://libint.valeyev.net

 This ORCA versions uses:
   CBLAS   interface :  Fast vector & matrix operations
   LAPACKE interface :  Fast linear algebra routines
   SCALAPACK package :  Parallel linear algebra routines




***************************************
The coordinates will be read from file: propene_H_H_ecl.xyz
***************************************


----- Orbital basis set information -----
Your calculation utilizes the basis: cc-pVTZ 
       H, B-Ne : Obtained from the ccRepo (grant-hill.group.shef.ac.uk/ccrepo) Feb. 2017
                 T. H. Dunning, Jr., J. Chem. Phys. 90, 1007 (1989)
            He : Obtained from the ccRepo (grant-hill.group.shef.ac.uk/ccrepo) Feb. 2017
                 D. E. Woon, T. H. Dunning, Jr., J. Chem. Phys. 100, 2975 (1994)
  Li-Be, Na-Mg : Obtained from the ccRepo (grant-hill.group.shef.ac.uk/ccrepo) Feb. 2017
                 B. P. Prascher, D. E. Woon, K. A. Peterson, T. H. Dunning, Jr., A. K. Wilson, Theor. Chem. Acc. 128, 69 (2011)
         Al-Ar : Obtained from the ccRepo (grant-hill.group.shef.ac.uk/ccrepo) Feb. 2017
                 D. E. Woon, T. H. Dunning, Jr., J. Chem. Phys. 98, 1358 (1993)
            Ca : Obtained from the Peterson Research Group Website (tyr0.chem.wsu.edu/~kipeters) Feb. 2017
                 J. Koput, K. A. Peterson, J. Phys. Chem. 106, 9595 (2002)
         Sc-Zn : Obtained from the ccRepo (grant-hill.group.shef.ac.uk/ccrepo) Feb. 2017
                 N. B. Balabanov, K. A. Peterson, J. Chem. Phys. 123, 064107 (2005)
                 N. B. Balabanov, K. A. Peterson, J. Chem. Phys. 125, 074110 (2006)
         Ga-Kr : Obtained from the ccRepo (grant-hill.group.shef.ac.uk/ccrepo) Feb. 2017
                 A. K. Wilson, D. E. Woon, K. A. Peterson, T. H. Dunning, Jr., J. Chem. Phys. 110, 7667 (1999)
             Y : Obtained from the ccRepo (grant-hill.group.shef.ac.uk/ccrepo) Feb. 2017
                 K. A. Peterson, D. Figgen, M. Dolg, H. Stoll, J. Chem. Phys. 126, 124101 (2007)
        Ag, Au : Obtained from the Peterson Research Group Website (tyr0.chem.wsu.edu/~kipeters) Feb. 2017
                 K. A. Peterson, C. Puzzarini, Theor. Chem. Acc. 114, 283 (2005)

----- AuxC basis set information -----
Your calculation utilizes the auxiliary basis: cc-pVTZ/C 
  Obtained from the EMSL Basis Set Exchange (bse.pnl.gov) Feb. 2017
  H-He, B-F, Al-Ar, Ga-Kr : F. Weigend, A. Kohn, C. Hattig, J. Chem. Phys. 116, 3175 (2002)
             Li-Be, Na-Mg : C. Haettig, Phys. Chem. Chem. Phys. 7, 59 (2005)
                       Ne : C. Haettig, Phys. Chem. Chem. Phys. 7, 59 (2005)
                            F. Weigend, A. Kohn, C. Hattig, J. Chem. Phys. 116, 3175 (2002)
                    Sc-Zn : J. G. Hill, J. A. Platts, J. Chem. Phys. 128, 044104 (2008)

----- AuxJK basis set information -----
Your calculation utilizes the auxiliary basis: cc-pVTZ/JK 
  H, B-F, Al-Cl, Ga-Br : Obtained from the TURBOMOLE 7.0 basis set library

================================================================================
                                        WARNINGS
                       Please study these warnings very carefully!
================================================================================


WARNING: MDCI localization with Augmented Hessian Foster-Boys
  ===> : Switching off randomization!

WARNING: Post HF methods need fully converged wavefunctions
  ===> : Setting SCFConvForced true
         You can overwrite this default with %scf ConvForced false 


INFO   : the flag for use of LIBINT has been found!

================================================================================
                                       INPUT FILE
================================================================================
NAME = propene_H_H_ecl.inp
|  1> ! RHF DLPNO-CCSD(T) cc-pVTZ RIJK cc-pVTZ/JK cc-pVTZ/C
|  2> ! KDIIS SOSCF TightSCF TightPNO
|  3> 
|  4> %pal nprocs 8 end
|  5> 
|  6> %maxcore 8000
|  7> 
|  8> %scf maxiter 300
|  9>      shift shift 0.2 erroff 0.1 end
| 10> end
| 11> 
| 12> * xyzfile 0 1 propene_H_H_ecl.xyz 
| 13> 
| 14> 
| 15>                          ****END OF INPUT****
================================================================================

                       ****************************
                       * Single Point Calculation *
                       ****************************

---------------------------------
CARTESIAN COORDINATES (ANGSTROEM)
---------------------------------
  C      1.227650   -0.164910    0.000000
  C     -0.133160    0.476660    0.000000
  C     -1.271320   -0.231170    0.000000
  H      1.358650   -0.800860   -0.905020
  H      2.033940    0.603910   -0.000010
  H      1.358630   -0.800850    0.905040
  H     -0.182190    1.579490   -0.000010
  H     -2.254230    0.267620    0.000000
  H     -1.253820   -1.332750   -0.000020

----------------------------
CARTESIAN COORDINATES (A.U.)
----------------------------
  NO LB      ZA    FRAG     MASS         X           Y           Z
   0 C     6.0000    0    12.011    2.319922   -0.311635    0.000000
   1 C     6.0000    0    12.011   -0.251636    0.900757    0.000000
   2 C     6.0000    0    12.011   -2.402447   -0.436848    0.000000
   3 H     1.0000    0     1.008    2.567476   -1.513406   -1.710240
   4 H     1.0000    0     1.008    3.843590    1.141225   -0.000019
   5 H     1.0000    0     1.008    2.567439   -1.513387    1.710278
   6 H     1.0000    0     1.008   -0.344289    2.984804   -0.000019
   7 H     1.0000    0     1.008   -4.259877    0.505729    0.000000
   8 H     1.0000    0     1.008   -2.369376   -2.518533   -0.000038

--------------------------------
INTERNAL COORDINATES (ANGSTROEM)
--------------------------------
 C      0   0   0     0.000000000000     0.00000000     0.00000000
 C      1   0   0     1.504465327284     0.00000000     0.00000000
 C      2   1   0     1.340310223232   122.88012890     0.00000000
 H      1   2   3     1.113846759164   110.47863610    60.14988722
 H      1   2   3     1.114086063372   111.12065240   179.99944868
 H      1   2   3     1.113854948187   110.47725131   299.84954159
 H      2   1   3     1.103919358423   117.78768868   180.00058668
 H      3   2   1     1.102226624701   121.21613162   180.00000000
 H      3   2   1     1.101718996296   120.96764204     0.00000000

---------------------------
INTERNAL COORDINATES (A.U.)
---------------------------
 C      0   0   0     0.000000000000     0.00000000     0.00000000
 C      1   0   0     2.843027446547     0.00000000     0.00000000
 C      2   1   0     2.532819256403   122.88012890     0.00000000
 H      1   2   3     2.104865329976   110.47863610    60.14988722
 H      1   2   3     2.105317549392   111.12065240   179.99944868
 H      1   2   3     2.104880804986   110.47725131   299.84954159
 H      2   1   3     2.086105261353   117.78768868   180.00058668
 H      3   2   1     2.082906458201   121.21613162   180.00000000
 H      3   2   1     2.081947179539   120.96764204     0.00000000

---------------------
BASIS SET INFORMATION
---------------------
There are 2 groups of distinct atoms

 Group   1 Type C   : 18s5p2d1f contracted to 4s3p2d1f pattern {8811/311/11/1}
 Group   2 Type H   : 5s2p1d contracted to 3s2p1d pattern {311/11/1}

Atom   0C    basis set group =>   1
Atom   1C    basis set group =>   1
Atom   2C    basis set group =>   1
Atom   3H    basis set group =>   2
Atom   4H    basis set group =>   2
Atom   5H    basis set group =>   2
Atom   6H    basis set group =>   2
Atom   7H    basis set group =>   2
Atom   8H    basis set group =>   2
-------------------------------
AUXILIARY BASIS SET INFORMATION
-------------------------------
There are 2 groups of distinct atoms

 Group   1 Type C   : 8s6p5d3f1g contracted to 8s6p5d3f1g pattern {11111111/111111/11111/111/1}
 Group   2 Type H   : 4s3p2d1f contracted to 4s3p2d1f pattern {1111/111/11/1}

Atom   0C    basis set group =>   1
Atom   1C    basis set group =>   1
Atom   2C    basis set group =>   1
Atom   3H    basis set group =>   2
Atom   4H    basis set group =>   2
Atom   5H    basis set group =>   2
Atom   6H    basis set group =>   2
Atom   7H    basis set group =>   2
Atom   8H    basis set group =>   2
-------------------------------
AUXILIARY BASIS SET INFORMATION
-------------------------------
There are 2 groups of distinct atoms

 Group   1 Type C   : 10s7p5d2f1g contracted to 10s7p5d2f1g pattern {1111111111/1111111/11111/11/1}
 Group   2 Type H   : 4s3p2d1f contracted to 4s3p2d1f pattern {1111/111/11/1}

Atom   0C    basis set group =>   1
Atom   1C    basis set group =>   1
Atom   2C    basis set group =>   1
Atom   3H    basis set group =>   2
Atom   4H    basis set group =>   2
Atom   5H    basis set group =>   2
Atom   6H    basis set group =>   2
Atom   7H    basis set group =>   2
Atom   8H    basis set group =>   2


           ************************************************************
           *        Program running with 8 parallel MPI-processes     *
           *              working on a common directory               *
           ************************************************************
------------------------------------------------------------------------------
                           ORCA GTO INTEGRAL CALCULATION
                           -- RI-GTO INTEGRALS CHOSEN --
------------------------------------------------------------------------------

                         BASIS SET STATISTICS AND STARTUP INFO

Gaussian basis set:
 # of primitive gaussian shells          ...  126
 # of primitive gaussian functions       ...  246
 # of contracted shells                  ...   66
 # of contracted basis functions         ...  174
 Highest angular momentum                ...    3
 Maximum contraction depth               ...    8
Auxiliary gaussian basis set:
 # of primitive gaussian shells          ...  135
 # of primitive gaussian functions       ...  417
 # of contracted shells                  ...  135
 # of contracted aux-basis functions     ...  417
 Highest angular momentum                ...    4
 Maximum contraction depth               ...    1
Ratio of auxiliary to basis functions    ...  2.40
Integral package used                  ... LIBINT
 One Electron integrals                  ... done
 Ordering auxiliary basis shells         ... done
 Integral threshhold             Thresh  ...  2.500e-11
 Primitive cut-off               TCut    ...  2.500e-12
 Pre-screening matrix                    ... done
 Shell pair data                         ... 
 Ordering of the shell pairs             ... done (   0.000 sec) 2190 of 2211 pairs
 Determination of significant pairs      ... done (   0.000 sec)
 Creation of shell pair data             ... done (   0.000 sec)
 Storage of shell pair data              ... done (   0.001 sec)
 Shell pair data done in (   0.002 sec)
 Computing two index integrals           ... done
 Cholesky decomposition of the V-matrix  ... done


Timings:
 Total evaluation time                   ...   0.255 sec (  0.004 min)
 One electron matrix time                ...   0.020 sec (  0.000 min) =  7.7%
 Schwartz matrix evaluation time         ...   0.153 sec (  0.003 min) = 59.9%
 Two index repulsion integral time       ...   0.033 sec (  0.001 min) = 12.9%
 Cholesky decomposition of V             ...   0.022 sec (  0.000 min) =  8.6%
 Three index repulsion integral time     ...   0.000 sec (  0.000 min) =  0.0%



           ************************************************************
           *        Program running with 8 parallel MPI-processes     *
           *              working on a common directory               *
           ************************************************************
-------------------------------------------------------------------------------
                                 ORCA SCF
-------------------------------------------------------------------------------

------------
SCF SETTINGS
------------
Hamiltonian:
 Ab initio Hamiltonian  Method          .... Hartree-Fock(GTOs)
 RI-approximation to the Coulomb term is turned on
   Number of auxiliary basis functions  .... 417
   RI-JK (J+K treated both via RI)      .... on


General Settings:
 Integral files         IntName         .... propene_H_H_ecl
 Hartree-Fock type      HFTyp           .... RHF
 Total Charge           Charge          ....    0
 Multiplicity           Mult            ....    1
 Number of Electrons    NEL             ....   24
 Basis Dimension        Dim             ....  174
 Nuclear Repulsion      ENuc            ....     70.2468191689 Eh

Convergence Acceleration:
 DIIS                   CNVDIIS         .... off
 Newton-Raphson         CNVNR           .... off
 SOSCF                  CNVSOSCF        .... on
   Start iteration      SOSCFMaxIt      ....   150
   Startup grad/error   SOSCFStart      ....  0.003300
 Level Shifting         CNVShift        .... on
   Level shift para.    LevelShift      ....    0.2000
   Turn off err/grad.   ShiftErr        ....    0.1000
 Zerner damping         CNVZerner       .... off
 Static damping         CNVDamp         .... off
 Fernandez-Rico         CNVRico         .... off

SCF Procedure:
 Maximum # iterations   MaxIter         ....   300
 SCF integral mode      SCFMode         .... Direct
   Integral package                     .... LIBINT
 Reset frequency        DirectResetFreq ....    20
 Integral Threshold     Thresh          ....  2.500e-11 Eh
 Primitive CutOff       TCut            ....  2.500e-12 Eh

Convergence Tolerance:
 Convergence Check Mode ConvCheckMode   .... Total+1el-Energy
 Convergence forced     ConvForced      .... 1
 Energy Change          TolE            ....  1.000e-08 Eh
 1-El. energy change                    ....  1.000e-05 Eh
 Orbital Gradient       TolG            ....  1.000e-05
 Orbital Rotation angle TolX            ....  1.000e-05


Diagonalization of the overlap matrix:
Smallest eigenvalue                        ... 5.668e-04
Time for diagonalization                   ...    0.008 sec
Threshold for overlap eigenvalues          ... 1.000e-08
Number of eigenvalues below threshold      ... 0
Time for construction of square roots      ...    0.006 sec
Total time needed                          ...    0.014 sec

-------------------
DFT GRID GENERATION
-------------------

General Integration Accuracy     IntAcc      ...  4.340
Radial Grid Type                 RadialGrid  ... Gauss-Chebyshev
Angular Grid (max. acc.)         AngularGrid ... Lebedev-110
Angular grid pruning method      GridPruning ... 3 (G Style)
Weight generation scheme         WeightScheme... Becke
Basis function cutoff            BFCut       ...    1.0000e-11
Integration weight cutoff        WCut        ...    1.0000e-14
Grids for H and He will be reduced by one unit

# of grid points (after initial pruning)     ...   9732 (   0.0 sec)
# of grid points (after weights+screening)   ...   9289 (   0.0 sec)
nearest neighbour list constructed           ...    0.0 sec
Grid point re-assignment to atoms done       ...    0.0 sec
Grid point division into batches done        ...    0.0 sec
Reduced shell lists constructed in    0.0 sec

Total number of grid points                  ...     9289
Total number of batches                      ...      150
Average number of points per batch           ...       61
Average number of grid points per atom       ...     1032
Average number of shells per batch           ...    60.90 (92.27%)
Average number of basis functions per batch  ...   160.60 (92.30%)
Average number of large shells per batch     ...    54.95 (90.23%)
Average number of large basis fcns per batch ...   143.65 (89.45%)
Average number of aux-shells per batch       ...    60.90 (45.11%)
Average number of aux functions per batch    ...   160.60 (38.51%)
Maximum spatial batch extension              ...   2.32,  2.55,  3.14 au
Average spatial batch extension              ...   0.22,  0.19,  0.23 au

Time for grid setup =    0.045 sec

------------------------------
INITIAL GUESS: MODEL POTENTIAL
------------------------------
Loading Hartree-Fock densities                     ... done
Calculating cut-offs                               ... done
Setting up the integral package                    ... done
Initializing the effective Hamiltonian             ... done
Starting the Coulomb interaction                   ... done (   0.0 sec)
Reading the grid                                   ... done
Mapping shells                                     ... done
Starting the XC term evaluation                    ... done (   0.0 sec)
Transforming the Hamiltonian                       ... done (   0.0 sec)
Diagonalizing the Hamiltonian                      ... done (   0.0 sec)
Back transforming the eigenvectors                 ... done (   0.0 sec)
Now organizing SCF variables                       ... done
                      ------------------
                      INITIAL GUESS DONE (   0.2 sec)
                      ------------------
--------------
SCF ITERATIONS
--------------
ITER       Energy         Delta-E        Max-DP      RMS-DP      [F,P]   Gradient Norm
                             ****Turning on KDIIS(Cayley)****
  0   -116.9155215920   0.000000000000 0.01066964  0.00034782  0.1048151   0.150685433
  1   -116.9706040258  -0.055082433803 0.01802560  0.00039141  0.0883554   0.130110740
  2   -117.0159956035  -0.045391577663 0.02896290  0.00066531  0.0709907   0.105787157
  3   -117.0724473882  -0.056451784762 0.04419107  0.00105446  0.0447390   0.065231675
                      *** Initiating the SOSCF procedure ***
                           *** Shutting down KDIIS ***
                      *** Re-Reading the Fockian *** 
                      *** Removing any level shift *** 
ITER      Energy       Delta-E        Grad      Rot      Max-DP    RMS-DP
  4   -117.10888526  -0.0364378757  0.003295  0.003295  0.002830  0.000088
  5   -117.10907090  -0.0001856315  0.000976  0.001175  0.001172  0.000040
  6   -117.10908328  -0.0000123875  0.000414  0.000330  0.000403  0.000014
  7   -117.10908657  -0.0000032844  0.000060  0.000139  0.000166  0.000006
  8   -117.10908668  -0.0000001153  0.000026  0.000070  0.000075  0.000002
  9   -117.10908669  -0.0000000121  0.000015  0.000041  0.000027  0.000001
 10   -117.10908670  -0.0000000022  0.000003  0.000004  0.000009  0.000000
                  ***Gradient check signals convergence***
              ***Rediagonalizing the Fockian in SOSCF/NRSCF***

               *****************************************************
               *                     SUCCESS                       *
               *           SCF CONVERGED AFTER  11 CYCLES          *
               *****************************************************


----------------
TOTAL SCF ENERGY
----------------

Total Energy       :         -117.10908670 Eh           -3186.70026 eV

Components:
Nuclear Repulsion  :           70.24681917 Eh            1911.51313 eV
Electronic Energy  :         -187.35590587 Eh           -5098.21339 eV
One Electron Energy:         -295.61766131 Eh           -8044.16552 eV
Two Electron Energy:          108.26175544 Eh            2945.95213 eV

Virial components:
Potential Energy   :         -233.86462018 Eh           -6363.77984 eV
Kinetic Energy     :          116.75553348 Eh            3177.07959 eV
Virial Ratio       :            2.00302815


---------------
SCF CONVERGENCE
---------------

  Last Energy change         ...   -3.7241e-10  Tolerance :   1.0000e-08
  Last MAX-Density change    ...    6.2890e-06  Tolerance :   1.0000e-07
  Last RMS-Density change    ...    1.6437e-07  Tolerance :   5.0000e-09
  Last Orbital Gradient      ...    1.1325e-06  Tolerance :   1.0000e-05
  Last Orbital Rotation      ...    3.1754e-06  Tolerance :   1.0000e-05

             **** THE GBW FILE WAS UPDATED (propene_H_H_ecl.gbw) ****
             **** DENSITY FILE WAS UPDATED (propene_H_H_ecl.scfp.tmp) ****
             **** ENERGY FILE WAS UPDATED (propene_H_H_ecl.en.tmp) ****
----------------
ORBITAL ENERGIES
----------------

  NO   OCC          E(Eh)            E(eV) 
   0   2.0000     -11.236142      -305.7510 
   1   2.0000     -11.228096      -305.5320 
   2   2.0000     -11.220898      -305.3362 
   3   2.0000      -1.058958       -28.8157 
   4   2.0000      -0.923438       -25.1280 
   5   2.0000      -0.749367       -20.3913 
   6   2.0000      -0.631222       -17.1764 
   7   2.0000      -0.577932       -15.7263 
   8   2.0000      -0.564315       -15.3558 
   9   2.0000      -0.515650       -14.0315 
  10   2.0000      -0.486298       -13.2328 
  11   2.0000      -0.354767        -9.6537 
  12   0.0000       0.147973         4.0265 
  13   0.0000       0.148260         4.0344 
  14   0.0000       0.172993         4.7074 
  15   0.0000       0.184344         5.0163 
  16   0.0000       0.226327         6.1587 
  17   0.0000       0.232298         6.3211 
  18   0.0000       0.239724         6.5232 
  19   0.0000       0.310375         8.4457 
  20   0.0000       0.350810         9.5460 
  21   0.0000       0.413460        11.2508 
  22   0.0000       0.414144        11.2694 
  23   0.0000       0.449043        12.2191 
  24   0.0000       0.470500        12.8030 
  25   0.0000       0.500862        13.6291 
  26   0.0000       0.512330        13.9412 
  27   0.0000       0.551918        15.0185 
  28   0.0000       0.594287        16.1714 
  29   0.0000       0.602009        16.3815 
  30   0.0000       0.621840        16.9211 
  31   0.0000       0.636260        17.3135 
  32   0.0000       0.643475        17.5098 
  33   0.0000       0.644667        17.5423 
  34   0.0000       0.665628        18.1127 
  35   0.0000       0.666403        18.1337 
  36   0.0000       0.731345        19.9009 
  37   0.0000       0.800318        21.7778 
  38   0.0000       0.819981        22.3128 
  39   0.0000       0.820911        22.3381 
  40   0.0000       0.887668        24.1547 
  41   0.0000       0.899780        24.4842 
  42   0.0000       1.027247        27.9528 
  43   0.0000       1.053537        28.6682 
  44   0.0000       1.063710        28.9450 
  45   0.0000       1.071206        29.1490 
  46   0.0000       1.104286        30.0492 
  47   0.0000       1.122151        30.5353 
  48   0.0000       1.160961        31.5914 
  49   0.0000       1.214430        33.0463 
  50   0.0000       1.234493        33.5923 
  51   0.0000       1.249648        34.0046 
  52   0.0000       1.264628        34.4123 
  53   0.0000       1.316707        35.8294 
  54   0.0000       1.321092        35.9487 
  55   0.0000       1.356199        36.9040 
  56   0.0000       1.410289        38.3759 
  57   0.0000       1.440673        39.2027 
  58   0.0000       1.494363        40.6637 
  59   0.0000       1.502039        40.8725 
  60   0.0000       1.519417        41.3454 
  61   0.0000       1.539294        41.8863 
  62   0.0000       1.546932        42.0942 
  63   0.0000       1.577500        42.9260 
  64   0.0000       1.580647        43.0116 
  65   0.0000       1.670728        45.4628 
  66   0.0000       1.696193        46.1558 
  67   0.0000       1.705239        46.4019 
  68   0.0000       1.711845        46.5817 
  69   0.0000       1.743988        47.4563 
  70   0.0000       1.889997        51.4294 
  71   0.0000       2.103502        57.2392 
  72   0.0000       2.391664        65.0805 
  73   0.0000       2.413932        65.6864 
  74   0.0000       2.447810        66.6083 
  75   0.0000       2.507055        68.2204 
  76   0.0000       2.593206        70.5647 
  77   0.0000       2.618822        71.2618 
  78   0.0000       2.647643        72.0460 
  79   0.0000       2.719078        73.9899 
  80   0.0000       2.776356        75.5485 
  81   0.0000       2.828582        76.9696 
  82   0.0000       2.848058        77.4996 
  83   0.0000       2.895704        78.7961 
  84   0.0000       2.900133        78.9166 
  85   0.0000       2.993833        81.4663 
  86   0.0000       3.007955        81.8506 
  87   0.0000       3.053909        83.1011 
  88   0.0000       3.083632        83.9099 
  89   0.0000       3.108012        84.5733 
  90   0.0000       3.125240        85.0421 
  91   0.0000       3.147782        85.6555 
  92   0.0000       3.151800        85.7648 
  93   0.0000       3.183440        86.6258 
  94   0.0000       3.194927        86.9384 
  95   0.0000       3.230857        87.9161 
  96   0.0000       3.234949        88.0274 
  97   0.0000       3.260643        88.7266 
  98   0.0000       3.327747        90.5526 
  99   0.0000       3.338735        90.8516 
 100   0.0000       3.373232        91.7903 
 101   0.0000       3.408329        92.7453 
 102   0.0000       3.425992        93.2260 
 103   0.0000       3.443462        93.7014 
 104   0.0000       3.449108        93.8550 
 105   0.0000       3.494960        95.1027 
 106   0.0000       3.515002        95.6481 
 107   0.0000       3.534786        96.1864 
 108   0.0000       3.585786        97.5742 
 109   0.0000       3.630130        98.7809 
 110   0.0000       3.671046        99.8942 
 111   0.0000       3.682585       100.2082 
 112   0.0000       3.689592       100.3989 
 113   0.0000       3.745895       101.9310 
 114   0.0000       3.770938       102.6125 
 115   0.0000       3.792588       103.2016 
 116   0.0000       3.816981       103.8653 
 117   0.0000       3.822874       104.0257 
 118   0.0000       3.949510       107.4716 
 119   0.0000       3.970414       108.0405 
 120   0.0000       3.977327       108.2286 
 121   0.0000       3.978205       108.2525 
 122   0.0000       4.071430       110.7892 
 123   0.0000       4.085367       111.1685 
 124   0.0000       4.123287       112.2003 
 125   0.0000       4.149674       112.9184 
 126   0.0000       4.180915       113.7685 
 127   0.0000       4.187717       113.9536 
 128   0.0000       4.205334       114.4330 
 129   0.0000       4.207505       114.4920 
 130   0.0000       4.278452       116.4226 
 131   0.0000       4.304986       117.1446 
 132   0.0000       4.330119       117.8285 
 133   0.0000       4.340577       118.1131 
 134   0.0000       4.372262       118.9753 
 135   0.0000       4.414378       120.1213 
 136   0.0000       4.425062       120.4121 
 137   0.0000       4.454243       121.2061 
 138   0.0000       4.483906       122.0133 
 139   0.0000       4.523430       123.0888 
 140   0.0000       4.632116       126.0463 
 141   0.0000       4.644372       126.3798 
 142   0.0000       4.714731       128.2943 
 143   0.0000       4.764742       129.6552 
 144   0.0000       4.812266       130.9484 
 145   0.0000       4.834810       131.5619 
 146   0.0000       4.943963       134.5321 
 147   0.0000       4.961639       135.0131 
 148   0.0000       5.024233       136.7163 
 149   0.0000       5.089678       138.4972 
 150   0.0000       5.127003       139.5128 
 151   0.0000       5.201346       141.5358 
 152   0.0000       5.246477       142.7639 
 153   0.0000       5.255582       143.0117 
 154   0.0000       5.277443       143.6065 
 155   0.0000       5.316399       144.6666 
 156   0.0000       5.378699       146.3618 
 157   0.0000       5.461498       148.6149 
 158   0.0000       5.505136       149.8024 
 159   0.0000       5.530238       150.4854 
 160   0.0000       5.577552       151.7729 
 161   0.0000       5.614742       152.7849 
 162   0.0000       5.621925       152.9804 
 163   0.0000       5.690752       154.8532 
 164   0.0000       5.736770       156.1055 
 165   0.0000       5.990324       163.0050 
 166   0.0000       6.170008       167.8944 
 167   0.0000       6.199623       168.7003 
 168   0.0000       6.274272       170.7316 
 169   0.0000       6.339348       172.5024 
 170   0.0000       6.581432       179.0899 
 171   0.0000      11.102889       302.1250 
 172   0.0000      13.610939       370.3725 
 173   0.0000      14.505706       394.7203 

                    ********************************
                    * MULLIKEN POPULATION ANALYSIS *
                    ********************************

-----------------------
MULLIKEN ATOMIC CHARGES
-----------------------
   0 C :   -0.250729
   1 C :   -0.120285
   2 C :   -0.333439
   3 H :    0.101664
   4 H :    0.091526
   5 H :    0.101661
   6 H :    0.149390
   7 H :    0.134053
   8 H :    0.126158
Sum of atomic charges:   -0.0000000

--------------------------------
MULLIKEN REDUCED ORBITAL CHARGES
--------------------------------
  0 C s       :     3.257520  s :     3.257520
      pz      :     1.004865  p :     2.911306
      px      :     0.910336
      py      :     0.996105
      dz2     :     0.013204  d :     0.077056
      dxz     :     0.010224
      dyz     :     0.018559
      dx2y2   :     0.010677
      dxy     :     0.024392
      f0      :     0.000240  f :     0.004847
      f+1     :     0.000465
      f-1     :     0.001564
      f+2     :     0.000293
      f-2     :     0.000191
      f+3     :     0.000833
      f-3     :     0.001261
  1 C s       :     3.227650  s :     3.227650
      pz      :     0.926286  p :     2.783222
      px      :     0.879097
      py      :     0.977840
      dz2     :     0.005300  d :     0.100850
      dxz     :     0.024447
      dyz     :     0.006740
      dx2y2   :     0.040596
      dxy     :     0.023766
      f0      :     0.001208  f :     0.008562
      f+1     :     0.000843
      f-1     :     0.000705
      f+2     :     0.000301
      f-2     :     0.001060
      f+3     :     0.002030
      f-3     :     0.002415
  2 C s       :     3.330797  s :     3.330797
      pz      :     1.002979  p :     2.913915
      px      :     0.937400
      py      :     0.973536
      dz2     :     0.007661  d :     0.081910
      dxz     :     0.013899
      dyz     :     0.005756
      dx2y2   :     0.036220
      dxy     :     0.018373
      f0      :     0.001012  f :     0.006818
      f+1     :     0.000624
      f-1     :     0.000590
      f+2     :     0.000192
      f-2     :     0.000737
      f+3     :     0.001418
      f-3     :     0.002246
  3 H s       :     0.869008  s :     0.869008
      pz      :     0.009849  p :     0.027165
      px      :     0.008017
      py      :     0.009299
      dz2     :     0.000606  d :     0.002163
      dxz     :     0.000432
      dyz     :     0.000609
      dx2y2   :     0.000175
      dxy     :     0.000340
  4 H s       :     0.877959  s :     0.877959
      pz      :     0.008048  p :     0.028345
      px      :     0.011798
      py      :     0.008500
      dz2     :     0.000225  d :     0.002169
      dxz     :     0.000246
      dyz     :     0.000330
      dx2y2   :     0.000787
      dxy     :     0.000581
  5 H s       :     0.869011  s :     0.869011
      pz      :     0.009850  p :     0.027165
      px      :     0.008017
      py      :     0.009298
      dz2     :     0.000606  d :     0.002163
      dxz     :     0.000432
      dyz     :     0.000609
      dx2y2   :     0.000175
      dxy     :     0.000340
  6 H s       :     0.823552  s :     0.823552
      pz      :     0.009356  p :     0.024847
      px      :     0.007990
      py      :     0.007502
      dz2     :     0.000179  d :     0.002211
      dxz     :     0.000009
      dyz     :     0.000568
      dx2y2   :     0.000492
      dxy     :     0.000963
  7 H s       :     0.839024  s :     0.839024
      pz      :     0.010269  p :     0.024903
      px      :     0.006733
      py      :     0.007901
      dz2     :     0.000162  d :     0.002020
      dxz     :     0.000570
      dyz     :     0.000059
      dx2y2   :     0.000524
      dxy     :     0.000705
  8 H s       :     0.847292  s :     0.847292
      pz      :     0.009689  p :     0.024436
      px      :     0.006636
      py      :     0.008111
      dz2     :     0.000176  d :     0.002113
      dxz     :     0.000008
      dyz     :     0.000618
      dx2y2   :     0.000528
      dxy     :     0.000783


                     *******************************
                     * LOEWDIN POPULATION ANALYSIS *
                     *******************************

----------------------
LOEWDIN ATOMIC CHARGES
----------------------
   0 C :    0.083848
   1 C :    0.005840
   2 C :    0.060969
   3 H :   -0.015853
   4 H :   -0.019386
   5 H :   -0.015849
   6 H :   -0.026305
   7 H :   -0.036480
   8 H :   -0.036785

-------------------------------
LOEWDIN REDUCED ORBITAL CHARGES
-------------------------------
  0 C s       :     2.672330  s :     2.672330
      pz      :     0.985868  p :     2.906903
      px      :     0.944873
      py      :     0.976162
      dz2     :     0.052339  d :     0.307653
      dxz     :     0.038842
      dyz     :     0.072729
      dx2y2   :     0.052294
      dxy     :     0.091450
      f0      :     0.001938  f :     0.029265
      f+1     :     0.004255
      f-1     :     0.004983
      f+2     :     0.004895
      f-2     :     0.001954
      f+3     :     0.005951
      f-3     :     0.005287
  1 C s       :     2.727832  s :     2.727832
      pz      :     0.817306  p :     2.814339
      px      :     1.008230
      py      :     0.988803
      dz2     :     0.024369  d :     0.412715
      dxz     :     0.086052
      dyz     :     0.017498
      dx2y2   :     0.172132
      dxy     :     0.112663
      f0      :     0.002336  f :     0.039273
      f+1     :     0.003356
      f-1     :     0.002649
      f+2     :     0.001814
      f-2     :     0.007118
      f+3     :     0.013638
      f-3     :     0.008362
  2 C s       :     2.735219  s :     2.735219
      pz      :     0.887563  p :     2.894315
      px      :     1.015531
      py      :     0.991221
      dz2     :     0.019481  d :     0.282756
      dxz     :     0.029973
      dyz     :     0.012801
      dx2y2   :     0.136269
      dxy     :     0.084231
      f0      :     0.000727  f :     0.026740
      f+1     :     0.002895
      f-1     :     0.002340
      f+2     :     0.000914
      f-2     :     0.003744
      f+3     :     0.008754
      f-3     :     0.007365
  3 H s       :     0.844494  s :     0.844494
      pz      :     0.059718  p :     0.145515
      px      :     0.036401
      py      :     0.049396
      dz2     :     0.008002  d :     0.025843
      dxz     :     0.005116
      dyz     :     0.006907
      dx2y2   :     0.002448
      dxy     :     0.003371
  4 H s       :     0.849927  s :     0.849927
      pz      :     0.038059  p :     0.143753
      px      :     0.053672
      py      :     0.052023
      dz2     :     0.002177  d :     0.025705
      dxz     :     0.003923
      dyz     :     0.004677
      dx2y2   :     0.008250
      dxy     :     0.006679
  5 H s       :     0.844494  s :     0.844494
      pz      :     0.059718  p :     0.145512
      px      :     0.036400
      py      :     0.049394
      dz2     :     0.008001  d :     0.025843
      dxz     :     0.005116
      dyz     :     0.006907
      dx2y2   :     0.002447
      dxy     :     0.003371
  6 H s       :     0.851554  s :     0.851554
      pz      :     0.039044  p :     0.149274
      px      :     0.032299
      py      :     0.077931
      dz2     :     0.002292  d :     0.025477
      dxz     :     0.000011
      dyz     :     0.007081
      dx2y2   :     0.007607
      dxy     :     0.008485
  7 H s       :     0.858901  s :     0.858901
      pz      :     0.043325  p :     0.152259
      px      :     0.065764
      py      :     0.043171
      dz2     :     0.002271  d :     0.025320
      dxz     :     0.006458
      dyz     :     0.001179
      dx2y2   :     0.007770
      dxy     :     0.007642
  8 H s       :     0.860842  s :     0.860842
      pz      :     0.041566  p :     0.150362
      px      :     0.031468
      py      :     0.077328
      dz2     :     0.002268  d :     0.025580
      dxz     :     0.000012
      dyz     :     0.007707
      dx2y2   :     0.007295
      dxy     :     0.008299


                      *****************************
                      * MAYER POPULATION ANALYSIS *
                      *****************************

  NA   - Mulliken gross atomic population
  ZA   - Total nuclear charge
  QA   - Mulliken gross atomic charge
  VA   - Mayer's total valence
  BVA  - Mayer's bonded valence
  FA   - Mayer's free valence

  ATOM       NA         ZA         QA         VA         BVA        FA
  0 C      6.2507     6.0000    -0.2507     3.8676     3.8676    -0.0000
  1 C      6.1203     6.0000    -0.1203     3.7575     3.7575    -0.0000
  2 C      6.3334     6.0000    -0.3334     3.8368     3.8368     0.0000
  3 H      0.8983     1.0000     0.1017     0.9801     0.9801    -0.0000
  4 H      0.9085     1.0000     0.0915     0.9849     0.9849    -0.0000
  5 H      0.8983     1.0000     0.1017     0.9801     0.9801    -0.0000
  6 H      0.8506     1.0000     0.1494     0.9741     0.9741     0.0000
  7 H      0.8659     1.0000     0.1341     0.9779     0.9779    -0.0000
  8 H      0.8738     1.0000     0.1262     0.9784     0.9784     0.0000

  Mayer bond orders larger than 0.1
B(  0-C ,  1-C ) :   0.9339 B(  0-C ,  3-H ) :   0.9763 B(  0-C ,  4-H ) :   0.9921 
B(  0-C ,  5-H ) :   0.9763 B(  1-C ,  2-C ) :   1.8833 B(  1-C ,  6-H ) :   0.9632 
B(  2-C ,  7-H ) :   0.9765 B(  2-C ,  8-H ) :   0.9685 

-------
TIMINGS
-------

Total SCF time: 0 days 0 hours 0 min 3 sec 

Total time                  ....       3.237 sec
Sum of individual times     ....       3.071 sec  ( 94.9%)

Fock matrix formation       ....       2.829 sec  ( 87.4%)
Diagonalization             ....       0.018 sec  (  0.6%)
Density matrix formation    ....       0.003 sec  (  0.1%)
Population analysis         ....       0.008 sec  (  0.2%)
Initial guess               ....       0.146 sec  (  4.5%)
Orbital Transformation      ....       0.000 sec  (  0.0%)
Orbital Orthonormalization  ....       0.000 sec  (  0.0%)
DIIS solution               ....       0.000 sec  (  0.0%)
SOSCF solution              ....       0.021 sec  (  0.6%)


           ************************************************************
           *        Program running with 8 parallel MPI-processes     *
           *              working on a common directory               *
           ************************************************************


------------------------------------------------------------------------------- 
                              ORCA-MATRIX DRIVEN CI                            
------------------------------------------------------------------------------- 


Wavefunction type
-----------------
Correlation treatment                      ...      CCSD     
Single excitations                         ... ON
Orbital optimization                       ... OFF
Calculation of Z vector                    ... OFF
Calculation of Brueckner orbitals          ... OFF
Perturbative triple excitations            ... ON
Calculation of F12 correction              ... OFF
Frozen core treatment                      ... chemical core (6 el)
Reference Wavefunction                     ... RHF
  Internal Orbitals:     3 ...   11 (  9 MO's/ 18 electrons)
  Virtual  Orbitals:    12 ...  173 (162 MO's              )
Number of AO's                             ...    174
Number of electrons                        ...     24
Number of correlated electrons             ...     18

Algorithmic settings
--------------------
Integral transformation                    ... All integrals via the RI transformation
K(C) Formation                             ... RI-DLPNO
   PNO-Integral Storage                    ... ON DISK
   PNO occupation number cut-off           ... 1.000e-07
   Singles PNO occupation number cut-off   ... 3.000e-09
   PNO Mulliken prescreening cut-off       ... 1.000e-03
   Domain cut-off (Mulliken population)    ... 1.000e-03
   PNO Normalization                       ...    1
Maximum number of iterations               ...        50
Convergence tolerance (max. residuum)      ... 1.000e-05
Level shift for amplitude update           ... 2.000e-01
Maximum number of DIIS vectors             ...         7
DIIS turned on at iteration                ...         0
Damping before turning on DIIS             ...     0.500
Damping after turning on DIIS              ...     0.000
Pair specific amplitude update             ... OFF
Natural orbital iterations                 ... OFF
Perturbative natural orbital generation    ... OFF
Printlevel                                 ... 2

Singles Fock matrix elements calculated using PNOs.

Memory handling:
----------------
Maximum memory for working arrays          ...   8000 MB
Data storage in matrix containers          ... UNCOMPRESSED
Data type for integral storage             ... DOUBLE
In-Core Storage of quantities:
   Amplitudes+Sigma Vector      ... NO
   J+K operators                ... NO
   DIIS vectors                 ... NO
   3-external integrals         ... NO
   4-external integrals         ... NO

Localization treatment:
-----------------------
Localization option                        ...    6
Localization threshhold                    ... -1.0e+00
Using relative localization threshhold     ... 1.0e-08
Neglect threshold for strong pairs         ... 1.000e-05 Eh
Prescreening threshold for very weak pairs ... 1.000e-07 Eh

Initializing the integral package          ... done
Localizing the valence orbitals
------------------------------------------------------------------------------
                           ORCA ORBITAL LOCALIZATION
------------------------------------------------------------------------------

Input orbitals are from                  ... propene_H_H_ecl.proc0.gbw
Output orbitals are to                   ... propene_H_H_ecl.proc0.loc
Max. number of iterations                ... 128
Localizations seeded randomly            ... off
Convergence tolerance                    ... 1.000e-06
Using relative localization threshhold   ... 1.000e-08
Treshold for strong local MOs            ... 9.500e-01
Treshold for bond MOs                    ... 8.500e-01
Operator                                 ... 0
Orbital range for localization           ... 3 to 11
Localization criterion                   ... FOSTER-BOYS (AUGMENTED HESSIAN)
Doing the dipole integrals     ... o.k.
Initial value of the localization sum :    34.245306
ITERATION   0 : L=   58.3138148447 DL=  2.41e+01 (AVERGE_DL)=    0.8176611145 
ITERATION   1 : L=   62.6607678008 DL=  4.35e+00 (AVERGE_DL)=    0.3474891268 
ITERATION   2 : L=   62.7086230037 DL=  4.79e-02 (AVERGE_DL)=    0.0364597201 
ITERATION   3 : L=   62.7087468663 DL=  1.24e-04 (AVERGE_DL)=    0.0018548929 
ITERATION   4 : L=   62.7087469130 DL=  4.66e-08 (AVERGE_DL)=    0.0000359958 
LOCALIZATION SUM CONVERGED

------------------------------------------------------
AUGMENTED HESSIAN OPTIMIZATION OF FOSTER-BOYS ORBITALS
------------------------------------------------------

Spin operator:           0
Orbital window:          3 to 11
Number of iterations:    128
Gradient tolerance:      1.000e-06
Number of pairs:         36
Davidson threshold:      2000
Diagonalization method:  LAPACK
Iter:    0   L: 62.7087469130   Grad. norm: 2.764938e-04
   *** Likely close to a maximum now. ***
       Augmented Hessian eigenvalues:  1.04e-09 -5.52e+00 -1.73e+01 -1.77e+01 ... 
Iter:    1   L: 62.7087469135   Grad. norm: 8.818510e-11
LOCALIZATION HAS CONVERGED.

Eigenvalues of the Hessian:
  0 -5.518e+00
  1 -1.726e+01
  2 -1.772e+01
  3 -1.813e+01
  4 -1.889e+01
  5 -1.977e+01
  6 -1.994e+01
  7 -2.180e+01
  8 -2.270e+01
  9 -2.295e+01
    ...


------------------------------------------------------------------------------- 
                    LOCALIZED MOLECULAR ORBITAL COMPOSITIONS                   
------------------------------------------------------------------------------- 

The Mulliken populations for each LMO on each atom are computed
The LMO`s will be ordered according to atom index and type
  (A) Strongly localized MO`s have populations of >=0.950 on one atom
  (B) Two center bond orbitals have populations of >=0.850 on two atoms
  (C) Other MO`s are considered to be `delocalized`

FOUND  -   0 strongly local MO`s
       -   9 two center bond MO`s
       -   0 significantly delocalized MO`s

Bond-like localized orbitals:
MO  11:   8H  -   0.452029  and   2C  -   0.571392
MO  10:   7H  -   0.446349  and   2C  -   0.582056
MO   9:   6H  -   0.437985  and   1C  -   0.582574
MO   8:   5H  -   0.467790  and   0C  -   0.555659
MO   7:   4H  -   0.471915  and   0C  -   0.558345
MO   6:   3H  -   0.467789  and   0C  -   0.555660
MO   5:   2C  -   0.517889  and   1C  -   0.503177
MO   4:   2C  -   0.517889  and   1C  -   0.503177
MO   3:   1C  -   0.546565  and   0C  -   0.484762
Localized MO's were stored in: propene_H_H_ecl.proc0.loc

Localizing the core orbitals
------------------------------------------------------------------------------
                           ORCA ORBITAL LOCALIZATION
------------------------------------------------------------------------------

Input orbitals are from                  ... propene_H_H_ecl.proc0.loc
Output orbitals are to                   ... propene_H_H_ecl.proc0.loc
Max. number of iterations                ... 128
Localizations seeded randomly            ... off
Convergence tolerance                    ... 1.000e-06
Using relative localization threshhold   ... 1.000e-08
Treshold for strong local MOs            ... 9.500e-01
Treshold for bond MOs                    ... 8.500e-01
Operator                                 ... 0
Orbital range for localization           ... 0 to 2
Localization criterion                   ... FOSTER-BOYS (AUGMENTED HESSIAN)
Doing the dipole integrals     ... o.k.
Initial value of the localization sum :    12.316605
ITERATION   0 : L=   12.3166084405 DL=  3.48e-06 (AVERGE_DL)=    0.0010765624 
ITERATION   1 : L=   12.3166084405 DL=  0.00e+00 (AVERGE_DL)=    0.0000000000 
LOCALIZATION SUM CONVERGED

------------------------------------------------------
AUGMENTED HESSIAN OPTIMIZATION OF FOSTER-BOYS ORBITALS
------------------------------------------------------

Spin operator:           0
Orbital window:          0 to 2
Number of iterations:    128
Gradient tolerance:      1.000e-06
Number of pairs:         3
Davidson threshold:      2000
Diagonalization method:  LAPACK
Iter:    0   L: 12.3166084405   Grad. norm: 1.461729e-07
   *** Likely close to a maximum now. ***
       Augmented Hessian eigenvalues:  2.40e-16 -2.57e+01 -3.23e+01 -8.93e+01
Iter:    1   L: 12.3166084405   Grad. norm: 5.915250e-22
LOCALIZATION HAS CONVERGED.

Eigenvalues of the Hessian:
  0 -2.566e+01
  1 -3.233e+01
  2 -8.927e+01


------------------------------------------------------------------------------- 
                    LOCALIZED MOLECULAR ORBITAL COMPOSITIONS                   
------------------------------------------------------------------------------- 

The Mulliken populations for each LMO on each atom are computed
The LMO`s will be ordered according to atom index and type
  (A) Strongly localized MO`s have populations of >=0.950 on one atom
  (B) Two center bond orbitals have populations of >=0.850 on two atoms
  (C) Other MO`s are considered to be `delocalized`

FOUND  -   3 strongly local MO`s
       -   0 two center bond MO`s
       -   0 significantly delocalized MO`s

Rather strongly localized orbitals:
MO   2:   2C  -   1.000654
MO   1:   1C  -   1.000767
MO   0:   0C  -   1.001028
Localized MO's were stored in: propene_H_H_ecl.proc0.loc

Warning: internal orbitals are localized - no re-canonicalization of internal orbitals

--------------------------
CLOSED-SHELL FOCK OPERATOR
--------------------------

RI-JK section for the Fock operator:
  RHF full Fock operator         ... done
  RHF frozen core Fock operator  ... done
Time needed for Fock operator              ...            0.575 sec
Reference energy                           ...   -117.109086697

--------------
DLPNO SETTINGS (2015 fully linear scaling implementation)
--------------

TCutMKN:           1.000e-03
TCutPAO:           1.000e-03
TCutPNO:           1.000e-07
TCutPNOSingles:    3.000e-09
TCutEN:            9.700e-01
TCutPAOExt:        1.000e-01
TCutPairs:         1.000e-05
TCutPre:           1.000e-07
TCutOSV:           1.000e-06
TCutDOij:          1.000e-05
TCutDO:            5.000e-03
TCutC:             1.000e-04
TCutCPAO:          1.000e-03
TCutCMO:           1.000e-03
TScaleDOMP2PreScr: 2.000e+00
TScaleMKNMP2PreScr:1.000e+01
TScalePNOMP2PreScr:1.000e+00
PAO overlap thresh 1.000e-08
Using PNOs for Singles Fock computation
Use new domains
Use fully linear algorithm
TCutTNO:           1.000e-09
TCutMP2Pairs:      1.000e-06
TCutDOStrong:      2.000e-03
TCutMKNStrong:     1.000e-02
TCutMKNWeak:       1.000e-01
TCutDOWeak:        4.000e-03
NTCutTNO:          1

--------------------------
Calculating differential overlap integrals ... ok
--------------------------
ELECTRON PAIR PRESCREENING
--------------------------

Dipole-based pair screening          .... used

   TCutDOij = 1.000000e-05
   TCutPre  = 1.000000e-07
   .... Finished loop over pairs
Total time spent in the prescreening                  ...     0.000 sec
sum of pair energies estimated for screened out pairs ...       0.000000000000 Eh
Thresholds for map construction and integral transformation for crude MP2:
   TCutMKN                    ...     1.0e-02
   TCutDO                     ...     1.0e-02
   TCutPairs                  ...     1.0e-05
   TCutPNO_CrudeMP2           ...     1.0e-07
   TCutPNOSingles_CrudeMP2    ...     3.0e-09
--------------------------------
LOCAL RI TRANSFORMATION (IAVPAO)
--------------------------------

Orbital window:       3 to 11
Number of PAOs:     174
Basis functions:    174 (66 shells)
Aux. functions:     423 (129 shells)

Processing maps (0.0 sec)
Average map sizes:
   Aux shells -> MOs               9.0
   Aux shells -> PAOs            174.0
   MOs        -> AO shells        66.0
   PAOs       -> AO shells        66.0

Calculating integrals (0.3 sec, 5.059 MB)
Sorting integrals (0.0 sec, 5.054 MB)
Total time for the integral transformation: 0.3 sec
--------------------------------
INITIAL GUESS AND PNO GENERATION
--------------------------------

PNO truncation parameters                   .... 
    PAOOverlapThresh   =        1.000e-08

    TCutPairs          =        1.000e-05
    TCutPNO            =        1.000e-07
    TCutPNOSingles     =        3.000e-09
    TCutMP2Pairs       =        1.000e-06
    TCutMKN            =        1.000e-02
    TCutDO             =        1.000e-02

Pair selection                          .... not used
Type of local MP2 treatment                 .... semi-local MP2
Strategy for PNO selection                  .... occupation number selection
Pair density normalization                  .... MP2 norm
Spin component scaling                      .... not used

   .... Finished loop over pairs
Making pair pair interaction lists          ... done

                       ===========================
                         45 OF   45 PAIRS ARE KEPT CCSD PAIRS
                          0 OF   45 PAIRS ARE KEPT MP2 PAIRS FOR (T)
                          0 OF   45 PAIRS ARE SKIPPED
                       ===========================

Total time spent in the initial guess                 ...     0.139 sec
SL-MP2 correlation energy (all non-screened pairs)    ...      -0.496243842441 Eh

Initial PNO correlation energy                        ...      -0.495961076554 Eh
sum of pair energies prescreened and skipped MP2 pairs...       0.000000000000 Eh
sum of pair energies of crude MP2 skipped pairs only  ...       0.000000000000 Eh
sum of MP2 pair energies for pairs that were not kept ...       0.000000000000 Eh
sum of PNO error estimates for the kept pairs         ...      -0.000282765887 Eh
                                                          --------------------
sum of all corrections                                         -0.000282765887
Initial total correlation energy                               -0.496243842441
Thresholds for map construction and integral transformation for fine MP2 and CCSD(T) calculation:
   TCutMKN   ...     1.0e-03
   TCutDO    ...     5.0e-03
   TCutPairs ...     1.0e-05
   TCutCMO   ...     1.0e-03
   TCutCPAO  ...     1.0e-03

Thresholds for map construction and integral transformation for strong Triples:
   TCutMKN   ...     1.0e-02
   TCutDO    ...     1.0e-02
   TCutCMO   ...     1.0e-03
   TCutCPAO  ...     1.0e-03

Thresholds for map construction and integral transformation for weak Triples:
   TCutMKN   ...     1.0e-01
   TCutDO    ...     2.0e-02
   TCutCMO   ...     1.0e-03
   TCutCPAO  ...     1.0e-03

--------------------------------
LOCAL RI TRANSFORMATION (IAVPAO)
--------------------------------

Orbital window:       3 to 11
Number of PAOs:     174
Basis functions:    174 (66 shells)
Aux. functions:     423 (129 shells)

Processing maps (0.0 sec)
Average map sizes:
   Aux shells -> MOs               9.0
   Aux shells -> PAOs            174.0
   MOs        -> AO shells        66.0
   PAOs       -> AO shells        66.0

Calculating integrals (0.3 sec, 5.059 MB)
Sorting integrals (0.0 sec, 5.054 MB)
Total time for the integral transformation: 0.3 sec
--------------------------------
INITIAL GUESS AND PNO GENERATION
--------------------------------

PNO truncation parameters                   .... 
    ScaleTCutPNO       =        1.000e-02
    PAOOverlapThresh   =        1.000e-08

    TCutPairs          =        1.000e-05
    TCutPNO            =        1.000e-07
    TCutPNOSingles     =        3.000e-09
    TCutMP2Pairs       =        1.000e-06
    TCutMKN            =        1.000e-03
    TCutDO             =        5.000e-03

Pair selection                          .... not used
Type of local MP2 treatment                 .... full local PMP2
Strategy for PNO selection                  .... occupation number selection
Pair density normalization                  .... MP2 norm
Spin component scaling                      .... not used

PASS-1: Formation of initial guess LMP2 amplitudes
Initial amplitudes guess done. Entering LMP2 iteration loop:
   Max. no of iterations          ...  50
   Energy convergence tolerance   ...    1.0e-07
   Residual convergence tolerance ...    5.0e-07
   Fock matrix cutoff             ...    1.0e-05 Eh
   DIIS convergence acceleration parameters:
        Max # vectors in DIIS     ... 7
        Start iteration of DIIS   ... 0
        Levelshift                ... 2.000e-01
        Damping factor 1          ... 5.000e-01
        Damping factor 2          ... 1.000e+00
   L-MP2 PNO cut-off              ...   1.0e-09
   L-MP2 PNO cut-off (core)       ...   1.0e-11
                           *** Turning on DIIS ***
LMP2-Iter=   0:  ELMP2= -0.504841825154  DE=   8.5e-03 RMAX=   1.4e-02
LMP2-Iter=   1:  ELMP2= -0.510003798312  DE=   5.2e-03 RMAX=   6.4e-03
LMP2-Iter=   2:  ELMP2= -0.511022463131  DE=   1.0e-03 RMAX=   2.3e-03
LMP2-Iter=   3:  ELMP2= -0.511132752798  DE=   1.1e-04 RMAX=   7.1e-04
LMP2-Iter=   4:  ELMP2= -0.511119453436  DE=   1.3e-05 RMAX=   1.6e-04
LMP2-Iter=   5:  ELMP2= -0.511117426513  DE=   2.0e-06 RMAX=   3.3e-05
LMP2-Iter=   6:  ELMP2= -0.511117361354  DE=   6.5e-08 RMAX=   4.8e-06
LMP2-Iter=   7:  ELMP2= -0.511117459301  DE=   9.8e-08 RMAX=   6.5e-07
LMP2-Iter=   8:  ELMP2= -0.511117473844  DE=   1.5e-08 RMAX=   9.6e-08 => CONVERGED
PASS-2: Formation of Pair natural orbitals
   .... Finished loop over pairs

 PNO Occupation Number Statistics: 
  | Av. % of trace(Dij) retained        ...  99.897297031036
  | sigma^2 in % of trace(Dij) retained ...   1.96e-02
  | Av. % of trace(Di) retained         ...  99.999811632535
  | sigma^2 in % of trace(Di) retained  ...   2.31e-09
 Distributions of % trace(Dij) recovered:
  |       >= 99.9  ...    26 ( 57.8 % of all pairs)
  |   [99.0, 99.9) ...    19 ( 42.2 % of all pairs)
 Distributions of % trace(Di) recovered :
  |       >= 99.9  ...     9 (100.0 % of all I-pairs )

Making pair pair interaction lists          ... done

                       ===========================
                         45 OF   45 PAIRS ARE KEPT
                       ===========================

Total time spent in the initial guess                 ...     1.319 sec
L-MP2 correlation energy (all non-screened pairs)     ...      -0.511117473844 Eh
L-MP2 PNO error correction                            ...      -0.000003272030 Eh
                                                          --------------------
Initial total L-MP2 energy (non-screened pairs)       ...      -0.511120745874 Eh

Initial PNO correlation energy                        ...      -0.510848900708 Eh
sum of pair energies estimated for screened out pairs ...       0.000000000000 Eh
sum of MP2 pair energies for pairs that were not kept ...       0.000000000000 Eh
sum of PNO error estimates for the kept pairs         ...      -0.000271845166 Eh
                                                          --------------------
sum of all corrections                                         -0.000271845166
Initial total correlation energy                               -0.511120745874
Thresholds for map construction and integral transformation for fine MP2 and CCSD(T) calculation:
   TCutMKN   ...     1.0e-03
   TCutDO    ...     5.0e-03
   TCutPairs ...     1.0e-05
   TCutCMO   ...     1.0e-03
   TCutCPAO  ...     1.0e-03

Time for aux screen maps:            0.001
Time for maps after fine MP2:            0.002
-----------------------------
LOCAL RI TRANSFORMATION (IJV)
-----------------------------

Orbital window:       3 to 11
Basis functions:    174 (66 shells)
Aux. functions:     423 (129 shells)

Processing maps (0.0 sec)
Average map sizes:
   Aux shells -> MOs(i)            9.0
   Aux shells -> MOs(j)            9.0
   MOs        -> AO shells        66.0

Calculating integrals (0.3 sec, 0.266 MB)
Sorting integrals (0.0 sec, 0.262 MB)
Total time for the integral transformation: 0.3 sec
--------------------------------
LOCAL RI TRANSFORMATION (VABPAO)
--------------------------------

Number of PAOs:     174
Basis functions:    174 (66 shells)
Aux. functions:     423 (129 shells)

Processing maps (0.0 sec)
Average map sizes:
   Aux shells -> PAOs            174.0
   PAOs       -> AO shells        66.0

Calculating integrals (0.4 sec, 183.182 MB)
Finished


-------------------------------------
Pair Pair Term precalculation with     
RI-(ij|mn) and (im|jn) transformation  
ON THE FLY                             
-------------------------------------

   IBatch   1 (of   1)              ... done (    3.790 sec)
Total EXT                           ...           3.790 sec

---------------------
RI-PNO TRANSFORMATION
---------------------

Total Number of PNOs                   ...  2520
Average number of PNOs per pair        ...    56
Maximal number of PNOs per pair        ...    75
   #pairs with  1 -  5 PNOs   :    0
   #pairs with  6 - 10 PNOs   :    0
   #pairs with 11 - 15 PNOs   :    0
   #pairs with 16 - 20 PNOs   :    0
   #pairs with 21 - 25 PNOs   :    0
   #pairs with 26 - 30 PNOs   :    0
   #pairs with 31 - 35 PNOs   :    3
   #pairs with 36 - 40 PNOs   :    3
   #pairs with 41 - 45 PNOs   :    0
   #pairs with 46 - 50 PNOs   :    7
   #pairs with 51 - 55 PNOs   :    8
   #pairs with 56 - 60 PNOs   :    5
   #pairs with 61 - 65 PNOs   :   13
   #pairs with 66 - 70 PNOs   :    5
   #pairs with 71 - 75 PNOs   :    1

Generation of (ij|ab)[P] integrals            ... on
Generation of (ia|bc)[P],(ja|bc)[P] integrals ... on
Storage of 3 and 4 external integrals         ... on
Generation of ALL (ka|bc)[P] integrals        ... on
Keep RI integrals in memory                   ... off

Ibatch:  1 (of  1)
Starting 2-4 index PNO integral generation ... done

Timings:
Total PNO integral transformation time     ...          3.386 sec
Size of the 3-external file                ...        67 MB
Size of the 4-external file                ...       521 MB
Size of the IKJL file                      ...         0 MB
Size of the all 3-external file            ...       303 MB
Size of the 1-external file                ...         0 MB

Making pair/pair overlap matrices          ... done (    0.107 sec)
Size of the pair overlap file              ... 41 MB
Redoing the guess amplitudes               ... done (    0.001 sec)

-------------------------
FINAL STARTUP INFORMATION
-------------------------

E(0)                                       ...   -117.109086697
E(L-MP2)                                   ...     -0.511120746
E(L-MP2) including corrections             ...     -0.511120746
Initial E(tot)                             ...   -117.620207443
<T|T>                                      ...      0.153699344
Number of pairs included                   ... 45
Total number of pairs                      ... 45

------------------------------------------------
                  RHF COUPLED CLUSTER ITERATIONS
------------------------------------------------

Number of PNO amplitudes to be optimized   ...       145988
Number of non-PNO amplitudes               ...      1180980
Untruncated number of regular amplitudes   ...      1180980

Iter       E(tot)           E(Corr)          Delta-E          Residual     Time
  0   -117.605333291     -0.495974749      0.015145997      0.017197108    3.89
                           *** Turning on DIIS ***
  1   -117.634082996     -0.524724454     -0.028749706      0.011872573    3.91
  2   -117.649948659     -0.540590117     -0.015865663      0.007022648    3.88
  3   -117.653411878     -0.544053335     -0.003463218      0.003792391    3.90
  4   -117.654455499     -0.545096957     -0.001043621      0.001933823    4.10
  5   -117.654804685     -0.545446142     -0.000349186      0.000638777   12.72
  6   -117.654889182     -0.545530640     -0.000084497      0.000171086    6.50
  7   -117.654895180     -0.545536638     -0.000005998      0.000037951    3.89
  8   -117.654893798     -0.545535256      0.000001382      0.000022871    3.89
  9   -117.654892931     -0.545534389      0.000000868      0.000012605    3.88
 10   -117.654892801     -0.545534259      0.000000130      0.000005980    3.89
               --- The Coupled-Cluster iterations have converged ---

----------------------
COUPLED CLUSTER ENERGY
----------------------

E(0)                                       ...   -117.109086697
E(CORR)(strong-pairs)                      ...     -0.545534259
E(CORR)(weak-pairs)                        ...     -0.000271845
E(CORR)(corrected)                         ...     -0.545806104
E(TOT)                                     ...   -117.654892801
Singles Norm <S|S>**1/2                    ...      0.042318670  
T1 diagnostic                              ...      0.009974606  

------------------
LARGEST AMPLITUDES
------------------
   5-> 12   5-> 12       0.062116
   4-> 12   4-> 12       0.062115
   5-> 12   4-> 12       0.056128
   6-> 19   6-> 19       0.037544
   8-> 19   8-> 19       0.037544
  11-> 19  11-> 19       0.034398
   7-> 18   7-> 18       0.029910
   8-> 19   8-> 12       0.028669
   8-> 12   8-> 19       0.028669
   6-> 12   6-> 19       0.028669
   6-> 19   6-> 12       0.028669
   7-> 12   7-> 12       0.028044
   8-> 12   8-> 12       0.026740
   6-> 12   6-> 12       0.026739
  11-> 13  11-> 13       0.026615
  10-> 13  10-> 13       0.026036


-------------------------------------------
DLPNO BASED TRIPLES CORRECTION
-------------------------------------------

Singles multiplier          ...  1.000000
TCutTNO                     ... 1.000e-09
TCutMP2Pairs                ... 1.000e-06
TCutDOStrong                ... 1.000e-02
TCutMKNStrong               ... 1.000e-02
TCutDOWeak                  ... 2.000e-02
TCutMKNWeak                 ... 1.000e-01

Fragment selection                          .... not used
Number of Triples that are to be computed   ...       156

 . . . . . . . . .
10% done  
20% done  
30% done  
40% done  
50% done  
60% done  
70% done  
80% done  
90% done               (      8.698 sec)
Triples timings:
Total time for T0               ...     9.034 sec
Total time for Iterative (T)    ...     0.000 sec
Total time of overall (T)       ...     9.034 sec

Triples List generation         ...     0.000 sec
TNO generation                  ...     0.333 sec
Pair density generation         ...     0.002 sec
Look up tables                  ...     0.000 sec
Generating 3-index integrals    ...     2.920 sec
  Make 4-ind.int. from 3-ind.int...     2.065 sec
  Projecting amplitudes (D + S) ...     0.313 sec
  Downprojecting integrals      ...     0.000 sec
  Energy contr. (sum over a,b,c)...     0.995 sec
Fitting ET(->0)                 ...     0.000 sec

Everything after 3-index        ...     5.777 sec

Timing details:
 TNO integrals                  ...     4.854 sec
   Reading 3-index integrals    ...     0.033 sec
   Sorting integrals            ...     1.184 sec
       Sorting integrals 1      ...     0.000 sec
       Sorting integrals 2      ...     0.151 sec
       Sorting integrals 3      ...     0.041 sec
       Sorting integrals 4      ...     0.001 sec
       Sorting integrals 5      ...     0.006 sec
       Sorting integrals 6      ...     0.984 sec
   Calculating local VM**-1/2   ...     0.016 sec
   Orthogonal. integrals        ...     0.053 sec
   Multipl. 3-index integrals   ...     3.569 sec
   All concerning IRIab (w/TNO) ...     0.951 sec

 Calculate W0/W1                ...     2.402 sec
 W 3-ext contribution           ...     1.386 sec
 W 3-int contribution           ...     0.276 sec
 Sorting W                      ...     0.703 sec

 V exchange contribution        ...     0.328 sec

 Timings for Triples without generation
     of 3-index integrals       ...     5.777 sec
       0 weak pairs             ...     5.777 sec
       1 weak pair              ...     0.000 sec
       2 weak pairs             ...     0.000 sec
       3 weak pairs             ...     0.000 sec
  Extra time for extrapolation  ...     0.000 sec

Number of Triples   (0, 1, 2, 3 weak pairs; overall):    156       0       0       0  (   156)
Number of Atoms     (0, 1, 2, 3 weak pairs; overall):    9.0     0.0     0.0     0.0  (     9)
Number of PAOs      (0, 1, 2, 3 weak pairs; overall):  174.0     0.0     0.0     0.0  (   174)
Number of AuxFcns   (0, 1, 2, 3 weak pairs; overall):  281.8     0.0     0.0     0.0  (   423)
Number of TNOs      (0, 1, 2, 3 weak pairs         ):  107.5     0.0     0.0     0.0
Aver. Number of NTNO, Atoms, PAOs, AuxFcns / Triples:    156   107.5     9.0   174.0   281.8

Triples Correction (T)                     ...     -0.022051779
Final correlation energy                   ...     -0.567857883
E(CCSD)                                    ...   -117.654892801
E(CCSD(T))                                 ...   -117.676944580


Maximum memory used throughout the entire calculation: 1130.8 MB


------------------------------------------------------------------------------- 
                                     TIMINGS                                   
------------------------------------------------------------------------------- 


Total execution time                   ...       75.073 sec

Localization of occupied MO's          ...        0.406 sec (  0.5%)
Fock Matrix Formation                  ...        0.575 sec (  0.8%)
Global overlap, Fock, MKN matrices     ...        0.119 sec (  0.2%)
Differential overlap integrals         ...        0.036 sec (  0.0%)
Organizing maps                        ...        0.008 sec (  0.0%)
RI 3-index integral generations        ...        1.343 sec (  1.8%)
RI-PNO integral transformation         ...        7.337 sec (  9.8%)
Initial Guess                          ...        1.476 sec (  2.0%)
DIIS Solver                            ...        3.020 sec (  4.0%)
State Vector Update                    ...        0.011 sec (  0.0%)
Sigma-vector construction              ...       51.718 sec ( 68.9%)
  <D|H|D>(0-ext)                       ...        0.311 sec (  0.6% of sigma)
  <D|H|D>(2-ext Fock)                  ...        0.005 sec (  0.0% of sigma)
  <D|H|D>(2-ext)                       ...        1.102 sec (  2.1% of sigma)
  <D|H|D>(4-ext)                       ...        8.063 sec ( 15.6% of sigma)
  <D|H|D>(4-ext-corr)                  ...       28.580 sec ( 55.3% of sigma)
  CCSD doubles correction              ...        0.032 sec (  0.1% of sigma)
  <S|H|S>                              ...        0.255 sec (  0.5% of sigma)
  <S|H|D>(1-ext)                       ...        0.058 sec (  0.1% of sigma)
  <D|H|S>(1-ext)                       ...        0.002 sec (  0.0% of sigma)
  <S|H|D>(3-ext)                       ...        0.243 sec (  0.5% of sigma)
  Fock-dressing                        ...       11.905 sec ( 23.0% of sigma)
  Singles amplitudes                   ...        0.067 sec (  0.1% of sigma)
  (ik|jl)-dressing                     ...        0.227 sec (  0.4% of sigma)
  (ij|ab),(ia|jb)-dressing             ...        0.803 sec (  1.6% of sigma)
  Pair energies                        ...        0.003 sec (  0.0% of sigma)
Total Time for computing (T)           ...        9.035 sec ( 12.0% of ALL)


-------------------------   --------------------
FINAL SINGLE POINT ENERGY      -117.676944579901
-------------------------   --------------------


                            ***************************************
                            *     ORCA property calculations      *
                            ***************************************

                                    ---------------------
                                    Active property flags
                                    ---------------------
   (+) Dipole Moment


------------------------------------------------------------------------------
                       ORCA ELECTRIC PROPERTIES CALCULATION
------------------------------------------------------------------------------

Dipole Moment Calculation                       ... on
Quadrupole Moment Calculation                   ... off
Polarizability Calculation                      ... off
GBWName                                         ... propene_H_H_ecl.gbw
Electron density file                           ... propene_H_H_ecl.scfp.tmp
The origin for moment calculation is the CENTER OF MASS  = (-0.047351,  0.021579 -0.000001)

-------------
DIPOLE MOMENT
-------------
                                X             Y             Z
Electronic contribution:     -0.99503       0.53033       0.00001
Nuclear contribution   :      1.13644      -0.51783      -0.00002
                        -----------------------------------------
Total Dipole Moment    :      0.14141       0.01250      -0.00001
                        -----------------------------------------
Magnitude (a.u.)       :      0.14196
Magnitude (Debye)      :      0.36084



--------------------
Rotational spectrum 
--------------------
 
Rotational constants in cm-1:     1.481276     0.312265     0.271621 
Rotational constants in MHz : 44407.551298  9361.458032  8142.996800 

 Dipole components along the rotational axes: 
x,y,z [a.u.] :    -0.141461     0.011905    -0.000011 
x,y,z [Debye]:    -0.359565     0.030260    -0.000028 

 

Timings for individual modules:

Sum of individual times         ...       78.966 sec (=   1.316 min)
GTO integral calculation        ...        0.382 sec (=   0.006 min)   0.5 %
SCF iterations                  ...        3.346 sec (=   0.056 min)   4.2 %
MDCI module                     ...       75.237 sec (=   1.254 min)  95.3 %
                             ****ORCA TERMINATED NORMALLY****
TOTAL RUN TIME: 0 days 0 hours 1 minutes 19 seconds 240 msec
propene_H_H_ecl.gbw -> /home1/pantazis/klk/xyz/Energy_barrier/propene_H_H_ecl.gbw
propene_H_H_ecl.job -> /home1/pantazis/klk/xyz/Energy_barrier/propene_H_H_ecl.job
propene_H_H_ecl.loc -> /home1/pantazis/klk/xyz/Energy_barrier/propene_H_H_ecl.loc
propene_H_H_ecl.nodes -> /home1/pantazis/klk/xyz/Energy_barrier/propene_H_H_ecl.nodes
propene_H_H_ecl.prop -> /home1/pantazis/klk/xyz/Energy_barrier/propene_H_H_ecl.prop
propene_H_H_ecl_property.txt -> /home1/pantazis/klk/xyz/Energy_barrier/propene_H_H_ecl_property.txt
propene_H_H_ecl.xyz -> /home1/pantazis/klk/xyz/Energy_barrier/propene_H_H_ecl.xyz
cp: cannot stat propene_H_H_ecl.asa.inp: No such file or directory
