! Job execution by suborca V 6.07 on ZEUS !
Job started from zeus1, running /scratch/pantazis/propen_3_ol_syn_a__WALo3P/orca/orca copied from /opt/orca on zeussn124 in /scratch/pantazis/propen_3_ol_syn_a__WALo3P
Job execution start: Thu Jun 27 14:20:08 CEST 2019
Shared library path: /scratch/pantazis/propen_3_ol_syn_a__WALo3P/orca:/opt/openmpi_1.10.2/lib:/opt/intel/mkl/lib/intel64:/opt/intel/lib/intel64:
PBS Job ID is: 158154.icqc
izeussn124
izeussn124
izeussn124
izeussn124
izeussn124
izeussn124
izeussn124
izeussn124

                                 *****************
                                 * O   R   C   A *
                                 *****************

           --- An Ab Initio, DFT and Semiempirical electronic structure package ---

                  #######################################################
                  #                        -***-                        #
                  #          Department of theory and spectroscopy      #
                  #               Directorship: Frank Neese             #
                  #        Max Planck Institute fuer Kohlenforschung    #
                  #                Kaiser Wilhelm Platz 1               #
                  #                 D-45470 Muelheim/Ruhr               #
                  #                      Germany                        #
                  #                                                     #
                  #                  All rights reserved                #
                  #                        -***-                        #
                  #######################################################


                         Program Version 4.1.x  -  STABLE  -
                                (SVN: $Rev: 14094$)
                ($Date: 2019-06-14 15:01:15 +0200 (Fri, 14 Jun 2019) $)

                         (BUILD: $Sun Jun 23 06:18:31 CEST 2019$)


 With contributions from (in alphabetic order):
   Daniel Aravena         : Magnetic Properties
   Michael Atanasov       : Ab Initio Ligand Field Theory
   Alexander A. Auer      : GIAO ZORA
   Ute Becker             : Parallelization
   Giovanni Bistoni       : ED, Open-shell LED
   Martin Brehm           : Molecular dynamics
   Dmytro Bykov           : SCF Hessian
   Vijay G. Chilkuri      : MRCI spin determinant printing
   Dipayan Datta          : RHF DLPNO-CCSD density
   Achintya Kumar Dutta   : EOM-CC, STEOM-CC
   Dmitry Ganyushin       : Spin-Orbit,Spin-Spin,Magnetic field MRCI
   Miquel Garcia          : C-PCM Hessian
   Yang Guo               : DLPNO-NEVPT2, CIM, IAO-localization
   Andreas Hansen         : Spin unrestricted coupled pair/coupled cluster methods
   Benjamin Helmich-Paris : CASSCF linear response (MC-RPA)
   Lee Huntington         : MR-EOM, pCC
   Robert Izsak           : Overlap fitted RIJCOSX, COSX-SCS-MP3, EOM
   Christian Kollmar      : KDIIS, OOCD, Brueckner-CCSD(T), CCSD density
   Simone Kossmann        : Meta GGA functionals, TD-DFT gradient, OOMP2, MP2 Hessian
   Martin Krupicka        : AUTO-CI
   Lucas Lang             : DCDCAS
   Dagmar Lenk            : GEPOL surface, SMD
   Dimitrios Liakos       : Extrapolation schemes; parallel MDCI
   Dimitrios Manganas     : ROCIS; embedding schemes
   Dimitrios Pantazis     : SARC Basis sets
   Taras Petrenko         : DFT Hessian,TD-DFT gradient, ASA, ECA, R-Raman, ABS, FL, XAS/XES, NRVS
   Peter Pinski           : DLPNO-MP2, DLPNO-MP2 Gradient
   Christoph Reimann      : Effective Core Potentials
   Marius Retegan         : Local ZFS, SOC
   Christoph Riplinger    : Optimizer, TS searches, QM/MM, DLPNO-CCSD(T), (RO)-DLPNO pert. Triples
   Tobias Risthaus        : Range-separated hybrids, TD-DFT gradient, RPA, STAB
   Michael Roemelt        : Restricted open shell CIS
   Masaaki Saitow         : Open-shell DLPNO
   Barbara Sandhoefer     : DKH picture change effects
   Avijit Sen             : IP-ROCIS
   Kantharuban Sivalingam : CASSCF convergence, NEVPT2, FIC-MRCI
   Bernardo de Souza      : ESD, SOC TD-DFT
   Georgi Stoychev        : AutoAux, RI-MP2 NMR
   Willem Van den Heuvel  : Paramagnetic NMR
   Boris Wezisla          : Elementary symmetry handling
   Frank Wennmohs         : Technical directorship


 We gratefully acknowledge several colleagues who have allowed us to
 interface, adapt or use parts of their codes:
   Stefan Grimme, W. Hujo, H. Kruse,             : VdW corrections, initial TS optimization,
                  C. Bannwarth                     DFT functionals, gCP, sTDA/sTD-DF
   Ed Valeev                                     : LibInt (2-el integral package), F12 methods
   Garnet Chan, S. Sharma, J. Yang, R. Olivares  : DMRG
   Ulf Ekstrom                                   : XCFun DFT Library
   Mihaly Kallay                                 : mrcc  (arbitrary order and MRCC methods)
   Andreas Klamt, Michael Diedenhofen            : otool_cosmo (COSMO solvation model)
   Jiri Pittner, Ondrej Demel                    : Mk-CCSD
   Frank Weinhold                                : gennbo (NPA and NBO analysis)
   Christopher J. Cramer and Donald G. Truhlar   : smd solvation model
   Lars Goerigk                                  : TD-DFT with DH, B97 family of functionals
   V. Asgeirsson, H. Jonsson                     : NEB implementation
   FAccTs GmbH                                   : IRC, NEB, NEB-TS, Multilevel


 Your calculation uses the libint2 library for the computation of 2-el integrals
 For citations please refer to: http://libint.valeyev.net

 This ORCA versions uses:
   CBLAS   interface :  Fast vector & matrix operations
   LAPACKE interface :  Fast linear algebra routines
   SCALAPACK package :  Parallel linear algebra routines




***************************************
The coordinates will be read from file: propen_3_ol_syn_a.xyz
***************************************


----- Orbital basis set information -----
Your calculation utilizes the basis: cc-pVTZ 
       H, B-Ne : Obtained from the ccRepo (grant-hill.group.shef.ac.uk/ccrepo) Feb. 2017
                 T. H. Dunning, Jr., J. Chem. Phys. 90, 1007 (1989)
            He : Obtained from the ccRepo (grant-hill.group.shef.ac.uk/ccrepo) Feb. 2017
                 D. E. Woon, T. H. Dunning, Jr., J. Chem. Phys. 100, 2975 (1994)
  Li-Be, Na-Mg : Obtained from the ccRepo (grant-hill.group.shef.ac.uk/ccrepo) Feb. 2017
                 B. P. Prascher, D. E. Woon, K. A. Peterson, T. H. Dunning, Jr., A. K. Wilson, Theor. Chem. Acc. 128, 69 (2011)
         Al-Ar : Obtained from the ccRepo (grant-hill.group.shef.ac.uk/ccrepo) Feb. 2017
                 D. E. Woon, T. H. Dunning, Jr., J. Chem. Phys. 98, 1358 (1993)
            Ca : Obtained from the Peterson Research Group Website (tyr0.chem.wsu.edu/~kipeters) Feb. 2017
                 J. Koput, K. A. Peterson, J. Phys. Chem. 106, 9595 (2002)
         Sc-Zn : Obtained from the ccRepo (grant-hill.group.shef.ac.uk/ccrepo) Feb. 2017
                 N. B. Balabanov, K. A. Peterson, J. Chem. Phys. 123, 064107 (2005)
                 N. B. Balabanov, K. A. Peterson, J. Chem. Phys. 125, 074110 (2006)
         Ga-Kr : Obtained from the ccRepo (grant-hill.group.shef.ac.uk/ccrepo) Feb. 2017
                 A. K. Wilson, D. E. Woon, K. A. Peterson, T. H. Dunning, Jr., J. Chem. Phys. 110, 7667 (1999)
             Y : Obtained from the ccRepo (grant-hill.group.shef.ac.uk/ccrepo) Feb. 2017
                 K. A. Peterson, D. Figgen, M. Dolg, H. Stoll, J. Chem. Phys. 126, 124101 (2007)
        Ag, Au : Obtained from the Peterson Research Group Website (tyr0.chem.wsu.edu/~kipeters) Feb. 2017
                 K. A. Peterson, C. Puzzarini, Theor. Chem. Acc. 114, 283 (2005)

----- AuxC basis set information -----
Your calculation utilizes the auxiliary basis: cc-pVTZ/C 
  Obtained from the EMSL Basis Set Exchange (bse.pnl.gov) Feb. 2017
  H-He, B-F, Al-Ar, Ga-Kr : F. Weigend, A. Kohn, C. Hattig, J. Chem. Phys. 116, 3175 (2002)
             Li-Be, Na-Mg : C. Haettig, Phys. Chem. Chem. Phys. 7, 59 (2005)
                       Ne : C. Haettig, Phys. Chem. Chem. Phys. 7, 59 (2005)
                            F. Weigend, A. Kohn, C. Hattig, J. Chem. Phys. 116, 3175 (2002)
                    Sc-Zn : J. G. Hill, J. A. Platts, J. Chem. Phys. 128, 044104 (2008)

----- AuxJK basis set information -----
Your calculation utilizes the auxiliary basis: cc-pVTZ/JK 
  H, B-F, Al-Cl, Ga-Br : Obtained from the TURBOMOLE 7.0 basis set library

================================================================================
                                        WARNINGS
                       Please study these warnings very carefully!
================================================================================


WARNING: MDCI localization with Augmented Hessian Foster-Boys
  ===> : Switching off randomization!

WARNING: Post HF methods need fully converged wavefunctions
  ===> : Setting SCFConvForced true
         You can overwrite this default with %scf ConvForced false 


INFO   : the flag for use of LIBINT has been found!

================================================================================
                                       INPUT FILE
================================================================================
NAME = propen_3_ol_syn_a.inp
|  1> ! RHF DLPNO-CCSD(T) cc-pVTZ RIJK cc-pVTZ/JK cc-pVTZ/C
|  2> ! KDIIS SOSCF TightSCF TightPNO
|  3> 
|  4> %pal nprocs 8 end
|  5> 
|  6> %maxcore 8000
|  7> 
|  8> %scf maxiter 300
|  9>      shift shift 0.2 erroff 0.1 end
| 10> end
| 11> 
| 12> * xyzfile 0 1 propen_3_ol_syn_a.xyz 
| 13> 
| 14> 
| 15>                          ****END OF INPUT****
================================================================================

                       ****************************
                       * Single Point Calculation *
                       ****************************

---------------------------------
CARTESIAN COORDINATES (ANGSTROEM)
---------------------------------
  C     -1.516830   -0.531790    0.000010
  C     -0.782550    0.582530   -0.000020
  C      0.717030    0.634920    0.000020
  O      1.259850   -0.680820   -0.000040
  H     -2.601690   -0.486590    0.000000
  H     -1.051350   -1.511870    0.000060
  H     -1.266850    1.558970   -0.000060
  H      1.056220    1.197540   -0.885920
  H      1.056180    1.197440    0.886050
  H      2.222780   -0.622840    0.000130

----------------------------
CARTESIAN COORDINATES (A.U.)
----------------------------
  NO LB      ZA    FRAG     MASS         X           Y           Z
   0 C     6.0000    0    12.011   -2.866393   -1.004937    0.000019
   1 C     6.0000    0    12.011   -1.478805    1.100822   -0.000038
   2 C     6.0000    0    12.011    1.354990    1.199825    0.000038
   3 O     8.0000    0    15.999    2.380771   -1.286563   -0.000076
   4 H     1.0000    0     1.008   -4.916482   -0.919522    0.000000
   5 H     1.0000    0     1.008   -1.986764   -2.857020    0.000113
   6 H     1.0000    0     1.008   -2.394000    2.946026   -0.000113
   7 H     1.0000    0     1.008    1.995967    2.263023   -1.674146
   8 H     1.0000    0     1.008    1.995891    2.262834    1.674392
   9 H     1.0000    0     1.008    4.200445   -1.176997    0.000246

--------------------------------
INTERNAL COORDINATES (ANGSTROEM)
--------------------------------
 C      0   0   0     0.000000000000     0.00000000     0.00000000
 C      1   0   0     1.334494728989     0.00000000     0.00000000
 C      2   1   0     1.500494881731   125.38374020     0.00000000
 O      3   2   1     1.423314899662   110.41812485     0.00000000
 H      1   2   3     1.085801206345   120.99703075   179.99860120
 H      1   2   3     1.085001584930   121.21220548     0.00000000
 H      2   1   3     1.089945670756   120.23641614   180.00110517
 H      3   2   1     1.102941886094   108.97367293   121.85505162
 H      3   2   1     1.102950875515   108.97371946   238.15693047
 H      4   3   2     0.964673983375   108.97328461   180.00897855

---------------------------
INTERNAL COORDINATES (A.U.)
---------------------------
 C      0   0   0     0.000000000000     0.00000000     0.00000000
 C      1   0   0     2.521829564951     0.00000000     0.00000000
 C      2   1   0     2.835524391822   125.38374020     0.00000000
 O      3   2   1     2.689675362691   110.41812485     0.00000000
 H      1   2   3     2.051866915873   120.99703075   179.99860120
 H      1   2   3     2.050355850388   121.21220548     0.00000000
 H      2   1   3     2.059698818582   120.23641614   180.00110517
 H      3   2   1     2.084258106348   108.97367293   121.85505162
 H      3   2   1     2.084275093893   108.97371946   238.15693047
 H      4   3   2     1.822969637097   108.97328461   180.00897855

---------------------
BASIS SET INFORMATION
---------------------
There are 3 groups of distinct atoms

 Group   1 Type C   : 18s5p2d1f contracted to 4s3p2d1f pattern {8811/311/11/1}
 Group   2 Type O   : 18s5p2d1f contracted to 4s3p2d1f pattern {8811/311/11/1}
 Group   3 Type H   : 5s2p1d contracted to 3s2p1d pattern {311/11/1}

Atom   0C    basis set group =>   1
Atom   1C    basis set group =>   1
Atom   2C    basis set group =>   1
Atom   3O    basis set group =>   2
Atom   4H    basis set group =>   3
Atom   5H    basis set group =>   3
Atom   6H    basis set group =>   3
Atom   7H    basis set group =>   3
Atom   8H    basis set group =>   3
Atom   9H    basis set group =>   3
-------------------------------
AUXILIARY BASIS SET INFORMATION
-------------------------------
There are 3 groups of distinct atoms

 Group   1 Type C   : 8s6p5d3f1g contracted to 8s6p5d3f1g pattern {11111111/111111/11111/111/1}
 Group   2 Type O   : 8s6p5d3f1g contracted to 8s6p5d3f1g pattern {11111111/111111/11111/111/1}
 Group   3 Type H   : 4s3p2d1f contracted to 4s3p2d1f pattern {1111/111/11/1}

Atom   0C    basis set group =>   1
Atom   1C    basis set group =>   1
Atom   2C    basis set group =>   1
Atom   3O    basis set group =>   2
Atom   4H    basis set group =>   3
Atom   5H    basis set group =>   3
Atom   6H    basis set group =>   3
Atom   7H    basis set group =>   3
Atom   8H    basis set group =>   3
Atom   9H    basis set group =>   3
-------------------------------
AUXILIARY BASIS SET INFORMATION
-------------------------------
There are 3 groups of distinct atoms

 Group   1 Type C   : 10s7p5d2f1g contracted to 10s7p5d2f1g pattern {1111111111/1111111/11111/11/1}
 Group   2 Type O   : 10s7p5d2f1g contracted to 10s7p5d2f1g pattern {1111111111/1111111/11111/11/1}
 Group   3 Type H   : 4s3p2d1f contracted to 4s3p2d1f pattern {1111/111/11/1}

Atom   0C    basis set group =>   1
Atom   1C    basis set group =>   1
Atom   2C    basis set group =>   1
Atom   3O    basis set group =>   2
Atom   4H    basis set group =>   3
Atom   5H    basis set group =>   3
Atom   6H    basis set group =>   3
Atom   7H    basis set group =>   3
Atom   8H    basis set group =>   3
Atom   9H    basis set group =>   3


           ************************************************************
           *        Program running with 8 parallel MPI-processes     *
           *              working on a common directory               *
           ************************************************************
------------------------------------------------------------------------------
                           ORCA GTO INTEGRAL CALCULATION
                           -- RI-GTO INTEGRALS CHOSEN --
------------------------------------------------------------------------------

                         BASIS SET STATISTICS AND STARTUP INFO

Gaussian basis set:
 # of primitive gaussian shells          ...  152
 # of primitive gaussian functions       ...  296
 # of contracted shells                  ...   76
 # of contracted basis functions         ...  204
 Highest angular momentum                ...    3
 Maximum contraction depth               ...    8
Auxiliary gaussian basis set:
 # of primitive gaussian shells          ...  160
 # of primitive gaussian functions       ...  496
 # of contracted shells                  ...  160
 # of contracted aux-basis functions     ...  496
 Highest angular momentum                ...    4
 Maximum contraction depth               ...    1
Ratio of auxiliary to basis functions    ...  2.43
Integral package used                  ... LIBINT
 One Electron integrals                  ... done
 Ordering auxiliary basis shells         ... done
 Integral threshhold             Thresh  ...  2.500e-11
 Primitive cut-off               TCut    ...  2.500e-12
 Pre-screening matrix                    ... done
 Shell pair data                         ... 
 Ordering of the shell pairs             ... done (   0.001 sec) 2870 of 2926 pairs
 Determination of significant pairs      ... done (   0.000 sec)
 Creation of shell pair data             ... done (   0.001 sec)
 Storage of shell pair data              ... done (   0.007 sec)
 Shell pair data done in (   0.008 sec)
 Computing two index integrals           ... done
 Cholesky decomposition of the V-matrix  ... done


Timings:
 Total evaluation time                   ...   0.317 sec (  0.005 min)
 One electron matrix time                ...   0.027 sec (  0.000 min) =  8.5%
 Schwartz matrix evaluation time         ...   0.172 sec (  0.003 min) = 54.3%
 Two index repulsion integral time       ...   0.049 sec (  0.001 min) = 15.4%
 Cholesky decomposition of V             ...   0.034 sec (  0.001 min) = 10.7%
 Three index repulsion integral time     ...   0.000 sec (  0.000 min) =  0.0%



           ************************************************************
           *        Program running with 8 parallel MPI-processes     *
           *              working on a common directory               *
           ************************************************************
-------------------------------------------------------------------------------
                                 ORCA SCF
-------------------------------------------------------------------------------

------------
SCF SETTINGS
------------
Hamiltonian:
 Ab initio Hamiltonian  Method          .... Hartree-Fock(GTOs)
 RI-approximation to the Coulomb term is turned on
   Number of auxiliary basis functions  .... 496
   RI-JK (J+K treated both via RI)      .... on


General Settings:
 Integral files         IntName         .... propen_3_ol_syn_a
 Hartree-Fock type      HFTyp           .... RHF
 Total Charge           Charge          ....    0
 Multiplicity           Mult            ....    1
 Number of Electrons    NEL             ....   32
 Basis Dimension        Dim             ....  204
 Nuclear Repulsion      ENuc            ....    118.3336095147 Eh

Convergence Acceleration:
 DIIS                   CNVDIIS         .... off
 Newton-Raphson         CNVNR           .... off
 SOSCF                  CNVSOSCF        .... on
   Start iteration      SOSCFMaxIt      ....   150
   Startup grad/error   SOSCFStart      ....  0.003300
 Level Shifting         CNVShift        .... on
   Level shift para.    LevelShift      ....    0.2000
   Turn off err/grad.   ShiftErr        ....    0.1000
 Zerner damping         CNVZerner       .... off
 Static damping         CNVDamp         .... off
 Fernandez-Rico         CNVRico         .... off

SCF Procedure:
 Maximum # iterations   MaxIter         ....   300
 SCF integral mode      SCFMode         .... Direct
   Integral package                     .... LIBINT
 Reset frequency        DirectResetFreq ....    20
 Integral Threshold     Thresh          ....  2.500e-11 Eh
 Primitive CutOff       TCut            ....  2.500e-12 Eh

Convergence Tolerance:
 Convergence Check Mode ConvCheckMode   .... Total+1el-Energy
 Convergence forced     ConvForced      .... 1
 Energy Change          TolE            ....  1.000e-08 Eh
 1-El. energy change                    ....  1.000e-05 Eh
 Orbital Gradient       TolG            ....  1.000e-05
 Orbital Rotation angle TolX            ....  1.000e-05


Diagonalization of the overlap matrix:
Smallest eigenvalue                        ... 5.158e-04
Time for diagonalization                   ...    0.011 sec
Threshold for overlap eigenvalues          ... 1.000e-08
Number of eigenvalues below threshold      ... 0
Time for construction of square roots      ...    0.007 sec
Total time needed                          ...    0.018 sec

-------------------
DFT GRID GENERATION
-------------------

General Integration Accuracy     IntAcc      ...  4.340
Radial Grid Type                 RadialGrid  ... Gauss-Chebyshev
Angular Grid (max. acc.)         AngularGrid ... Lebedev-110
Angular grid pruning method      GridPruning ... 3 (G Style)
Weight generation scheme         WeightScheme... Becke
Basis function cutoff            BFCut       ...    1.0000e-11
Integration weight cutoff        WCut        ...    1.0000e-14
Grids for H and He will be reduced by one unit

# of grid points (after initial pruning)     ...  11448 (   0.0 sec)
# of grid points (after weights+screening)   ...  10896 (   0.0 sec)
nearest neighbour list constructed           ...    0.0 sec
Grid point re-assignment to atoms done       ...    0.0 sec
Grid point division into batches done        ...    0.0 sec
Reduced shell lists constructed in    0.0 sec

Total number of grid points                  ...    10896
Total number of batches                      ...      175
Average number of points per batch           ...       62
Average number of grid points per atom       ...     1090
Average number of shells per batch           ...    65.96 (86.78%)
Average number of basis functions per batch  ...   175.09 (85.83%)
Average number of large shells per batch     ...    56.78 (86.09%)
Average number of large basis fcns per batch ...   149.74 (85.52%)
Average number of aux-shells per batch       ...    65.96 (41.22%)
Average number of aux functions per batch    ...   175.09 (35.30%)
Maximum spatial batch extension              ...   3.13,  2.95,  7.47 au
Average spatial batch extension              ...   0.22,  0.22,  0.27 au

Time for grid setup =    0.057 sec

------------------------------
INITIAL GUESS: MODEL POTENTIAL
------------------------------
Loading Hartree-Fock densities                     ... done
Calculating cut-offs                               ... done
Setting up the integral package                    ... done
Initializing the effective Hamiltonian             ... done
Starting the Coulomb interaction                   ... done (   0.0 sec)
Reading the grid                                   ... done
Mapping shells                                     ... done
Starting the XC term evaluation                    ... done (   0.0 sec)
Transforming the Hamiltonian                       ... done (   0.0 sec)
Diagonalizing the Hamiltonian                      ... done (   0.0 sec)
Back transforming the eigenvectors                 ... done (   0.0 sec)
Now organizing SCF variables                       ... done
                      ------------------
                      INITIAL GUESS DONE (   0.2 sec)
                      ------------------
--------------
SCF ITERATIONS
--------------
ITER       Energy         Delta-E        Max-DP      RMS-DP      [F,P]   Gradient Norm
                             ****Turning on KDIIS(Cayley)****
  0   -191.7718218036   0.000000000000 0.01123884  0.00034915  0.1498952   0.157428406
  1   -191.8351214892  -0.063299685601 0.01789572  0.00037796  0.1384343   0.136022308
  2   -191.8881908709  -0.053069381701 0.02943436  0.00063433  0.1107291   0.110667659
  3   -191.9531479851  -0.064957114270 0.04470393  0.00101351  0.0671934   0.067974009
                      *** Initiating the SOSCF procedure ***
                           *** Shutting down KDIIS ***
                      *** Re-Reading the Fockian *** 
                      *** Removing any level shift *** 
ITER      Energy       Delta-E        Grad      Rot      Max-DP    RMS-DP
  4   -191.99519252  -0.0420445306  0.002982  0.002982  0.003580  0.000098
  5   -191.99541863  -0.0002261131  0.000741  0.001183  0.001600  0.000039
  6   -191.99543044  -0.0000118102  0.000381  0.000479  0.000602  0.000018
  7   -191.99543469  -0.0000042497  0.000081  0.000181  0.000232  0.000006
  8   -191.99543487  -0.0000001772  0.000050  0.000060  0.000064  0.000002
  9   -191.99543492  -0.0000000560  0.000020  0.000047  0.000036  0.000001
 10   -191.99543493  -0.0000000056  0.000005  0.000017  0.000026  0.000000
                  ***Gradient check signals convergence***
              ***Rediagonalizing the Fockian in SOSCF/NRSCF***

               *****************************************************
               *                     SUCCESS                       *
               *           SCF CONVERGED AFTER  11 CYCLES          *
               *****************************************************


----------------
TOTAL SCF ENERGY
----------------

Total Energy       :         -191.99543493 Eh           -5224.46139 eV

Components:
Nuclear Repulsion  :          118.33360951 Eh            3220.02122 eV
Electronic Energy  :         -310.32904444 Eh           -8444.48261 eV
One Electron Energy:         -495.19961486 Eh          -13475.06658 eV
Two Electron Energy:          184.87057042 Eh            5030.58397 eV

Virial components:
Potential Energy   :         -383.65699906 Eh          -10439.83770 eV
Kinetic Energy     :          191.66156413 Eh            5215.37630 eV
Virial Ratio       :            2.00174198


---------------
SCF CONVERGENCE
---------------

  Last Energy change         ...   -1.2910e-09  Tolerance :   1.0000e-08
  Last MAX-Density change    ...    5.0133e-06  Tolerance :   1.0000e-07
  Last RMS-Density change    ...    1.5769e-07  Tolerance :   5.0000e-09
  Last Orbital Gradient      ...    2.4897e-06  Tolerance :   1.0000e-05
  Last Orbital Rotation      ...    3.3812e-06  Tolerance :   1.0000e-05

             **** THE GBW FILE WAS UPDATED (propen_3_ol_syn_a.gbw) ****
             **** DENSITY FILE WAS UPDATED (propen_3_ol_syn_a.scfp.tmp) ****
             **** ENERGY FILE WAS UPDATED (propen_3_ol_syn_a.en.tmp) ****
----------------
ORBITAL ENERGIES
----------------

  NO   OCC          E(Eh)            E(eV) 
   0   2.0000     -20.557163      -559.3888 
   1   2.0000     -11.284875      -307.0771 
   2   2.0000     -11.230860      -305.6072 
   3   2.0000     -11.215485      -305.1889 
   4   2.0000      -1.359320       -36.9890 
   5   2.0000      -1.052380       -28.6367 
   6   2.0000      -0.920327       -25.0434 
   7   2.0000      -0.751129       -20.4393 
   8   2.0000      -0.704692       -19.1757 
   9   2.0000      -0.631626       -17.1874 
  10   2.0000      -0.611049       -16.6275 
  11   2.0000      -0.590066       -16.0565 
  12   2.0000      -0.514823       -14.0091 
  13   2.0000      -0.489573       -13.3220 
  14   2.0000      -0.459321       -12.4988 
  15   2.0000      -0.356562        -9.7025 
  16   0.0000       0.134328         3.6552 
  17   0.0000       0.165622         4.5068 
  18   0.0000       0.171947         4.6789 
  19   0.0000       0.185045         5.0353 
  20   0.0000       0.212280         5.7764 
  21   0.0000       0.213655         5.8138 
  22   0.0000       0.237189         6.4543 
  23   0.0000       0.310082         8.4378 
  24   0.0000       0.337039         9.1713 
  25   0.0000       0.378799        10.3077 
  26   0.0000       0.423968        11.5368 
  27   0.0000       0.459248        12.4968 
  28   0.0000       0.482541        13.1306 
  29   0.0000       0.492802        13.4098 
  30   0.0000       0.529498        14.4084 
  31   0.0000       0.546402        14.8683 
  32   0.0000       0.588434        16.0121 
  33   0.0000       0.594934        16.1890 
  34   0.0000       0.600036        16.3278 
  35   0.0000       0.614573        16.7234 
  36   0.0000       0.614920        16.7328 
  37   0.0000       0.643364        17.5068 
  38   0.0000       0.666008        18.1230 
  39   0.0000       0.679929        18.5018 
  40   0.0000       0.727065        19.7844 
  41   0.0000       0.743924        20.2432 
  42   0.0000       0.769135        20.9292 
  43   0.0000       0.804258        21.8850 
  44   0.0000       0.819095        22.2887 
  45   0.0000       0.828236        22.5375 
  46   0.0000       0.848417        23.0866 
  47   0.0000       0.877437        23.8763 
  48   0.0000       0.910216        24.7682 
  49   0.0000       0.922428        25.1005 
  50   0.0000       0.944471        25.7004 
  51   0.0000       0.991374        26.9767 
  52   0.0000       1.095222        29.8025 
  53   0.0000       1.110085        30.2070 
  54   0.0000       1.173133        31.9226 
  55   0.0000       1.178539        32.0697 
  56   0.0000       1.182702        32.1830 
  57   0.0000       1.230835        33.4927 
  58   0.0000       1.246354        33.9150 
  59   0.0000       1.264803        34.4170 
  60   0.0000       1.287574        35.0367 
  61   0.0000       1.299957        35.3736 
  62   0.0000       1.336891        36.3787 
  63   0.0000       1.364636        37.1336 
  64   0.0000       1.387019        37.7427 
  65   0.0000       1.415646        38.5217 
  66   0.0000       1.447909        39.3996 
  67   0.0000       1.463214        39.8161 
  68   0.0000       1.496792        40.7298 
  69   0.0000       1.514196        41.2034 
  70   0.0000       1.539194        41.8836 
  71   0.0000       1.563708        42.5507 
  72   0.0000       1.596005        43.4295 
  73   0.0000       1.647177        44.8220 
  74   0.0000       1.672011        45.4977 
  75   0.0000       1.688236        45.9392 
  76   0.0000       1.743651        47.4472 
  77   0.0000       1.783666        48.5360 
  78   0.0000       1.842068        50.1252 
  79   0.0000       1.900646        51.7192 
  80   0.0000       2.096338        57.0443 
  81   0.0000       2.102118        57.2016 
  82   0.0000       2.250716        61.2451 
  83   0.0000       2.296071        62.4793 
  84   0.0000       2.382087        64.8199 
  85   0.0000       2.396932        65.2238 
  86   0.0000       2.412574        65.6495 
  87   0.0000       2.484540        67.6078 
  88   0.0000       2.569698        69.9250 
  89   0.0000       2.580949        70.2312 
  90   0.0000       2.592961        70.5581 
  91   0.0000       2.612296        71.0842 
  92   0.0000       2.692397        73.2639 
  93   0.0000       2.742168        74.6182 
  94   0.0000       2.818333        76.6907 
  95   0.0000       2.819903        76.7335 
  96   0.0000       2.860577        77.8403 
  97   0.0000       2.936834        79.9153 
  98   0.0000       2.952374        80.3382 
  99   0.0000       3.043095        82.8068 
 100   0.0000       3.052679        83.0676 
 101   0.0000       3.091271        84.1177 
 102   0.0000       3.091924        84.1355 
 103   0.0000       3.152409        85.7814 
 104   0.0000       3.180710        86.5515 
 105   0.0000       3.196801        86.9894 
 106   0.0000       3.226863        87.8074 
 107   0.0000       3.230672        87.9111 
 108   0.0000       3.240398        88.1757 
 109   0.0000       3.258892        88.6790 
 110   0.0000       3.275699        89.1363 
 111   0.0000       3.299559        89.7856 
 112   0.0000       3.324802        90.4725 
 113   0.0000       3.351033        91.1862 
 114   0.0000       3.392116        92.3042 
 115   0.0000       3.429710        93.3272 
 116   0.0000       3.441058        93.6359 
 117   0.0000       3.455081        94.0175 
 118   0.0000       3.456857        94.0659 
 119   0.0000       3.500284        95.2476 
 120   0.0000       3.527571        95.9901 
 121   0.0000       3.549201        96.5787 
 122   0.0000       3.565683        97.0272 
 123   0.0000       3.664119        99.7058 
 124   0.0000       3.669940        99.8641 
 125   0.0000       3.705206       100.8238 
 126   0.0000       3.711143       100.9853 
 127   0.0000       3.714847       101.0861 
 128   0.0000       3.761666       102.3601 
 129   0.0000       3.830275       104.2271 
 130   0.0000       3.836998       104.4100 
 131   0.0000       3.867596       105.2426 
 132   0.0000       3.904776       106.2544 
 133   0.0000       3.926284       106.8396 
 134   0.0000       3.946753       107.3966 
 135   0.0000       3.974418       108.1494 
 136   0.0000       3.996362       108.7465 
 137   0.0000       4.029499       109.6483 
 138   0.0000       4.035959       109.8240 
 139   0.0000       4.080251       111.0293 
 140   0.0000       4.163884       113.3050 
 141   0.0000       4.169149       113.4483 
 142   0.0000       4.178377       113.6994 
 143   0.0000       4.194694       114.1434 
 144   0.0000       4.196217       114.1849 
 145   0.0000       4.257576       115.8545 
 146   0.0000       4.270208       116.1983 
 147   0.0000       4.281679       116.5104 
 148   0.0000       4.328290       117.7787 
 149   0.0000       4.349419       118.3537 
 150   0.0000       4.415951       120.1641 
 151   0.0000       4.427579       120.4805 
 152   0.0000       4.440695       120.8374 
 153   0.0000       4.470228       121.6411 
 154   0.0000       4.500803       122.4731 
 155   0.0000       4.519518       122.9823 
 156   0.0000       4.575726       124.5118 
 157   0.0000       4.653142       126.6184 
 158   0.0000       4.653187       126.6197 
 159   0.0000       4.751588       129.2973 
 160   0.0000       4.795496       130.4921 
 161   0.0000       4.800073       130.6166 
 162   0.0000       4.852846       132.0526 
 163   0.0000       4.887732       133.0019 
 164   0.0000       4.964197       135.0827 
 165   0.0000       5.057506       137.6217 
 166   0.0000       5.070109       137.9647 
 167   0.0000       5.104050       138.8883 
 168   0.0000       5.111382       139.0878 
 169   0.0000       5.129592       139.5833 
 170   0.0000       5.254587       142.9846 
 171   0.0000       5.265890       143.2921 
 172   0.0000       5.290327       143.9571 
 173   0.0000       5.355296       145.7250 
 174   0.0000       5.364591       145.9780 
 175   0.0000       5.385153       146.5375 
 176   0.0000       5.424407       147.6056 
 177   0.0000       5.510509       149.9486 
 178   0.0000       5.580037       151.8405 
 179   0.0000       5.584026       151.9491 
 180   0.0000       5.674968       154.4237 
 181   0.0000       5.775779       157.1669 
 182   0.0000       5.810374       158.1083 
 183   0.0000       5.961357       162.2168 
 184   0.0000       6.011549       163.5826 
 185   0.0000       6.233631       169.6257 
 186   0.0000       6.260563       170.3586 
 187   0.0000       6.278348       170.8425 
 188   0.0000       6.323261       172.0647 
 189   0.0000       6.408881       174.3945 
 190   0.0000       6.573642       178.8779 
 191   0.0000       6.702004       182.3708 
 192   0.0000       6.989163       190.1848 
 193   0.0000       7.128770       193.9837 
 194   0.0000       7.178925       195.3485 
 195   0.0000       7.278206       198.0500 
 196   0.0000       7.393012       201.1741 
 197   0.0000       7.476327       203.4412 
 198   0.0000       7.658025       208.3855 
 199   0.0000       7.938880       216.0279 
 200   0.0000      11.526779       313.6596 
 201   0.0000      12.525637       340.8399 
 202   0.0000      13.390505       364.3742 
 203   0.0000      14.638013       398.3206 

                    ********************************
                    * MULLIKEN POPULATION ANALYSIS *
                    ********************************

-----------------------
MULLIKEN ATOMIC CHARGES
-----------------------
   0 C :   -0.329165
   1 C :   -0.167329
   2 C :    0.127282
   3 O :   -0.398077
   4 H :    0.137693
   5 H :    0.157009
   6 H :    0.148155
   7 H :    0.053489
   8 H :    0.053484
   9 H :    0.217459
Sum of atomic charges:   -0.0000000

--------------------------------
MULLIKEN REDUCED ORBITAL CHARGES
--------------------------------
  0 C s       :     3.327039  s :     3.327039
      pz      :     0.971100  p :     2.911994
      px      :     0.975111
      py      :     0.965784
      dz2     :     0.008008  d :     0.083347
      dxz     :     0.005578
      dyz     :     0.014744
      dx2y2   :     0.038220
      dxy     :     0.016797
      f0      :     0.001011  f :     0.006785
      f+1     :     0.000623
      f-1     :     0.000547
      f+2     :     0.000148
      f-2     :     0.000807
      f+3     :     0.002232
      f-3     :     0.001417
  1 C s       :     3.225113  s :     3.225113
      pz      :     0.963696  p :     2.837563
      px      :     0.891833
      py      :     0.982033
      dz2     :     0.005413  d :     0.095917
      dxz     :     0.020104
      dyz     :     0.016183
      dx2y2   :     0.037626
      dxy     :     0.016592
      f0      :     0.001302  f :     0.008736
      f+1     :     0.000922
      f-1     :     0.000693
      f+2     :     0.000570
      f-2     :     0.000817
      f+3     :     0.002529
      f-3     :     0.001903
  2 C s       :     3.155091  s :     3.155091
      pz      :     0.949568  p :     2.574011
      px      :     0.889906
      py      :     0.734537
      dz2     :     0.016529  d :     0.132212
      dxz     :     0.024445
      dyz     :     0.024425
      dx2y2   :     0.035865
      dxy     :     0.030947
      f0      :     0.001406  f :     0.011404
      f+1     :     0.001061
      f-1     :     0.001895
      f+2     :     0.001446
      f-2     :     0.000568
      f+3     :     0.002431
      f-3     :     0.002597
  3 O s       :     3.755199  s :     3.755199
      pz      :     1.896487  p :     4.614988
      px      :     1.268044
      py      :     1.450457
      dz2     :     0.004131  d :     0.026451
      dxz     :     0.000679
      dyz     :     0.003197
      dx2y2   :     0.013659
      dxy     :     0.004786
      f0      :     0.000157  f :     0.001439
      f+1     :     0.000323
      f-1     :     0.000307
      f+2     :     0.000072
      f-2     :     0.000041
      f+3     :     0.000389
      f-3     :     0.000150
  4 H s       :     0.835829  s :     0.835829
      pz      :     0.010082  p :     0.024410
      px      :     0.008230
      py      :     0.006098
      dz2     :     0.000157  d :     0.002068
      dxz     :     0.000617
      dyz     :     0.000007
      dx2y2   :     0.000522
      dxy     :     0.000764
  5 H s       :     0.815583  s :     0.815583
      pz      :     0.009162  p :     0.025188
      px      :     0.010079
      py      :     0.005948
      dz2     :     0.000162  d :     0.002221
      dxz     :     0.000058
      dyz     :     0.000580
      dx2y2   :     0.000628
      dxy     :     0.000793
  6 H s       :     0.824038  s :     0.824038
      pz      :     0.009720  p :     0.025523
      px      :     0.010449
      py      :     0.005353
      dz2     :     0.000180  d :     0.002284
      dxz     :     0.000057
      dyz     :     0.000554
      dx2y2   :     0.000667
      dxy     :     0.000826
  7 H s       :     0.917201  s :     0.917201
      pz      :     0.009475  p :     0.026916
      px      :     0.009589
      py      :     0.007852
      dz2     :     0.000588  d :     0.002394
      dxz     :     0.000533
      dyz     :     0.000706
      dx2y2   :     0.000291
      dxy     :     0.000276
  8 H s       :     0.917206  s :     0.917206
      pz      :     0.009476  p :     0.026916
      px      :     0.009589
      py      :     0.007851
      dz2     :     0.000588  d :     0.002394
      dxz     :     0.000534
      dyz     :     0.000706
      dx2y2   :     0.000291
      dxy     :     0.000276
  9 H s       :     0.694236  s :     0.694236
      pz      :     0.034071  p :     0.080740
      px      :     0.026997
      py      :     0.019673
      dz2     :     0.000538  d :     0.007565
      dxz     :     0.003259
      dyz     :     0.000054
      dx2y2   :     0.001697
      dxy     :     0.002017


                     *******************************
                     * LOEWDIN POPULATION ANALYSIS *
                     *******************************

----------------------
LOEWDIN ATOMIC CHARGES
----------------------
   0 C :    0.085228
   1 C :    0.009225
   2 C :   -0.051906
   3 O :    0.323255
   4 H :   -0.041350
   5 H :   -0.038676
   6 H :   -0.028715
   7 H :   -0.033620
   8 H :   -0.033615
   9 H :   -0.189825

-------------------------------
LOEWDIN REDUCED ORBITAL CHARGES
-------------------------------
  0 C s       :     2.725284  s :     2.725284
      pz      :     0.861442  p :     2.877805
      px      :     0.993863
      py      :     1.022500
      dz2     :     0.019108  d :     0.284063
      dxz     :     0.013096
      dyz     :     0.033134
      dx2y2   :     0.134872
      dxy     :     0.083854
      f0      :     0.000790  f :     0.027620
      f+1     :     0.002448
      f-1     :     0.002755
      f+2     :     0.000774
      f-2     :     0.004265
      f+3     :     0.007542
      f-3     :     0.009046
  1 C s       :     2.721101  s :     2.721101
      pz      :     0.836475  p :     2.826174
      px      :     0.967505
      py      :     1.022194
      dz2     :     0.025986  d :     0.405252
      dxz     :     0.068340
      dyz     :     0.038352
      dx2y2   :     0.152616
      dxy     :     0.119957
      f0      :     0.002379  f :     0.038248
      f+1     :     0.003283
      f-1     :     0.002998
      f+2     :     0.004463
      f-2     :     0.003736
      f+3     :     0.008537
      f-3     :     0.012852
  2 C s       :     2.680164  s :     2.680164
      pz      :     0.994995  p :     2.721975
      px      :     0.936565
      py      :     0.790415
      dz2     :     0.068380  d :     0.574092
      dxz     :     0.074444
      dyz     :     0.160075
      dx2y2   :     0.155458
      dxy     :     0.115736
      f0      :     0.008258  f :     0.075675
      f+1     :     0.005967
      f-1     :     0.009002
      f+2     :     0.008669
      f-2     :     0.010152
      f+3     :     0.014154
      f-3     :     0.019472
  3 O s       :     3.208009  s :     3.208009
      pz      :     1.698819  p :     4.396895
      px      :     1.293411
      py      :     1.404665
      dz2     :     0.008271  d :     0.067563
      dxz     :     0.001364
      dyz     :     0.010664
      dx2y2   :     0.030683
      dxy     :     0.016581
      f0      :     0.000517  f :     0.004277
      f+1     :     0.000446
      f-1     :     0.000253
      f+2     :     0.000410
      f-2     :     0.000193
      f+3     :     0.001165
      f-3     :     0.001293
  4 H s       :     0.858008  s :     0.858008
      pz      :     0.043454  p :     0.156655
      px      :     0.077675
      py      :     0.035527
      dz2     :     0.002347  d :     0.026687
      dxz     :     0.007841
      dyz     :     0.000007
      dx2y2   :     0.007534
      dxy     :     0.008958
  5 H s       :     0.852492  s :     0.852492
      pz      :     0.042105  p :     0.159119
      px      :     0.047547
      py      :     0.069466
      dz2     :     0.002401  d :     0.027065
      dxz     :     0.001105
      dyz     :     0.006778
      dx2y2   :     0.008679
      dxy     :     0.008102
  6 H s       :     0.847594  s :     0.847594
      pz      :     0.041342  p :     0.154158
      px      :     0.044885
      py      :     0.067931
      dz2     :     0.002372  d :     0.026963
      dxz     :     0.001142
      dyz     :     0.006586
      dx2y2   :     0.008435
      dxy     :     0.008427
  7 H s       :     0.862069  s :     0.862069
      pz      :     0.064424  p :     0.144924
      px      :     0.040757
      py      :     0.039743
      dz2     :     0.008420  d :     0.026626
      dxz     :     0.005416
      dyz     :     0.006813
      dx2y2   :     0.002987
      dxy     :     0.002989
  8 H s       :     0.862069  s :     0.862069
      pz      :     0.064428  p :     0.144921
      px      :     0.040755
      py      :     0.039738
      dz2     :     0.008420  d :     0.026625
      dxz     :     0.005417
      dyz     :     0.006814
      dx2y2   :     0.002986
      dxy     :     0.002988
  9 H s       :     0.723286  s :     0.723286
      pz      :     0.112514  p :     0.365406
      px      :     0.169281
      py      :     0.083611
      dz2     :     0.008002  d :     0.101133
      dxz     :     0.038474
      dyz     :     0.000177
      dx2y2   :     0.024192
      dxy     :     0.030289


                      *****************************
                      * MAYER POPULATION ANALYSIS *
                      *****************************

  NA   - Mulliken gross atomic population
  ZA   - Total nuclear charge
  QA   - Mulliken gross atomic charge
  VA   - Mayer's total valence
  BVA  - Mayer's bonded valence
  FA   - Mayer's free valence

  ATOM       NA         ZA         QA         VA         BVA        FA
  0 C      6.3292     6.0000    -0.3292     3.8575     3.8575     0.0000
  1 C      6.1673     6.0000    -0.1673     3.7780     3.7780    -0.0000
  2 C      5.8727     6.0000     0.1273     3.9267     3.9267    -0.0000
  3 O      8.3981     8.0000    -0.3981     2.0045     2.0045    -0.0000
  4 H      0.8623     1.0000     0.1377     0.9744     0.9744     0.0000
  5 H      0.8430     1.0000     0.1570     0.9833     0.9833    -0.0000
  6 H      0.8518     1.0000     0.1482     0.9747     0.9747    -0.0000
  7 H      0.9465     1.0000     0.0535     0.9709     0.9709    -0.0000
  8 H      0.9465     1.0000     0.0535     0.9709     0.9709    -0.0000
  9 H      0.7825     1.0000     0.2175     1.0200     1.0200    -0.0000

  Mayer bond orders larger than 0.1
B(  0-C ,  1-C ) :   1.8909 B(  0-C ,  4-H ) :   0.9751 B(  0-C ,  5-H ) :   0.9541 
B(  1-C ,  2-C ) :   0.9682 B(  1-C ,  6-H ) :   0.9610 B(  2-C ,  3-O ) :   1.0056 
B(  2-C ,  7-H ) :   0.9736 B(  2-C ,  8-H ) :   0.9736 B(  3-O ,  9-H ) :   0.9955 


-------
TIMINGS
-------

Total SCF time: 0 days 0 hours 0 min 4 sec 

Total time                  ....       4.372 sec
Sum of individual times     ....       4.175 sec  ( 95.5%)

Fock matrix formation       ....       3.875 sec  ( 88.6%)
Diagonalization             ....       0.026 sec  (  0.6%)
Density matrix formation    ....       0.005 sec  (  0.1%)
Population analysis         ....       0.020 sec  (  0.5%)
Initial guess               ....       0.161 sec  (  3.7%)
Orbital Transformation      ....       0.000 sec  (  0.0%)
Orbital Orthonormalization  ....       0.000 sec  (  0.0%)
DIIS solution               ....       0.000 sec  (  0.0%)
SOSCF solution              ....       0.031 sec  (  0.7%)


           ************************************************************
           *        Program running with 8 parallel MPI-processes     *
           *              working on a common directory               *
           ************************************************************


------------------------------------------------------------------------------- 
                              ORCA-MATRIX DRIVEN CI                            
------------------------------------------------------------------------------- 


Wavefunction type
-----------------
Correlation treatment                      ...      CCSD     
Single excitations                         ... ON
Orbital optimization                       ... OFF
Calculation of Z vector                    ... OFF
Calculation of Brueckner orbitals          ... OFF
Perturbative triple excitations            ... ON
Calculation of F12 correction              ... OFF
Frozen core treatment                      ... chemical core (8 el)
Reference Wavefunction                     ... RHF
  Internal Orbitals:     4 ...   15 ( 12 MO's/ 24 electrons)
  Virtual  Orbitals:    16 ...  203 (188 MO's              )
Number of AO's                             ...    204
Number of electrons                        ...     32
Number of correlated electrons             ...     24

Algorithmic settings
--------------------
Integral transformation                    ... All integrals via the RI transformation
K(C) Formation                             ... RI-DLPNO
   PNO-Integral Storage                    ... ON DISK
   PNO occupation number cut-off           ... 1.000e-07
   Singles PNO occupation number cut-off   ... 3.000e-09
   PNO Mulliken prescreening cut-off       ... 1.000e-03
   Domain cut-off (Mulliken population)    ... 1.000e-03
   PNO Normalization                       ...    1
Maximum number of iterations               ...        50
Convergence tolerance (max. residuum)      ... 1.000e-05
Level shift for amplitude update           ... 2.000e-01
Maximum number of DIIS vectors             ...         7
DIIS turned on at iteration                ...         0
Damping before turning on DIIS             ...     0.500
Damping after turning on DIIS              ...     0.000
Pair specific amplitude update             ... OFF
Natural orbital iterations                 ... OFF
Perturbative natural orbital generation    ... OFF
Printlevel                                 ... 2

Singles Fock matrix elements calculated using PNOs.

Memory handling:
----------------
Maximum memory for working arrays          ...   8000 MB
Data storage in matrix containers          ... UNCOMPRESSED
Data type for integral storage             ... DOUBLE
In-Core Storage of quantities:
   Amplitudes+Sigma Vector      ... NO
   J+K operators                ... NO
   DIIS vectors                 ... NO
   3-external integrals         ... NO
   4-external integrals         ... NO

Localization treatment:
-----------------------
Localization option                        ...    6
Localization threshhold                    ... -1.0e+00
Using relative localization threshhold     ... 1.0e-08
Neglect threshold for strong pairs         ... 1.000e-05 Eh
Prescreening threshold for very weak pairs ... 1.000e-07 Eh

Initializing the integral package          ... done
Localizing the valence orbitals
------------------------------------------------------------------------------
                           ORCA ORBITAL LOCALIZATION
------------------------------------------------------------------------------

Input orbitals are from                  ... propen_3_ol_syn_a.proc0.gbw
Output orbitals are to                   ... propen_3_ol_syn_a.proc0.loc
Max. number of iterations                ... 128
Localizations seeded randomly            ... off
Convergence tolerance                    ... 1.000e-06
Using relative localization threshhold   ... 1.000e-08
Treshold for strong local MOs            ... 9.500e-01
Treshold for bond MOs                    ... 8.500e-01
Operator                                 ... 0
Orbital range for localization           ... 4 to 15
Localization criterion                   ... FOSTER-BOYS (AUGMENTED HESSIAN)
Doing the dipole integrals     ... o.k.
Initial value of the localization sum :    71.658419
ITERATION   0 : L=   96.8857613937 DL=  2.52e+01 (AVERGE_DL)=    0.6182495118 
ITERATION   1 : L=   99.2013178225 DL=  2.32e+00 (AVERGE_DL)=    0.1873077369 
ITERATION   2 : L=   99.2212311572 DL=  1.99e-02 (AVERGE_DL)=    0.0173700084 
ITERATION   3 : L=   99.2216093826 DL=  3.78e-04 (AVERGE_DL)=    0.0023938856 
ITERATION   4 : L=   99.2216475718 DL=  3.82e-05 (AVERGE_DL)=    0.0007606730 
ITERATION   5 : L=   99.2216518752 DL=  4.30e-06 (AVERGE_DL)=    0.0002553508 
ITERATION   6 : L=   99.2216523077 DL=  4.32e-07 (AVERGE_DL)=    0.0000809506 
LOCALIZATION SUM CONVERGED

------------------------------------------------------
AUGMENTED HESSIAN OPTIMIZATION OF FOSTER-BOYS ORBITALS
------------------------------------------------------

Spin operator:           0
Orbital window:          4 to 15
Number of iterations:    128
Gradient tolerance:      1.000e-06
Number of pairs:         66
Davidson threshold:      2000
Diagonalization method:  LAPACK
Iter:    0   L: 99.2216523077   Grad. norm: 6.041170e-04
   *** Likely close to a maximum now. ***
       Augmented Hessian eigenvalues:  9.34e-08 -1.34e+00 -3.50e+00 -5.12e+00 ... 
Iter:    1   L: 99.2216523544   Grad. norm: 4.679483e-08
LOCALIZATION HAS CONVERGED.

Eigenvalues of the Hessian:
  0 -1.336e+00
  1 -3.502e+00
  2 -5.125e+00
  3 -5.510e+00
  4 -5.607e+00
  5 -7.481e+00
  6 -1.034e+01
  7 -1.740e+01
  8 -1.830e+01
  9 -1.921e+01
    ...


------------------------------------------------------------------------------- 
                    LOCALIZED MOLECULAR ORBITAL COMPOSITIONS                   
------------------------------------------------------------------------------- 

The Mulliken populations for each LMO on each atom are computed
The LMO`s will be ordered according to atom index and type
  (A) Strongly localized MO`s have populations of >=0.950 on one atom
  (B) Two center bond orbitals have populations of >=0.850 on two atoms
  (C) Other MO`s are considered to be `delocalized`

FOUND  -   2 strongly local MO`s
       -  10 two center bond MO`s
       -   0 significantly delocalized MO`s

Rather strongly localized orbitals:
MO   5:   3O  -   0.984439
MO   4:   3O  -   0.984440
Bond-like localized orbitals:
MO  15:   9H  -   0.392305  and   3O  -   0.610812
MO  14:   8H  -   0.499235  and   2C  -   0.541148
MO  13:   7H  -   0.499232  and   2C  -   0.541152
MO  12:   6H  -   0.438985  and   1C  -   0.576312
MO  11:   5H  -   0.431192  and   0C  -   0.586632
MO  10:   4H  -   0.445995  and   0C  -   0.584607
MO   9:   3O  -   0.654889  and   2C  -   0.345104
MO   8:   2C  -   0.488483  and   1C  -   0.549056
MO   7:   1C  -   0.511961  and   0C  -   0.504017
MO   6:   1C  -   0.511967  and   0C  -   0.504011
Localized MO's were stored in: propen_3_ol_syn_a.proc0.loc

Localizing the core orbitals
------------------------------------------------------------------------------
                           ORCA ORBITAL LOCALIZATION
------------------------------------------------------------------------------

Input orbitals are from                  ... propen_3_ol_syn_a.proc0.loc
Output orbitals are to                   ... propen_3_ol_syn_a.proc0.loc
Max. number of iterations                ... 128
Localizations seeded randomly            ... off
Convergence tolerance                    ... 1.000e-06
Using relative localization threshhold   ... 1.000e-08
Treshold for strong local MOs            ... 9.500e-01
Treshold for bond MOs                    ... 8.500e-01
Operator                                 ... 0
Orbital range for localization           ... 0 to 3
Localization criterion                   ... FOSTER-BOYS (AUGMENTED HESSIAN)
Doing the dipole integrals     ... o.k.
Initial value of the localization sum :    23.223765
ITERATION   0 : L=   23.2237690876 DL=  4.53e-06 (AVERGE_DL)=    0.0008686190 
ITERATION   1 : L=   23.2237690876 DL=  0.00e+00 (AVERGE_DL)=    0.0000000000 
LOCALIZATION SUM CONVERGED

------------------------------------------------------
AUGMENTED HESSIAN OPTIMIZATION OF FOSTER-BOYS ORBITALS
------------------------------------------------------

Spin operator:           0
Orbital window:          0 to 3
Number of iterations:    128
Gradient tolerance:      1.000e-06
Number of pairs:         6
Davidson threshold:      2000
Diagonalization method:  LAPACK
Iter:    0   L: 23.2237690876   Grad. norm: 2.363413e-05
   *** Likely close to a maximum now. ***
       Augmented Hessian eigenvalues:  1.74e-11 -2.54e+01 -2.89e+01 -3.22e+01 ... 
Iter:    1   L: 23.2237690876   Grad. norm: 5.056339e-17
LOCALIZATION HAS CONVERGED.

Eigenvalues of the Hessian:
  0 -2.544e+01
  1 -2.893e+01
  2 -3.216e+01
  3 -8.238e+01
  4 -9.072e+01
  5 -1.105e+02


------------------------------------------------------------------------------- 
                    LOCALIZED MOLECULAR ORBITAL COMPOSITIONS                   
------------------------------------------------------------------------------- 

The Mulliken populations for each LMO on each atom are computed
The LMO`s will be ordered according to atom index and type
  (A) Strongly localized MO`s have populations of >=0.950 on one atom
  (B) Two center bond orbitals have populations of >=0.850 on two atoms
  (C) Other MO`s are considered to be `delocalized`

FOUND  -   4 strongly local MO`s
       -   0 two center bond MO`s
       -   0 significantly delocalized MO`s

Rather strongly localized orbitals:
MO   3:   3O  -   0.999734
MO   2:   2C  -   1.000982
MO   1:   1C  -   1.000845
MO   0:   0C  -   1.000660
Localized MO's were stored in: propen_3_ol_syn_a.proc0.loc

Warning: internal orbitals are localized - no re-canonicalization of internal orbitals

--------------------------
CLOSED-SHELL FOCK OPERATOR
--------------------------

RI-JK section for the Fock operator:
  RHF full Fock operator         ... done
  RHF frozen core Fock operator  ... done
Time needed for Fock operator              ...            0.726 sec
Reference energy                           ...   -191.995434929

--------------
DLPNO SETTINGS (2015 fully linear scaling implementation)
--------------

TCutMKN:           1.000e-03
TCutPAO:           1.000e-03
TCutPNO:           1.000e-07
TCutPNOSingles:    3.000e-09
TCutEN:            9.700e-01
TCutPAOExt:        1.000e-01
TCutPairs:         1.000e-05
TCutPre:           1.000e-07
TCutOSV:           1.000e-06
TCutDOij:          1.000e-05
TCutDO:            5.000e-03
TCutC:             1.000e-04
TCutCPAO:          1.000e-03
TCutCMO:           1.000e-03
TScaleDOMP2PreScr: 2.000e+00
TScaleMKNMP2PreScr:1.000e+01
TScalePNOMP2PreScr:1.000e+00
PAO overlap thresh 1.000e-08
Using PNOs for Singles Fock computation
Use new domains
Use fully linear algorithm
TCutTNO:           1.000e-09
TCutMP2Pairs:      1.000e-06
TCutDOStrong:      2.000e-03
TCutMKNStrong:     1.000e-02
TCutMKNWeak:       1.000e-01
TCutDOWeak:        4.000e-03
NTCutTNO:          1

--------------------------
Calculating differential overlap integrals ... ok
--------------------------
ELECTRON PAIR PRESCREENING
--------------------------

Dipole-based pair screening          .... used

   TCutDOij = 1.000000e-05
   TCutPre  = 1.000000e-07
   .... Finished loop over pairs
Total time spent in the prescreening                  ...     0.000 sec
sum of pair energies estimated for screened out pairs ...       0.000000000000 Eh
Thresholds for map construction and integral transformation for crude MP2:
   TCutMKN                    ...     1.0e-02
   TCutDO                     ...     1.0e-02
   TCutPairs                  ...     1.0e-05
   TCutPNO_CrudeMP2           ...     1.0e-07
   TCutPNOSingles_CrudeMP2    ...     3.0e-09
--------------------------------
LOCAL RI TRANSFORMATION (IAVPAO)
--------------------------------

Orbital window:       4 to 15
Number of PAOs:     204
Basis functions:    204 (76 shells)
Aux. functions:     504 (152 shells)

Processing maps (0.0 sec)
Average map sizes:
   Aux shells -> MOs              12.0
   Aux shells -> PAOs            204.0
   MOs        -> AO shells        76.0
   PAOs       -> AO shells        76.0

Calculating integrals (0.3 sec, 9.419 MB)
Sorting integrals (0.0 sec, 9.413 MB)
Total time for the integral transformation: 0.4 sec
--------------------------------
INITIAL GUESS AND PNO GENERATION
--------------------------------

PNO truncation parameters                   .... 
    PAOOverlapThresh   =        1.000e-08

    TCutPairs          =        1.000e-05
    TCutPNO            =        1.000e-07
    TCutPNOSingles     =        3.000e-09
    TCutMP2Pairs       =        1.000e-06
    TCutMKN            =        1.000e-02
    TCutDO             =        1.000e-02

Pair selection                          .... not used
Type of local MP2 treatment                 .... semi-local MP2
Strategy for PNO selection                  .... occupation number selection
Pair density normalization                  .... MP2 norm
Spin component scaling                      .... not used

   .... Finished loop over pairs
Making pair pair interaction lists          ... done

                       ===========================
                         78 OF   78 PAIRS ARE KEPT CCSD PAIRS
                          0 OF   78 PAIRS ARE KEPT MP2 PAIRS FOR (T)
                          0 OF   78 PAIRS ARE SKIPPED
                       ===========================

Total time spent in the initial guess                 ...     0.305 sec
SL-MP2 correlation energy (all non-screened pairs)    ...      -0.717814223680 Eh

Initial PNO correlation energy                        ...      -0.717328302224 Eh
sum of pair energies prescreened and skipped MP2 pairs...       0.000000000000 Eh
sum of pair energies of crude MP2 skipped pairs only  ...       0.000000000000 Eh
sum of MP2 pair energies for pairs that were not kept ...       0.000000000000 Eh
sum of PNO error estimates for the kept pairs         ...      -0.000485921456 Eh
                                                          --------------------
sum of all corrections                                         -0.000485921456
Initial total correlation energy                               -0.717814223680
Thresholds for map construction and integral transformation for fine MP2 and CCSD(T) calculation:
   TCutMKN   ...     1.0e-03
   TCutDO    ...     5.0e-03
   TCutPairs ...     1.0e-05
   TCutCMO   ...     1.0e-03
   TCutCPAO  ...     1.0e-03

Thresholds for map construction and integral transformation for strong Triples:
   TCutMKN   ...     1.0e-02
   TCutDO    ...     1.0e-02
   TCutCMO   ...     1.0e-03
   TCutCPAO  ...     1.0e-03

Thresholds for map construction and integral transformation for weak Triples:
   TCutMKN   ...     1.0e-01
   TCutDO    ...     2.0e-02
   TCutCMO   ...     1.0e-03
   TCutCPAO  ...     1.0e-03

--------------------------------
LOCAL RI TRANSFORMATION (IAVPAO)
--------------------------------

Orbital window:       4 to 15
Number of PAOs:     204
Basis functions:    204 (76 shells)
Aux. functions:     504 (152 shells)

Processing maps (0.0 sec)
Average map sizes:
   Aux shells -> MOs              12.0
   Aux shells -> PAOs            204.0
   MOs        -> AO shells        76.0
   PAOs       -> AO shells        76.0

Calculating integrals (0.3 sec, 9.419 MB)
Sorting integrals (0.0 sec, 9.413 MB)
Total time for the integral transformation: 0.4 sec
--------------------------------
INITIAL GUESS AND PNO GENERATION
--------------------------------

PNO truncation parameters                   .... 
    ScaleTCutPNO       =        1.000e-02
    PAOOverlapThresh   =        1.000e-08

    TCutPairs          =        1.000e-05
    TCutPNO            =        1.000e-07
    TCutPNOSingles     =        3.000e-09
    TCutMP2Pairs       =        1.000e-06
    TCutMKN            =        1.000e-03
    TCutDO             =        5.000e-03

Pair selection                          .... not used
Type of local MP2 treatment                 .... full local PMP2
Strategy for PNO selection                  .... occupation number selection
Pair density normalization                  .... MP2 norm
Spin component scaling                      .... not used

PASS-1: Formation of initial guess LMP2 amplitudes
Initial amplitudes guess done. Entering LMP2 iteration loop:
   Max. no of iterations          ...  50
   Energy convergence tolerance   ...    1.0e-07
   Residual convergence tolerance ...    5.0e-07
   Fock matrix cutoff             ...    1.0e-05 Eh
   DIIS convergence acceleration parameters:
        Max # vectors in DIIS     ... 7
        Start iteration of DIIS   ... 0
        Levelshift                ... 2.000e-01
        Damping factor 1          ... 5.000e-01
        Damping factor 2          ... 1.000e+00
   L-MP2 PNO cut-off              ...   1.0e-09
   L-MP2 PNO cut-off (core)       ...   1.0e-11
                           *** Turning on DIIS ***
LMP2-Iter=   0:  ELMP2= -0.732308715905  DE=   1.4e-02 RMAX=   1.6e-02
LMP2-Iter=   1:  ELMP2= -0.740222088965  DE=   7.9e-03 RMAX=   6.6e-03
LMP2-Iter=   2:  ELMP2= -0.741670731185  DE=   1.4e-03 RMAX=   2.5e-03
LMP2-Iter=   3:  ELMP2= -0.741865803862  DE=   2.0e-04 RMAX=   7.7e-04
LMP2-Iter=   4:  ELMP2= -0.741865916732  DE=   1.1e-07 RMAX=   2.0e-04
LMP2-Iter=   5:  ELMP2= -0.741861177842  DE=   4.7e-06 RMAX=   3.4e-05
LMP2-Iter=   6:  ELMP2= -0.741860937179  DE=   2.4e-07 RMAX=   5.6e-06
LMP2-Iter=   7:  ELMP2= -0.741860952839  DE=   1.6e-08 RMAX=   7.9e-07
LMP2-Iter=   8:  ELMP2= -0.741860982029  DE=   2.9e-08 RMAX=   1.1e-07
LMP2-Iter=   9:  ELMP2= -0.741860984367  DE=   2.3e-09 RMAX=   2.7e-08 => CONVERGED
PASS-2: Formation of Pair natural orbitals
   .... Finished loop over pairs

 PNO Occupation Number Statistics: 
  | Av. % of trace(Dij) retained        ...  99.776038207367
  | sigma^2 in % of trace(Dij) retained ...   8.83e-02
  | Av. % of trace(Di) retained         ...  99.999782065554
  | sigma^2 in % of trace(Di) retained  ...   3.61e-09
 Distributions of % trace(Dij) recovered:
  |       >= 99.9  ...    35 ( 44.9 % of all pairs)
  |   [90.0, 99.0) ...     3 (  3.8 % of all pairs)
  |   [99.0, 99.9) ...    40 ( 51.3 % of all pairs)
 Distributions of % trace(Di) recovered :
  |       >= 99.9  ...    12 (100.0 % of all I-pairs )

Making pair pair interaction lists          ... done

                       ===========================
                         78 OF   78 PAIRS ARE KEPT
                       ===========================

Total time spent in the initial guess                 ...     2.885 sec
L-MP2 correlation energy (all non-screened pairs)     ...      -0.741860984367 Eh
L-MP2 PNO error correction                            ...      -0.000007244350 Eh
                                                          --------------------
Initial total L-MP2 energy (non-screened pairs)       ...      -0.741868228717 Eh

Initial PNO correlation energy                        ...      -0.741405702680 Eh
sum of pair energies estimated for screened out pairs ...       0.000000000000 Eh
sum of MP2 pair energies for pairs that were not kept ...       0.000000000000 Eh
sum of PNO error estimates for the kept pairs         ...      -0.000462526037 Eh
                                                          --------------------
sum of all corrections                                         -0.000462526037
Initial total correlation energy                               -0.741868228717
Thresholds for map construction and integral transformation for fine MP2 and CCSD(T) calculation:
   TCutMKN   ...     1.0e-03
   TCutDO    ...     5.0e-03
   TCutPairs ...     1.0e-05
   TCutCMO   ...     1.0e-03
   TCutCPAO  ...     1.0e-03

Time for aux screen maps:            0.001
Time for maps after fine MP2:            0.004
-----------------------------
LOCAL RI TRANSFORMATION (IJV)
-----------------------------

Orbital window:       4 to 15
Basis functions:    204 (76 shells)
Aux. functions:     504 (152 shells)

Processing maps (0.0 sec)
Average map sizes:
   Aux shells -> MOs(i)           12.0
   Aux shells -> MOs(j)           12.0
   MOs        -> AO shells        76.0

Calculating integrals (0.3 sec, 0.559 MB)
Sorting integrals (0.0 sec, 0.554 MB)
Total time for the integral transformation: 0.3 sec
--------------------------------
LOCAL RI TRANSFORMATION (VABPAO)
--------------------------------

Number of PAOs:     204
Basis functions:    204 (76 shells)
Aux. functions:     504 (152 shells)

Processing maps (0.0 sec)
Average map sizes:
   Aux shells -> PAOs            204.0
   PAOs       -> AO shells        76.0

Calculating integrals (0.6 sec, 302.593 MB)
Finished


-------------------------------------
Pair Pair Term precalculation with     
RI-(ij|mn) and (im|jn) transformation  
ON THE FLY                             
-------------------------------------

   IBatch   1 (of   1)              ... done (    9.186 sec)
Total EXT                           ...           9.186 sec

---------------------
RI-PNO TRANSFORMATION
---------------------

Total Number of PNOs                   ...  3761
Average number of PNOs per pair        ...    48
Maximal number of PNOs per pair        ...    76
   #pairs with  1 -  5 PNOs   :    0
   #pairs with  6 - 10 PNOs   :    0
   #pairs with 11 - 15 PNOs   :    0
   #pairs with 16 - 20 PNOs   :    3
   #pairs with 21 - 25 PNOs   :    2
   #pairs with 26 - 30 PNOs   :    7
   #pairs with 31 - 35 PNOs   :    7
   #pairs with 36 - 40 PNOs   :    4
   #pairs with 41 - 45 PNOs   :    8
   #pairs with 46 - 50 PNOs   :    8
   #pairs with 51 - 55 PNOs   :   11
   #pairs with 56 - 60 PNOs   :    9
   #pairs with 61 - 65 PNOs   :   16
   #pairs with 66 - 70 PNOs   :    2
   #pairs with 76 - 80 PNOs   :    1

Generation of (ij|ab)[P] integrals            ... on
Generation of (ia|bc)[P],(ja|bc)[P] integrals ... on
Storage of 3 and 4 external integrals         ... on
Generation of ALL (ka|bc)[P] integrals        ... on
Keep RI integrals in memory                   ... off

Ibatch:  1 (of  1)
Starting 2-4 index PNO integral generation ... done

Timings:
Total PNO integral transformation time     ...          5.642 sec
Size of the 3-external file                ...        84 MB
Size of the 4-external file                ...       621 MB
Size of the IKJL file                      ...         0 MB
Size of the all 3-external file            ...       508 MB
Size of the 1-external file                ...         1 MB

Making pair/pair overlap matrices          ... done (    0.280 sec)
Size of the pair overlap file              ... 85 MB
Redoing the guess amplitudes               ... done (    0.002 sec)

-------------------------
FINAL STARTUP INFORMATION
-------------------------

E(0)                                       ...   -191.995434929
E(L-MP2)                                   ...     -0.741868229
E(L-MP2) including corrections             ...     -0.741868229
Initial E(tot)                             ...   -192.737303158
<T|T>                                      ...      0.196561192
Number of pairs included                   ... 78
Total number of pairs                      ... 78

------------------------------------------------
                  RHF COUPLED CLUSTER ITERATIONS
------------------------------------------------

Number of PNO amplitudes to be optimized   ...       196835
Number of non-PNO amplitudes               ...      2756832
Untruncated number of regular amplitudes   ...      2756832

Iter       E(tot)           E(Corr)          Delta-E          Residual     Time
  0   -192.713221004     -0.717323549      0.024544679      0.017347412    5.09
                           *** Turning on DIIS ***
  1   -192.743648559     -0.747751104     -0.030427554      0.011835602    5.11
  2   -192.763385620     -0.767488165     -0.019737061      0.007106667    5.12
  3   -192.767805937     -0.771908482     -0.004420317      0.003890533    5.10
  4   -192.769129254     -0.773231799     -0.001323317      0.002059739    5.09
  5   -192.769523782     -0.773626327     -0.000394528      0.000844095    5.13
  6   -192.769641547     -0.773744092     -0.000117765      0.000240017    7.02
  7   -192.769654424     -0.773756969     -0.000012877      0.000051961    5.12
  8   -192.769654237     -0.773756782      0.000000188      0.000011201    5.12
  9   -192.769653222     -0.773755767      0.000001015      0.000003844    5.11
               --- The Coupled-Cluster iterations have converged ---

----------------------
COUPLED CLUSTER ENERGY
----------------------

E(0)                                       ...   -191.995434929
E(CORR)(strong-pairs)                      ...     -0.773755767
E(CORR)(weak-pairs)                        ...     -0.000462526
E(CORR)(corrected)                         ...     -0.774218293
E(TOT)                                     ...   -192.769653222
Singles Norm <S|S>**1/2                    ...      0.049063680  
T1 diagnostic                              ...      0.010015082  

------------------
LARGEST AMPLITUDES
------------------
   6-> 16   6-> 16       0.061678
   7-> 16   7-> 16       0.061677
   7-> 16   6-> 16       0.055356
  11-> 23  11-> 23       0.033646
  14-> 22  14-> 22       0.033503
  13-> 22  13-> 22       0.033499
  15-> 19  15-> 19       0.028670
   9-> 16   9-> 16       0.028501
  14-> 16  14-> 16       0.027185
  13-> 16  13-> 16       0.027185
  15-> 16  15-> 16       0.025997
  12-> 16  12-> 16       0.025036
  10-> 17  10-> 17       0.024932
  10-> 23  10-> 23       0.024900
  11-> 17  11-> 17       0.024859
  12-> 19  12-> 19       0.024787


-------------------------------------------
DLPNO BASED TRIPLES CORRECTION
-------------------------------------------

Singles multiplier          ...  1.000000
TCutTNO                     ... 1.000e-09
TCutMP2Pairs                ... 1.000e-06
TCutDOStrong                ... 1.000e-02
TCutMKNStrong               ... 1.000e-02
TCutDOWeak                  ... 2.000e-02
TCutMKNWeak                 ... 1.000e-01

Fragment selection                          .... not used
Number of Triples that are to be computed   ...       352

 . . . . . . . . .
10% done  
20% done  
30% done  
40% done  
50% done  
60% done  
70% done  
80% done  
90% done               (     18.224 sec)
Triples timings:
Total time for T0               ...    19.118 sec
Total time for Iterative (T)    ...     0.000 sec
Total time of overall (T)       ...    22.046 sec

Triples List generation         ...     0.000 sec
TNO generation                  ...     0.890 sec
Pair density generation         ...     0.002 sec
Look up tables                  ...     0.000 sec
Generating 3-index integrals    ...     8.375 sec
  Make 4-ind.int. from 3-ind.int...     3.751 sec
  Projecting amplitudes (D + S) ...     0.907 sec
  Downprojecting integrals      ...     0.001 sec
  Energy contr. (sum over a,b,c)...     1.414 sec
Fitting ET(->0)                 ...     0.000 sec

Everything after 3-index        ...     9.849 sec

Timing details:
 TNO integrals                  ...    11.842 sec
   Reading 3-index integrals    ...     0.055 sec
   Sorting integrals            ...     2.355 sec
       Sorting integrals 1      ...     0.000 sec
       Sorting integrals 2      ...     0.530 sec
       Sorting integrals 3      ...     0.082 sec
       Sorting integrals 4      ...     0.003 sec
       Sorting integrals 5      ...     0.017 sec
       Sorting integrals 6      ...     1.723 sec
   Calculating local VM**-1/2   ...     0.063 sec
   Orthogonal. integrals        ...     0.132 sec
   Multipl. 3-index integrals   ...     9.237 sec
   All concerning IRIab (w/TNO) ...     1.734 sec

 Calculate W0/W1                ...     3.771 sec
 W 3-ext contribution           ...     2.078 sec
 W 3-int contribution           ...     0.484 sec
 Sorting W                      ...     1.150 sec

 V exchange contribution        ...     0.474 sec

 Timings for Triples without generation
     of 3-index integrals       ...     9.849 sec
       0 weak pairs             ...     9.849 sec
       1 weak pair              ...     0.000 sec
       2 weak pairs             ...     0.000 sec
       3 weak pairs             ...     0.000 sec
  Extra time for extrapolation  ...     0.000 sec

Number of Triples   (0, 1, 2, 3 weak pairs; overall):    352       0       0       0  (   352)
Number of Atoms     (0, 1, 2, 3 weak pairs; overall):    9.9     0.0     0.0     0.0  (    10)
Number of PAOs      (0, 1, 2, 3 weak pairs; overall):  202.1     0.0     0.0     0.0  (   204)
Number of AuxFcns   (0, 1, 2, 3 weak pairs; overall):  331.4     0.0     0.0     0.0  (   504)
Number of TNOs      (0, 1, 2, 3 weak pairs         ):  101.9     0.0     0.0     0.0
Aver. Number of NTNO, Atoms, PAOs, AuxFcns / Triples:    352   101.9     9.9   202.1   331.4

Triples Correction (T)                     ...     -0.030185191
Final correlation energy                   ...     -0.804403484
E(CCSD)                                    ...   -192.769653222
E(CCSD(T))                                 ...   -192.799838413


Maximum memory used throughout the entire calculation: 2191.8 MB


------------------------------------------------------------------------------- 
                                     TIMINGS                                   
------------------------------------------------------------------------------- 


Total execution time                   ...      105.635 sec

Localization of occupied MO's          ...        0.435 sec (  0.4%)
Fock Matrix Formation                  ...        0.726 sec (  0.7%)
Global overlap, Fock, MKN matrices     ...        0.140 sec (  0.1%)
Differential overlap integrals         ...        0.046 sec (  0.0%)
Organizing maps                        ...        0.012 sec (  0.0%)
RI 3-index integral generations        ...        1.649 sec (  1.6%)
RI-PNO integral transformation         ...       23.984 sec ( 22.7%)
Initial Guess                          ...        3.216 sec (  3.0%)
DIIS Solver                            ...        0.711 sec (  0.7%)
State Vector Update                    ...        0.014 sec (  0.0%)
Sigma-vector construction              ...       52.857 sec ( 50.0%)
  <D|H|D>(0-ext)                       ...        0.575 sec (  1.1% of sigma)
  <D|H|D>(2-ext Fock)                  ...        0.006 sec (  0.0% of sigma)
  <D|H|D>(2-ext)                       ...        2.046 sec (  3.9% of sigma)
  <D|H|D>(4-ext)                       ...        9.512 sec ( 18.0% of sigma)
  <D|H|D>(4-ext-corr)                  ...       32.043 sec ( 60.6% of sigma)
  CCSD doubles correction              ...        0.054 sec (  0.1% of sigma)
  <S|H|S>                              ...        0.135 sec (  0.3% of sigma)
  <S|H|D>(1-ext)                       ...        0.090 sec (  0.2% of sigma)
  <D|H|S>(1-ext)                       ...        0.003 sec (  0.0% of sigma)
  <S|H|D>(3-ext)                       ...        0.278 sec (  0.5% of sigma)
  Fock-dressing                        ...        6.470 sec ( 12.2% of sigma)
  Singles amplitudes                   ...        0.120 sec (  0.2% of sigma)
  (ik|jl)-dressing                     ...        0.413 sec (  0.8% of sigma)
  (ij|ab),(ia|jb)-dressing             ...        0.917 sec (  1.7% of sigma)
  Pair energies                        ...        0.004 sec (  0.0% of sigma)
Total Time for computing (T)           ...       22.061 sec ( 20.9% of ALL)


-------------------------   --------------------
FINAL SINGLE POINT ENERGY      -192.799838413026
-------------------------   --------------------


                            ***************************************
                            *     ORCA property calculations      *
                            ***************************************

                                    ---------------------
                                    Active property flags
                                    ---------------------
   (+) Dipole Moment


------------------------------------------------------------------------------
                       ORCA ELECTRIC PROPERTIES CALCULATION
------------------------------------------------------------------------------

Dipole Moment Calculation                       ... on
Quadrupole Moment Calculation                   ... off
Polarizability Calculation                      ... off
GBWName                                         ... propen_3_ol_syn_a.gbw
Electron density file                           ... propen_3_ol_syn_a.scfp.tmp
The origin for moment calculation is the CENTER OF MASS  = ( 0.018264, -0.042742 -0.000008)

-------------
DIPOLE MOMENT
-------------
                                X             Y             Z
Electronic contribution:      1.05903      -0.80481      -0.00012
Nuclear contribution   :     -0.58448       1.36785       0.00027
                        -----------------------------------------
Total Dipole Moment    :      0.47455       0.56303       0.00014
                        -----------------------------------------
Magnitude (a.u.)       :      0.73634
Magnitude (Debye)      :      1.87164



--------------------
Rotational spectrum 
--------------------
 
Rotational constants in cm-1:     0.571711     0.198345     0.151444 
Rotational constants in MHz : 17139.477587  5946.231781  4540.172370 

 Dipole components along the rotational axes: 
x,y,z [a.u.] :    -0.454076     0.579670     0.000142 
x,y,z [Debye]:    -1.154170     1.473405     0.000361 

 

Timings for individual modules:

Sum of individual times         ...      110.781 sec (=   1.846 min)
GTO integral calculation        ...        0.450 sec (=   0.008 min)   0.4 %
SCF iterations                  ...        4.508 sec (=   0.075 min)   4.1 %
MDCI module                     ...      105.822 sec (=   1.764 min)  95.5 %
                             ****ORCA TERMINATED NORMALLY****
TOTAL RUN TIME: 0 days 0 hours 1 minutes 51 seconds 45 msec
propen_3_ol_syn_a.gbw -> /home1/pantazis/klk/xyz_1/Oxygen_compounds/propen_3_ol_syn_a.gbw
propen_3_ol_syn_a.job -> /home1/pantazis/klk/xyz_1/Oxygen_compounds/propen_3_ol_syn_a.job
propen_3_ol_syn_a.loc -> /home1/pantazis/klk/xyz_1/Oxygen_compounds/propen_3_ol_syn_a.loc
propen_3_ol_syn_a.nodes -> /home1/pantazis/klk/xyz_1/Oxygen_compounds/propen_3_ol_syn_a.nodes
propen_3_ol_syn_a.prop -> /home1/pantazis/klk/xyz_1/Oxygen_compounds/propen_3_ol_syn_a.prop
propen_3_ol_syn_a_property.txt -> /home1/pantazis/klk/xyz_1/Oxygen_compounds/propen_3_ol_syn_a_property.txt
propen_3_ol_syn_a.xyz -> /home1/pantazis/klk/xyz_1/Oxygen_compounds/propen_3_ol_syn_a.xyz
cp: cannot stat propen_3_ol_syn_a.asa.inp: No such file or directory
