! Job execution by suborca V 6.07 on ZEUS !
Job started from zeus1, running /scratch/pantazis/propene_H_H_anti__X8JQqE/orca/orca copied from /opt/orca on zeussn124 in /scratch/pantazis/propene_H_H_anti__X8JQqE
Job execution start: Fri Jun 28 02:28:35 CEST 2019
Shared library path: /scratch/pantazis/propene_H_H_anti__X8JQqE/orca:/opt/openmpi_1.10.2/lib:/opt/intel/mkl/lib/intel64:/opt/intel/lib/intel64:
PBS Job ID is: 158337.icqc
izeussn124
izeussn124
izeussn124
izeussn124
izeussn124
izeussn124
izeussn124
izeussn124

                                 *****************
                                 * O   R   C   A *
                                 *****************

           --- An Ab Initio, DFT and Semiempirical electronic structure package ---

                  #######################################################
                  #                        -***-                        #
                  #          Department of theory and spectroscopy      #
                  #               Directorship: Frank Neese             #
                  #        Max Planck Institute fuer Kohlenforschung    #
                  #                Kaiser Wilhelm Platz 1               #
                  #                 D-45470 Muelheim/Ruhr               #
                  #                      Germany                        #
                  #                                                     #
                  #                  All rights reserved                #
                  #                        -***-                        #
                  #######################################################


                         Program Version 4.1.x  -  STABLE  -
                                (SVN: $Rev: 14094$)
                ($Date: 2019-06-14 15:01:15 +0200 (Fri, 14 Jun 2019) $)

                         (BUILD: $Sun Jun 23 06:18:31 CEST 2019$)


 With contributions from (in alphabetic order):
   Daniel Aravena         : Magnetic Properties
   Michael Atanasov       : Ab Initio Ligand Field Theory
   Alexander A. Auer      : GIAO ZORA
   Ute Becker             : Parallelization
   Giovanni Bistoni       : ED, Open-shell LED
   Martin Brehm           : Molecular dynamics
   Dmytro Bykov           : SCF Hessian
   Vijay G. Chilkuri      : MRCI spin determinant printing
   Dipayan Datta          : RHF DLPNO-CCSD density
   Achintya Kumar Dutta   : EOM-CC, STEOM-CC
   Dmitry Ganyushin       : Spin-Orbit,Spin-Spin,Magnetic field MRCI
   Miquel Garcia          : C-PCM Hessian
   Yang Guo               : DLPNO-NEVPT2, CIM, IAO-localization
   Andreas Hansen         : Spin unrestricted coupled pair/coupled cluster methods
   Benjamin Helmich-Paris : CASSCF linear response (MC-RPA)
   Lee Huntington         : MR-EOM, pCC
   Robert Izsak           : Overlap fitted RIJCOSX, COSX-SCS-MP3, EOM
   Christian Kollmar      : KDIIS, OOCD, Brueckner-CCSD(T), CCSD density
   Simone Kossmann        : Meta GGA functionals, TD-DFT gradient, OOMP2, MP2 Hessian
   Martin Krupicka        : AUTO-CI
   Lucas Lang             : DCDCAS
   Dagmar Lenk            : GEPOL surface, SMD
   Dimitrios Liakos       : Extrapolation schemes; parallel MDCI
   Dimitrios Manganas     : ROCIS; embedding schemes
   Dimitrios Pantazis     : SARC Basis sets
   Taras Petrenko         : DFT Hessian,TD-DFT gradient, ASA, ECA, R-Raman, ABS, FL, XAS/XES, NRVS
   Peter Pinski           : DLPNO-MP2, DLPNO-MP2 Gradient
   Christoph Reimann      : Effective Core Potentials
   Marius Retegan         : Local ZFS, SOC
   Christoph Riplinger    : Optimizer, TS searches, QM/MM, DLPNO-CCSD(T), (RO)-DLPNO pert. Triples
   Tobias Risthaus        : Range-separated hybrids, TD-DFT gradient, RPA, STAB
   Michael Roemelt        : Restricted open shell CIS
   Masaaki Saitow         : Open-shell DLPNO
   Barbara Sandhoefer     : DKH picture change effects
   Avijit Sen             : IP-ROCIS
   Kantharuban Sivalingam : CASSCF convergence, NEVPT2, FIC-MRCI
   Bernardo de Souza      : ESD, SOC TD-DFT
   Georgi Stoychev        : AutoAux, RI-MP2 NMR
   Willem Van den Heuvel  : Paramagnetic NMR
   Boris Wezisla          : Elementary symmetry handling
   Frank Wennmohs         : Technical directorship


 We gratefully acknowledge several colleagues who have allowed us to
 interface, adapt or use parts of their codes:
   Stefan Grimme, W. Hujo, H. Kruse,             : VdW corrections, initial TS optimization,
                  C. Bannwarth                     DFT functionals, gCP, sTDA/sTD-DF
   Ed Valeev                                     : LibInt (2-el integral package), F12 methods
   Garnet Chan, S. Sharma, J. Yang, R. Olivares  : DMRG
   Ulf Ekstrom                                   : XCFun DFT Library
   Mihaly Kallay                                 : mrcc  (arbitrary order and MRCC methods)
   Andreas Klamt, Michael Diedenhofen            : otool_cosmo (COSMO solvation model)
   Jiri Pittner, Ondrej Demel                    : Mk-CCSD
   Frank Weinhold                                : gennbo (NPA and NBO analysis)
   Christopher J. Cramer and Donald G. Truhlar   : smd solvation model
   Lars Goerigk                                  : TD-DFT with DH, B97 family of functionals
   V. Asgeirsson, H. Jonsson                     : NEB implementation
   FAccTs GmbH                                   : IRC, NEB, NEB-TS, Multilevel


 Your calculation uses the libint2 library for the computation of 2-el integrals
 For citations please refer to: http://libint.valeyev.net

 This ORCA versions uses:
   CBLAS   interface :  Fast vector & matrix operations
   LAPACKE interface :  Fast linear algebra routines
   SCALAPACK package :  Parallel linear algebra routines




***************************************
The coordinates will be read from file: propene_H_H_anti.xyz
***************************************


----- Orbital basis set information -----
Your calculation utilizes the basis: cc-pVTZ 
       H, B-Ne : Obtained from the ccRepo (grant-hill.group.shef.ac.uk/ccrepo) Feb. 2017
                 T. H. Dunning, Jr., J. Chem. Phys. 90, 1007 (1989)
            He : Obtained from the ccRepo (grant-hill.group.shef.ac.uk/ccrepo) Feb. 2017
                 D. E. Woon, T. H. Dunning, Jr., J. Chem. Phys. 100, 2975 (1994)
  Li-Be, Na-Mg : Obtained from the ccRepo (grant-hill.group.shef.ac.uk/ccrepo) Feb. 2017
                 B. P. Prascher, D. E. Woon, K. A. Peterson, T. H. Dunning, Jr., A. K. Wilson, Theor. Chem. Acc. 128, 69 (2011)
         Al-Ar : Obtained from the ccRepo (grant-hill.group.shef.ac.uk/ccrepo) Feb. 2017
                 D. E. Woon, T. H. Dunning, Jr., J. Chem. Phys. 98, 1358 (1993)
            Ca : Obtained from the Peterson Research Group Website (tyr0.chem.wsu.edu/~kipeters) Feb. 2017
                 J. Koput, K. A. Peterson, J. Phys. Chem. 106, 9595 (2002)
         Sc-Zn : Obtained from the ccRepo (grant-hill.group.shef.ac.uk/ccrepo) Feb. 2017
                 N. B. Balabanov, K. A. Peterson, J. Chem. Phys. 123, 064107 (2005)
                 N. B. Balabanov, K. A. Peterson, J. Chem. Phys. 125, 074110 (2006)
         Ga-Kr : Obtained from the ccRepo (grant-hill.group.shef.ac.uk/ccrepo) Feb. 2017
                 A. K. Wilson, D. E. Woon, K. A. Peterson, T. H. Dunning, Jr., J. Chem. Phys. 110, 7667 (1999)
             Y : Obtained from the ccRepo (grant-hill.group.shef.ac.uk/ccrepo) Feb. 2017
                 K. A. Peterson, D. Figgen, M. Dolg, H. Stoll, J. Chem. Phys. 126, 124101 (2007)
        Ag, Au : Obtained from the Peterson Research Group Website (tyr0.chem.wsu.edu/~kipeters) Feb. 2017
                 K. A. Peterson, C. Puzzarini, Theor. Chem. Acc. 114, 283 (2005)

----- AuxC basis set information -----
Your calculation utilizes the auxiliary basis: cc-pVTZ/C 
  Obtained from the EMSL Basis Set Exchange (bse.pnl.gov) Feb. 2017
  H-He, B-F, Al-Ar, Ga-Kr : F. Weigend, A. Kohn, C. Hattig, J. Chem. Phys. 116, 3175 (2002)
             Li-Be, Na-Mg : C. Haettig, Phys. Chem. Chem. Phys. 7, 59 (2005)
                       Ne : C. Haettig, Phys. Chem. Chem. Phys. 7, 59 (2005)
                            F. Weigend, A. Kohn, C. Hattig, J. Chem. Phys. 116, 3175 (2002)
                    Sc-Zn : J. G. Hill, J. A. Platts, J. Chem. Phys. 128, 044104 (2008)

----- AuxJK basis set information -----
Your calculation utilizes the auxiliary basis: cc-pVTZ/JK 
  H, B-F, Al-Cl, Ga-Br : Obtained from the TURBOMOLE 7.0 basis set library

================================================================================
                                        WARNINGS
                       Please study these warnings very carefully!
================================================================================


WARNING: MDCI localization with Augmented Hessian Foster-Boys
  ===> : Switching off randomization!

WARNING: Post HF methods need fully converged wavefunctions
  ===> : Setting SCFConvForced true
         You can overwrite this default with %scf ConvForced false 


INFO   : the flag for use of LIBINT has been found!

================================================================================
                                       INPUT FILE
================================================================================
NAME = propene_H_H_anti.inp
|  1> ! RHF DLPNO-CCSD(T) cc-pVTZ RIJK cc-pVTZ/JK cc-pVTZ/C
|  2> ! KDIIS SOSCF TightSCF TightPNO
|  3> 
|  4> %pal nprocs 8 end
|  5> 
|  6> %maxcore 8000
|  7> 
|  8> %scf maxiter 300
|  9>      shift shift 0.2 erroff 0.1 end
| 10> end
| 11> 
| 12> * xyzfile 0 1 propene_H_H_anti.xyz 
| 13> 
| 14> 
| 15>                          ****END OF INPUT****
================================================================================

                       ****************************
                       * Single Point Calculation *
                       ****************************

---------------------------------
CARTESIAN COORDINATES (ANGSTROEM)
---------------------------------
  C      1.232560    0.164380    0.000000
  C     -0.133230   -0.467540   -0.000010
  C     -1.278600    0.228840    0.000000
  H      1.183990    1.277130   -0.000100
  H      1.800900   -0.153920    0.903440
  H      1.800990   -0.154090   -0.903320
  H     -0.174850   -1.570730    0.000010
  H     -2.254880   -0.282870    0.000000
  H     -1.280550    1.330440   -0.000010

----------------------------
CARTESIAN COORDINATES (A.U.)
----------------------------
  NO LB      ZA    FRAG     MASS         X           Y           Z
   0 C     6.0000    0    12.011    2.329201    0.310633    0.000000
   1 C     6.0000    0    12.011   -0.251768   -0.883523   -0.000019
   2 C     6.0000    0    12.011   -2.416204    0.432445    0.000000
   3 H     1.0000    0     1.008    2.237417    2.413426   -0.000189
   4 H     1.0000    0     1.008    3.403208   -0.290867    1.707254
   5 H     1.0000    0     1.008    3.403378   -0.291188   -1.707027
   6 H     1.0000    0     1.008   -0.330419   -2.968250    0.000019
   7 H     1.0000    0     1.008   -4.261106   -0.534547    0.000000
   8 H     1.0000    0     1.008   -2.419889    2.514167   -0.000019

--------------------------------
INTERNAL COORDINATES (ANGSTROEM)
--------------------------------
 C      0   0   0     0.000000000000     0.00000000     0.00000000
 C      1   0   0     1.504893753924     0.00000000     0.00000000
 C      2   1   0     1.340454229506   123.87167159     0.00000000
 H      1   2   3     1.113809506783   112.32961289     0.00000000
 H      1   2   3     1.113790410804   110.06657073   120.28048659
 H      1   2   3     1.113787604618   110.06652983   239.70571477
 H      2   1   3     1.103974818961   116.98947886   180.00212913
 H      3   2   1     1.102256668159   121.03962857   180.00048824
 H      3   2   1     1.101601725943   121.40084234     0.00000000

---------------------------
INTERNAL COORDINATES (A.U.)
---------------------------
 C      0   0   0     0.000000000000     0.00000000     0.00000000
 C      1   0   0     2.843837055565     0.00000000     0.00000000
 C      2   1   0     2.533091388822   123.87167159     0.00000000
 H      1   2   3     2.104794933178   112.32961289     0.00000000
 H      1   2   3     2.104758847008   110.06657073   120.28048659
 H      1   2   3     2.104753544084   110.06652983   239.70571477
 H      2   1   3     2.086210066582   116.98947886   180.00212913
 H      3   2   1     2.082963232108   121.03962857   180.00048824
 H      3   2   1     2.081725570687   121.40084234     0.00000000

---------------------
BASIS SET INFORMATION
---------------------
There are 2 groups of distinct atoms

 Group   1 Type C   : 18s5p2d1f contracted to 4s3p2d1f pattern {8811/311/11/1}
 Group   2 Type H   : 5s2p1d contracted to 3s2p1d pattern {311/11/1}

Atom   0C    basis set group =>   1
Atom   1C    basis set group =>   1
Atom   2C    basis set group =>   1
Atom   3H    basis set group =>   2
Atom   4H    basis set group =>   2
Atom   5H    basis set group =>   2
Atom   6H    basis set group =>   2
Atom   7H    basis set group =>   2
Atom   8H    basis set group =>   2
-------------------------------
AUXILIARY BASIS SET INFORMATION
-------------------------------
There are 2 groups of distinct atoms

 Group   1 Type C   : 8s6p5d3f1g contracted to 8s6p5d3f1g pattern {11111111/111111/11111/111/1}
 Group   2 Type H   : 4s3p2d1f contracted to 4s3p2d1f pattern {1111/111/11/1}

Atom   0C    basis set group =>   1
Atom   1C    basis set group =>   1
Atom   2C    basis set group =>   1
Atom   3H    basis set group =>   2
Atom   4H    basis set group =>   2
Atom   5H    basis set group =>   2
Atom   6H    basis set group =>   2
Atom   7H    basis set group =>   2
Atom   8H    basis set group =>   2
-------------------------------
AUXILIARY BASIS SET INFORMATION
-------------------------------
There are 2 groups of distinct atoms

 Group   1 Type C   : 10s7p5d2f1g contracted to 10s7p5d2f1g pattern {1111111111/1111111/11111/11/1}
 Group   2 Type H   : 4s3p2d1f contracted to 4s3p2d1f pattern {1111/111/11/1}

Atom   0C    basis set group =>   1
Atom   1C    basis set group =>   1
Atom   2C    basis set group =>   1
Atom   3H    basis set group =>   2
Atom   4H    basis set group =>   2
Atom   5H    basis set group =>   2
Atom   6H    basis set group =>   2
Atom   7H    basis set group =>   2
Atom   8H    basis set group =>   2


           ************************************************************
           *        Program running with 8 parallel MPI-processes     *
           *              working on a common directory               *
           ************************************************************
------------------------------------------------------------------------------
                           ORCA GTO INTEGRAL CALCULATION
                           -- RI-GTO INTEGRALS CHOSEN --
------------------------------------------------------------------------------

                         BASIS SET STATISTICS AND STARTUP INFO

Gaussian basis set:
 # of primitive gaussian shells          ...  126
 # of primitive gaussian functions       ...  246
 # of contracted shells                  ...   66
 # of contracted basis functions         ...  174
 Highest angular momentum                ...    3
 Maximum contraction depth               ...    8
Auxiliary gaussian basis set:
 # of primitive gaussian shells          ...  135
 # of primitive gaussian functions       ...  417
 # of contracted shells                  ...  135
 # of contracted aux-basis functions     ...  417
 Highest angular momentum                ...    4
 Maximum contraction depth               ...    1
Ratio of auxiliary to basis functions    ...  2.40
Integral package used                  ... LIBINT
 One Electron integrals                  ... done
 Ordering auxiliary basis shells         ... done
 Integral threshhold             Thresh  ...  2.500e-11
 Primitive cut-off               TCut    ...  2.500e-12
 Pre-screening matrix                    ... done
 Shell pair data                         ... 
 Ordering of the shell pairs             ... done (   0.000 sec) 2191 of 2211 pairs
 Determination of significant pairs      ... done (   0.000 sec)
 Creation of shell pair data             ... done (   0.000 sec)
 Storage of shell pair data              ... done (   0.001 sec)
 Shell pair data done in (   0.001 sec)
 Computing two index integrals           ... done
 Cholesky decomposition of the V-matrix  ... done


Timings:
 Total evaluation time                   ...   0.275 sec (  0.005 min)
 One electron matrix time                ...   0.035 sec (  0.001 min) = 12.7%
 Schwartz matrix evaluation time         ...   0.159 sec (  0.003 min) = 57.7%
 Two index repulsion integral time       ...   0.028 sec (  0.000 min) = 10.1%
 Cholesky decomposition of V             ...   0.026 sec (  0.000 min) =  9.4%
 Three index repulsion integral time     ...   0.000 sec (  0.000 min) =  0.0%



           ************************************************************
           *        Program running with 8 parallel MPI-processes     *
           *              working on a common directory               *
           ************************************************************
-------------------------------------------------------------------------------
                                 ORCA SCF
-------------------------------------------------------------------------------

------------
SCF SETTINGS
------------
Hamiltonian:
 Ab initio Hamiltonian  Method          .... Hartree-Fock(GTOs)
 RI-approximation to the Coulomb term is turned on
   Number of auxiliary basis functions  .... 417
   RI-JK (J+K treated both via RI)      .... on


General Settings:
 Integral files         IntName         .... propene_H_H_anti
 Hartree-Fock type      HFTyp           .... RHF
 Total Charge           Charge          ....    0
 Multiplicity           Mult            ....    1
 Number of Electrons    NEL             ....   24
 Basis Dimension        Dim             ....  174
 Nuclear Repulsion      ENuc            ....     70.1778978118 Eh

Convergence Acceleration:
 DIIS                   CNVDIIS         .... off
 Newton-Raphson         CNVNR           .... off
 SOSCF                  CNVSOSCF        .... on
   Start iteration      SOSCFMaxIt      ....   150
   Startup grad/error   SOSCFStart      ....  0.003300
 Level Shifting         CNVShift        .... on
   Level shift para.    LevelShift      ....    0.2000
   Turn off err/grad.   ShiftErr        ....    0.1000
 Zerner damping         CNVZerner       .... off
 Static damping         CNVDamp         .... off
 Fernandez-Rico         CNVRico         .... off

SCF Procedure:
 Maximum # iterations   MaxIter         ....   300
 SCF integral mode      SCFMode         .... Direct
   Integral package                     .... LIBINT
 Reset frequency        DirectResetFreq ....    20
 Integral Threshold     Thresh          ....  2.500e-11 Eh
 Primitive CutOff       TCut            ....  2.500e-12 Eh

Convergence Tolerance:
 Convergence Check Mode ConvCheckMode   .... Total+1el-Energy
 Convergence forced     ConvForced      .... 1
 Energy Change          TolE            ....  1.000e-08 Eh
 1-El. energy change                    ....  1.000e-05 Eh
 Orbital Gradient       TolG            ....  1.000e-05
 Orbital Rotation angle TolX            ....  1.000e-05


Diagonalization of the overlap matrix:
Smallest eigenvalue                        ... 5.298e-04
Time for diagonalization                   ...    0.008 sec
Threshold for overlap eigenvalues          ... 1.000e-08
Number of eigenvalues below threshold      ... 0
Time for construction of square roots      ...    0.006 sec
Total time needed                          ...    0.015 sec

-------------------
DFT GRID GENERATION
-------------------

General Integration Accuracy     IntAcc      ...  4.340
Radial Grid Type                 RadialGrid  ... Gauss-Chebyshev
Angular Grid (max. acc.)         AngularGrid ... Lebedev-110
Angular grid pruning method      GridPruning ... 3 (G Style)
Weight generation scheme         WeightScheme... Becke
Basis function cutoff            BFCut       ...    1.0000e-11
Integration weight cutoff        WCut        ...    1.0000e-14
Grids for H and He will be reduced by one unit

# of grid points (after initial pruning)     ...   9732 (   0.0 sec)
# of grid points (after weights+screening)   ...   9302 (   0.0 sec)
nearest neighbour list constructed           ...    0.0 sec
Grid point re-assignment to atoms done       ...    0.0 sec
Grid point division into batches done        ...    0.0 sec
Reduced shell lists constructed in    0.0 sec

Total number of grid points                  ...     9302
Total number of batches                      ...      151
Average number of points per batch           ...       61
Average number of grid points per atom       ...     1034
Average number of shells per batch           ...    60.25 (91.29%)
Average number of basis functions per batch  ...   159.05 (91.41%)
Average number of large shells per batch     ...    54.75 (90.87%)
Average number of large basis fcns per batch ...   143.55 (90.25%)
Average number of aux-shells per batch       ...    60.25 (44.63%)
Average number of aux functions per batch    ...   159.05 (38.14%)
Maximum spatial batch extension              ...   2.12,  2.75,  2.64 au
Average spatial batch extension              ...   0.18,  0.19,  0.21 au

Time for grid setup =    0.046 sec

------------------------------
INITIAL GUESS: MODEL POTENTIAL
------------------------------
Loading Hartree-Fock densities                     ... done
Calculating cut-offs                               ... done
Setting up the integral package                    ... done
Initializing the effective Hamiltonian             ... done
Starting the Coulomb interaction                   ... done (   0.0 sec)
Reading the grid                                   ... done
Mapping shells                                     ... done
Starting the XC term evaluation                    ... done (   0.0 sec)
Transforming the Hamiltonian                       ... done (   0.0 sec)
Diagonalizing the Hamiltonian                      ... done (   0.0 sec)
Back transforming the eigenvectors                 ... done (   0.0 sec)
Now organizing SCF variables                       ... done
                      ------------------
                      INITIAL GUESS DONE (   0.2 sec)
                      ------------------
--------------
SCF ITERATIONS
--------------
ITER       Energy         Delta-E        Max-DP      RMS-DP      [F,P]   Gradient Norm
                             ****Turning on KDIIS(Cayley)****
  0   -116.9201090250   0.000000000000 0.01073314  0.00034768  0.0995927   0.150345529
  1   -116.9749769981  -0.054867973121 0.01804142  0.00038891  0.0840570   0.129817262
  2   -117.0200935076  -0.045116509459 0.02899076  0.00066315  0.0692451   0.105564740
  3   -117.0762841884  -0.056190680757 0.04423477  0.00105211  0.0446905   0.065092262
                      *** Initiating the SOSCF procedure ***
                           *** Shutting down KDIIS ***
                      *** Re-Reading the Fockian *** 
                      *** Removing any level shift *** 
ITER      Energy       Delta-E        Grad      Rot      Max-DP    RMS-DP
  4   -117.11257087  -0.0362866780  0.003257  0.003257  0.002934  0.000095
  5   -117.11277186  -0.0002009887  0.000828  0.000992  0.001097  0.000039
  6   -117.11278277  -0.0000109125  0.000302  0.000240  0.000367  0.000014
  7   -117.11278564  -0.0000028733  0.000055  0.000125  0.000169  0.000006
  8   -117.11278574  -0.0000001002  0.000029  0.000075  0.000073  0.000002
  9   -117.11278575  -0.0000000110  0.000009  0.000030  0.000026  0.000001
                 **** Energy Check signals convergence ****
              ***Rediagonalizing the Fockian in SOSCF/NRSCF***

               *****************************************************
               *                     SUCCESS                       *
               *           SCF CONVERGED AFTER  10 CYCLES          *
               *****************************************************


----------------
TOTAL SCF ENERGY
----------------

Total Energy       :         -117.11278575 Eh           -3186.80091 eV

Components:
Nuclear Repulsion  :           70.17789781 Eh            1909.63768 eV
Electronic Energy  :         -187.29068357 Eh           -5096.43860 eV
One Electron Energy:         -295.46570412 Eh           -8040.03056 eV
Two Electron Energy:          108.17502056 Eh            2943.59196 eV

Virial components:
Potential Energy   :         -233.85575259 Eh           -6363.53854 eV
Kinetic Energy     :          116.74296683 Eh            3176.73763 eV
Virial Ratio       :            2.00316780


---------------
SCF CONVERGENCE
---------------

  Last Energy change         ...   -1.7338e-09  Tolerance :   1.0000e-08
  Last MAX-Density change    ...    9.5024e-06  Tolerance :   1.0000e-07
  Last RMS-Density change    ...    3.5192e-07  Tolerance :   5.0000e-09
  Last Orbital Gradient      ...    3.8917e-06  Tolerance :   1.0000e-05
  Last Orbital Rotation      ...    6.5274e-06  Tolerance :   1.0000e-05

             **** THE GBW FILE WAS UPDATED (propene_H_H_anti.gbw) ****
             **** DENSITY FILE WAS UPDATED (propene_H_H_anti.scfp.tmp) ****
             **** ENERGY FILE WAS UPDATED (propene_H_H_anti.en.tmp) ****
----------------
ORBITAL ENERGIES
----------------

  NO   OCC          E(Eh)            E(eV) 
   0   2.0000     -11.237625      -305.7913 
   1   2.0000     -11.229749      -305.5770 
   2   2.0000     -11.221961      -305.3651 
   3   2.0000      -1.058864       -28.8131 
   4   2.0000      -0.924806       -25.1653 
   5   2.0000      -0.750635       -20.4258 
   6   2.0000      -0.631141       -17.1742 
   7   2.0000      -0.578160       -15.7325 
   8   2.0000      -0.564141       -15.3511 
   9   2.0000      -0.514535       -14.0012 
  10   2.0000      -0.489125       -13.3098 
  11   2.0000      -0.357088        -9.7168 
  12   0.0000       0.146827         3.9954 
  13   0.0000       0.162701         4.4273 
  14   0.0000       0.176266         4.7964 
  15   0.0000       0.183511         4.9936 
  16   0.0000       0.217638         5.9222 
  17   0.0000       0.221736         6.0337 
  18   0.0000       0.244743         6.6598 
  19   0.0000       0.307955         8.3799 
  20   0.0000       0.383978        10.4486 
  21   0.0000       0.389873        10.6090 
  22   0.0000       0.398467        10.8428 
  23   0.0000       0.448638        12.2081 
  24   0.0000       0.470323        12.7981 
  25   0.0000       0.481951        13.1145 
  26   0.0000       0.514445        13.9988 
  27   0.0000       0.584436        15.9033 
  28   0.0000       0.586283        15.9536 
  29   0.0000       0.602461        16.3938 
  30   0.0000       0.627230        17.0678 
  31   0.0000       0.629249        17.1227 
  32   0.0000       0.629758        17.1366 
  33   0.0000       0.646437        17.5904 
  34   0.0000       0.670084        18.2339 
  35   0.0000       0.707355        19.2481 
  36   0.0000       0.733500        19.9596 
  37   0.0000       0.806004        21.9325 
  38   0.0000       0.821224        22.3466 
  39   0.0000       0.840493        22.8710 
  40   0.0000       0.856826        23.3154 
  41   0.0000       0.896256        24.3884 
  42   0.0000       0.923520        25.1303 
  43   0.0000       1.056807        28.7572 
  44   0.0000       1.062692        28.9173 
  45   0.0000       1.086282        29.5592 
  46   0.0000       1.099884        29.9294 
  47   0.0000       1.182338        32.1731 
  48   0.0000       1.193565        32.4786 
  49   0.0000       1.195114        32.5207 
  50   0.0000       1.233164        33.5561 
  51   0.0000       1.240546        33.7570 
  52   0.0000       1.282933        34.9104 
  53   0.0000       1.296353        35.2756 
  54   0.0000       1.347755        36.6743 
  55   0.0000       1.352256        36.7967 
  56   0.0000       1.382368        37.6161 
  57   0.0000       1.416779        38.5525 
  58   0.0000       1.428955        38.8838 
  59   0.0000       1.491122        40.5755 
  60   0.0000       1.510003        41.0893 
  61   0.0000       1.529729        41.6261 
  62   0.0000       1.572200        42.7817 
  63   0.0000       1.590774        43.2872 
  64   0.0000       1.605704        43.6934 
  65   0.0000       1.645455        44.7751 
  66   0.0000       1.706156        46.4269 
  67   0.0000       1.710057        46.5330 
  68   0.0000       1.737208        47.2718 
  69   0.0000       1.764784        48.0222 
  70   0.0000       1.905164        51.8422 
  71   0.0000       2.069321        56.3091 
  72   0.0000       2.369174        64.4685 
  73   0.0000       2.405796        65.4650 
  74   0.0000       2.484052        67.5945 
  75   0.0000       2.537541        69.0500 
  76   0.0000       2.592544        70.5467 
  77   0.0000       2.593109        70.5621 
  78   0.0000       2.639215        71.8167 
  79   0.0000       2.676923        72.8428 
  80   0.0000       2.725585        74.1669 
  81   0.0000       2.777743        75.5862 
  82   0.0000       2.852796        77.6285 
  83   0.0000       2.915283        79.3289 
  84   0.0000       2.916743        79.3686 
  85   0.0000       2.977109        81.0113 
  86   0.0000       3.031341        82.4870 
  87   0.0000       3.066037        83.4311 
  88   0.0000       3.071663        83.5842 
  89   0.0000       3.086757        83.9949 
  90   0.0000       3.115838        84.7863 
  91   0.0000       3.166023        86.1519 
  92   0.0000       3.174355        86.3786 
  93   0.0000       3.202461        87.1434 
  94   0.0000       3.208559        87.3093 
  95   0.0000       3.216118        87.5150 
  96   0.0000       3.252462        88.5040 
  97   0.0000       3.289172        89.5029 
  98   0.0000       3.299527        89.7847 
  99   0.0000       3.329380        90.5970 
 100   0.0000       3.356459        91.3339 
 101   0.0000       3.364402        91.5500 
 102   0.0000       3.417836        93.0040 
 103   0.0000       3.422771        93.1383 
 104   0.0000       3.455185        94.0204 
 105   0.0000       3.498498        95.1990 
 106   0.0000       3.557787        96.8123 
 107   0.0000       3.572280        97.2067 
 108   0.0000       3.583715        97.5178 
 109   0.0000       3.622723        98.5793 
 110   0.0000       3.623793        98.6084 
 111   0.0000       3.700507       100.6959 
 112   0.0000       3.729216       101.4771 
 113   0.0000       3.733209       101.5858 
 114   0.0000       3.746795       101.9555 
 115   0.0000       3.759539       102.3023 
 116   0.0000       3.836760       104.4036 
 117   0.0000       3.903416       106.2174 
 118   0.0000       3.910331       106.4055 
 119   0.0000       3.962046       107.8128 
 120   0.0000       3.989617       108.5630 
 121   0.0000       4.007935       109.0615 
 122   0.0000       4.043552       110.0306 
 123   0.0000       4.044500       110.0564 
 124   0.0000       4.082967       111.1032 
 125   0.0000       4.127757       112.3220 
 126   0.0000       4.178785       113.7105 
 127   0.0000       4.197650       114.2239 
 128   0.0000       4.221110       114.8623 
 129   0.0000       4.227217       115.0284 
 130   0.0000       4.261934       115.9731 
 131   0.0000       4.311347       117.3177 
 132   0.0000       4.325278       117.6968 
 133   0.0000       4.335928       117.9866 
 134   0.0000       4.372313       118.9767 
 135   0.0000       4.402065       119.7863 
 136   0.0000       4.402663       119.8025 
 137   0.0000       4.500875       122.4750 
 138   0.0000       4.508850       122.6920 
 139   0.0000       4.551493       123.8524 
 140   0.0000       4.567348       124.2839 
 141   0.0000       4.684060       127.4598 
 142   0.0000       4.685152       127.4895 
 143   0.0000       4.735373       128.8561 
 144   0.0000       4.779841       130.0661 
 145   0.0000       4.841634       131.7476 
 146   0.0000       4.933048       134.2350 
 147   0.0000       4.994497       135.9072 
 148   0.0000       5.042648       137.2174 
 149   0.0000       5.108860       139.0191 
 150   0.0000       5.113926       139.1570 
 151   0.0000       5.154831       140.2701 
 152   0.0000       5.240988       142.6145 
 153   0.0000       5.242386       142.6526 
 154   0.0000       5.301997       144.2747 
 155   0.0000       5.322205       144.8246 
 156   0.0000       5.379414       146.3813 
 157   0.0000       5.485447       149.2666 
 158   0.0000       5.493550       149.4871 
 159   0.0000       5.519035       150.1806 
 160   0.0000       5.573345       151.6584 
 161   0.0000       5.594526       152.2348 
 162   0.0000       5.621724       152.9749 
 163   0.0000       5.710950       155.4029 
 164   0.0000       5.753660       156.5650 
 165   0.0000       5.944184       161.7495 
 166   0.0000       6.196019       168.6023 
 167   0.0000       6.205970       168.8730 
 168   0.0000       6.264828       170.4746 
 169   0.0000       6.325245       172.1187 
 170   0.0000       6.570853       178.8020 
 171   0.0000      11.126752       302.7743 
 172   0.0000      13.707520       373.0006 
 173   0.0000      14.411130       392.1468 

                    ********************************
                    * MULLIKEN POPULATION ANALYSIS *
                    ********************************

-----------------------
MULLIKEN ATOMIC CHARGES
-----------------------
   0 C :   -0.227805
   1 C :   -0.108647
   2 C :   -0.331022
   3 H :    0.088232
   4 H :    0.087619
   5 H :    0.087619
   6 H :    0.143297
   7 H :    0.131899
   8 H :    0.128807
Sum of atomic charges:   -0.0000000

--------------------------------
MULLIKEN REDUCED ORBITAL CHARGES
--------------------------------
  0 C s       :     3.253065  s :     3.253065
      pz      :     0.986188  p :     2.893027
      px      :     0.914923
      py      :     0.991915
      dz2     :     0.013105  d :     0.076969
      dxz     :     0.024052
      dyz     :     0.005791
      dx2y2   :     0.021229
      dxy     :     0.012792
      f0      :     0.000247  f :     0.004744
      f+1     :     0.001301
      f-1     :     0.000685
      f+2     :     0.000288
      f-2     :     0.000126
      f+3     :     0.000588
      f-3     :     0.001511
  1 C s       :     3.225385  s :     3.225385
      pz      :     0.916705  p :     2.769396
      px      :     0.879772
      py      :     0.972919
      dz2     :     0.005469  d :     0.105383
      dxz     :     0.028738
      dyz     :     0.006106
      dx2y2   :     0.041041
      dxy     :     0.024029
      f0      :     0.001223  f :     0.008483
      f+1     :     0.000831
      f-1     :     0.000693
      f+2     :     0.000409
      f-2     :     0.000881
      f+3     :     0.002084
      f-3     :     0.002363
  2 C s       :     3.324519  s :     3.324519
      pz      :     1.006421  p :     2.916838
      px      :     0.938067
      py      :     0.972350
      dz2     :     0.007709  d :     0.082874
      dxz     :     0.014385
      dyz     :     0.005368
      dx2y2   :     0.036120
      dxy     :     0.019291
      f0      :     0.001011  f :     0.006791
      f+1     :     0.000620
      f-1     :     0.000593
      f+2     :     0.000206
      f-2     :     0.000704
      f+3     :     0.001386
      f-3     :     0.002271
  3 H s       :     0.881754  s :     0.881754
      pz      :     0.008224  p :     0.027833
      px      :     0.007195
      py      :     0.012415
      dz2     :     0.000231  d :     0.002180
      dxz     :     0.000022
      dyz     :     0.000565
      dx2y2   :     0.000600
      dxy     :     0.000763
  4 H s       :     0.882290  s :     0.882290
      pz      :     0.010072  p :     0.027887
      px      :     0.010203
      py      :     0.007612
      dz2     :     0.000618  d :     0.002204
      dxz     :     0.000660
      dyz     :     0.000404
      dx2y2   :     0.000333
      dxy     :     0.000189
  5 H s       :     0.882290  s :     0.882290
      pz      :     0.010071  p :     0.027887
      px      :     0.010203
      py      :     0.007613
      dz2     :     0.000618  d :     0.002204
      dxz     :     0.000660
      dyz     :     0.000404
      dx2y2   :     0.000333
      dxy     :     0.000189
  6 H s       :     0.829392  s :     0.829392
      pz      :     0.009317  p :     0.025090
      px      :     0.007761
      py      :     0.008012
      dz2     :     0.000174  d :     0.002221
      dxz     :     0.000015
      dyz     :     0.000566
      dx2y2   :     0.000494
      dxy     :     0.000971
  7 H s       :     0.841029  s :     0.841029
      pz      :     0.010088  p :     0.025030
      px      :     0.006896
      py      :     0.008047
      dz2     :     0.000165  d :     0.002042
      dxz     :     0.000572
      dyz     :     0.000065
      dx2y2   :     0.000537
      dxy     :     0.000703
  8 H s       :     0.844992  s :     0.844992
      pz      :     0.009778  p :     0.024093
      px      :     0.006461
      py      :     0.007854
      dz2     :     0.000177  d :     0.002108
      dxz     :     0.000012
      dyz     :     0.000617
      dx2y2   :     0.000537
      dxy     :     0.000766


                     *******************************
                     * LOEWDIN POPULATION ANALYSIS *
                     *******************************

----------------------
LOEWDIN ATOMIC CHARGES
----------------------
   0 C :    0.088163
   1 C :    0.007621
   2 C :    0.058370
   3 H :   -0.016146
   4 H :   -0.019136
   5 H :   -0.019138
   6 H :   -0.024955
   7 H :   -0.036599
   8 H :   -0.038180

-------------------------------
LOEWDIN REDUCED ORBITAL CHARGES
-------------------------------
  0 C s       :     2.671974  s :     2.671974
      pz      :     0.980637  p :     2.900625
      px      :     0.946279
      py      :     0.973709
      dz2     :     0.051941  d :     0.310318
      dxz     :     0.095505
      dyz     :     0.019045
      dx2y2   :     0.090400
      dxy     :     0.053427
      f0      :     0.001909  f :     0.028920
      f+1     :     0.005151
      f-1     :     0.004323
      f+2     :     0.002378
      f-2     :     0.004120
      f+3     :     0.004758
      f-3     :     0.006280
  1 C s       :     2.727278  s :     2.727278
      pz      :     0.815727  p :     2.811406
      px      :     1.008947
      py      :     0.986732
      dz2     :     0.024705  d :     0.415030
      dxz     :     0.091373
      dyz     :     0.015314
      dx2y2   :     0.172994
      dxy     :     0.110643
      f0      :     0.002354  f :     0.038665
      f+1     :     0.003377
      f-1     :     0.002612
      f+2     :     0.002401
      f-2     :     0.005785
      f+3     :     0.014041
      f-3     :     0.008094
  2 C s       :     2.735438  s :     2.735438
      pz      :     0.889656  p :     2.896319
      px      :     1.015778
      py      :     0.990885
      dz2     :     0.019516  d :     0.283243
      dxz     :     0.031059
      dyz     :     0.011902
      dx2y2   :     0.134418
      dxy     :     0.086348
      f0      :     0.000736  f :     0.026631
      f+1     :     0.002887
      f-1     :     0.002328
      f+2     :     0.001001
      f-2     :     0.003615
      f+3     :     0.008690
      f-3     :     0.007374
  3 H s       :     0.849008  s :     0.849008
      pz      :     0.036549  p :     0.141345
      px      :     0.033077
      py      :     0.071719
      dz2     :     0.002206  d :     0.025792
      dxz     :     0.000153
      dyz     :     0.008369
      dx2y2   :     0.006777
      dxy     :     0.008287
  4 H s       :     0.847486  s :     0.847486
      pz      :     0.059663  p :     0.145839
      px      :     0.046804
      py      :     0.039372
      dz2     :     0.008055  d :     0.025811
      dxz     :     0.006607
      dyz     :     0.005368
      dx2y2   :     0.003223
      dxy     :     0.002558
  5 H s       :     0.847487  s :     0.847487
      pz      :     0.059658  p :     0.145840
      px      :     0.046807
      py      :     0.039375
      dz2     :     0.008054  d :     0.025811
      dxz     :     0.006606
      dyz     :     0.005367
      dx2y2   :     0.003224
      dxy     :     0.002559
  6 H s       :     0.850806  s :     0.850806
      pz      :     0.037876  p :     0.148650
      px      :     0.032800
      py      :     0.077974
      dz2     :     0.002309  d :     0.025499
      dxz     :     0.000021
      dyz     :     0.007027
      dx2y2   :     0.007581
      dxy     :     0.008562
  7 H s       :     0.859399  s :     0.859399
      pz      :     0.042920  p :     0.151930
      px      :     0.065286
      py      :     0.043724
      dz2     :     0.002271  d :     0.025270
      dxz     :     0.006336
      dyz     :     0.001249
      dx2y2   :     0.007796
      dxy     :     0.007618
  8 H s       :     0.861431  s :     0.861431
      pz      :     0.042263  p :     0.151208
      px      :     0.031260
      py      :     0.077684
      dz2     :     0.002277  d :     0.025541
      dxz     :     0.000029
      dyz     :     0.007607
      dx2y2   :     0.007325
      dxy     :     0.008303


                      *****************************
                      * MAYER POPULATION ANALYSIS *
                      *****************************

  NA   - Mulliken gross atomic population
  ZA   - Total nuclear charge
  QA   - Mulliken gross atomic charge
  VA   - Mayer's total valence
  BVA  - Mayer's bonded valence
  FA   - Mayer's free valence

  ATOM       NA         ZA         QA         VA         BVA        FA
  0 C      6.2278     6.0000    -0.2278     3.8924     3.8924    -0.0000
  1 C      6.1086     6.0000    -0.1086     3.7696     3.7696    -0.0000
  2 C      6.3310     6.0000    -0.3310     3.8500     3.8500     0.0000
  3 H      0.9118     1.0000     0.0882     0.9858     0.9858    -0.0000
  4 H      0.9124     1.0000     0.0876     0.9778     0.9778     0.0000
  5 H      0.9124     1.0000     0.0876     0.9778     0.9778    -0.0000
  6 H      0.8567     1.0000     0.1433     0.9757     0.9757    -0.0000
  7 H      0.8681     1.0000     0.1319     0.9783     0.9783     0.0000
  8 H      0.8712     1.0000     0.1288     0.9778     0.9778     0.0000

  Mayer bond orders larger than 0.1
B(  0-C ,  1-C ) :   0.9548 B(  0-C ,  3-H ) :   0.9849 B(  0-C ,  4-H ) :   0.9756 
B(  0-C ,  5-H ) :   0.9756 B(  1-C ,  2-C ) :   1.8766 B(  1-C ,  6-H ) :   0.9619 
B(  2-C ,  7-H ) :   0.9764 B(  2-C ,  8-H ) :   0.9665 

-------
TIMINGS
-------

Total SCF time: 0 days 0 hours 0 min 3 sec 

Total time                  ....       3.181 sec
Sum of individual times     ....       3.013 sec  ( 94.7%)

Fock matrix formation       ....       2.766 sec  ( 87.0%)
Diagonalization             ....       0.020 sec  (  0.6%)
Density matrix formation    ....       0.004 sec  (  0.1%)
Population analysis         ....       0.008 sec  (  0.3%)
Initial guess               ....       0.150 sec  (  4.7%)
Orbital Transformation      ....       0.000 sec  (  0.0%)
Orbital Orthonormalization  ....       0.000 sec  (  0.0%)
DIIS solution               ....       0.000 sec  (  0.0%)
SOSCF solution              ....       0.019 sec  (  0.6%)


           ************************************************************
           *        Program running with 8 parallel MPI-processes     *
           *              working on a common directory               *
           ************************************************************


------------------------------------------------------------------------------- 
                              ORCA-MATRIX DRIVEN CI                            
------------------------------------------------------------------------------- 


Wavefunction type
-----------------
Correlation treatment                      ...      CCSD     
Single excitations                         ... ON
Orbital optimization                       ... OFF
Calculation of Z vector                    ... OFF
Calculation of Brueckner orbitals          ... OFF
Perturbative triple excitations            ... ON
Calculation of F12 correction              ... OFF
Frozen core treatment                      ... chemical core (6 el)
Reference Wavefunction                     ... RHF
  Internal Orbitals:     3 ...   11 (  9 MO's/ 18 electrons)
  Virtual  Orbitals:    12 ...  173 (162 MO's              )
Number of AO's                             ...    174
Number of electrons                        ...     24
Number of correlated electrons             ...     18

Algorithmic settings
--------------------
Integral transformation                    ... All integrals via the RI transformation
K(C) Formation                             ... RI-DLPNO
   PNO-Integral Storage                    ... ON DISK
   PNO occupation number cut-off           ... 1.000e-07
   Singles PNO occupation number cut-off   ... 3.000e-09
   PNO Mulliken prescreening cut-off       ... 1.000e-03
   Domain cut-off (Mulliken population)    ... 1.000e-03
   PNO Normalization                       ...    1
Maximum number of iterations               ...        50
Convergence tolerance (max. residuum)      ... 1.000e-05
Level shift for amplitude update           ... 2.000e-01
Maximum number of DIIS vectors             ...         7
DIIS turned on at iteration                ...         0
Damping before turning on DIIS             ...     0.500
Damping after turning on DIIS              ...     0.000
Pair specific amplitude update             ... OFF
Natural orbital iterations                 ... OFF
Perturbative natural orbital generation    ... OFF
Printlevel                                 ... 2

Singles Fock matrix elements calculated using PNOs.

Memory handling:
----------------
Maximum memory for working arrays          ...   8000 MB
Data storage in matrix containers          ... UNCOMPRESSED
Data type for integral storage             ... DOUBLE
In-Core Storage of quantities:
   Amplitudes+Sigma Vector      ... NO
   J+K operators                ... NO
   DIIS vectors                 ... NO
   3-external integrals         ... NO
   4-external integrals         ... NO

Localization treatment:
-----------------------
Localization option                        ...    6
Localization threshhold                    ... -1.0e+00
Using relative localization threshhold     ... 1.0e-08
Neglect threshold for strong pairs         ... 1.000e-05 Eh
Prescreening threshold for very weak pairs ... 1.000e-07 Eh

Initializing the integral package          ... done
Localizing the valence orbitals
------------------------------------------------------------------------------
                           ORCA ORBITAL LOCALIZATION
------------------------------------------------------------------------------

Input orbitals are from                  ... propene_H_H_anti.proc0.gbw
Output orbitals are to                   ... propene_H_H_anti.proc0.loc
Max. number of iterations                ... 128
Localizations seeded randomly            ... off
Convergence tolerance                    ... 1.000e-06
Using relative localization threshhold   ... 1.000e-08
Treshold for strong local MOs            ... 9.500e-01
Treshold for bond MOs                    ... 8.500e-01
Operator                                 ... 0
Orbital range for localization           ... 3 to 11
Localization criterion                   ... FOSTER-BOYS (AUGMENTED HESSIAN)
Doing the dipole integrals     ... o.k.
Initial value of the localization sum :    35.493981
ITERATION   0 : L=   58.5341586831 DL=  2.30e+01 (AVERGE_DL)=    0.8000030896 
ITERATION   1 : L=   62.9653256648 DL=  4.43e+00 (AVERGE_DL)=    0.3508389541 
ITERATION   2 : L=   63.0195041431 DL=  5.42e-02 (AVERGE_DL)=    0.0387937847 
ITERATION   3 : L=   63.0196188850 DL=  1.15e-04 (AVERGE_DL)=    0.0017852938 
ITERATION   4 : L=   63.0196195189 DL=  6.34e-07 (AVERGE_DL)=    0.0001327007 
LOCALIZATION SUM CONVERGED

------------------------------------------------------
AUGMENTED HESSIAN OPTIMIZATION OF FOSTER-BOYS ORBITALS
------------------------------------------------------

Spin operator:           0
Orbital window:          3 to 11
Number of iterations:    128
Gradient tolerance:      1.000e-06
Number of pairs:         36
Davidson threshold:      2000
Diagonalization method:  LAPACK
Iter:    0   L: 63.0196195189   Grad. norm: 3.585280e-04
   *** Likely close to a maximum now. ***
       Augmented Hessian eigenvalues:  3.89e-09 -5.55e+00 -1.73e+01 -1.77e+01 ... 
Iter:    1   L: 63.0196195208   Grad. norm: 7.612095e-10
LOCALIZATION HAS CONVERGED.

Eigenvalues of the Hessian:
  0 -5.553e+00
  1 -1.729e+01
  2 -1.768e+01
  3 -1.827e+01
  4 -1.893e+01
  5 -1.975e+01
  6 -2.001e+01
  7 -2.189e+01
  8 -2.275e+01
  9 -2.300e+01
    ...


------------------------------------------------------------------------------- 
                    LOCALIZED MOLECULAR ORBITAL COMPOSITIONS                   
------------------------------------------------------------------------------- 

The Mulliken populations for each LMO on each atom are computed
The LMO`s will be ordered according to atom index and type
  (A) Strongly localized MO`s have populations of >=0.950 on one atom
  (B) Two center bond orbitals have populations of >=0.850 on two atoms
  (C) Other MO`s are considered to be `delocalized`

FOUND  -   0 strongly local MO`s
       -   9 two center bond MO`s
       -   0 significantly delocalized MO`s

Bond-like localized orbitals:
MO  11:   8H  -   0.450547  and   2C  -   0.571755
MO  10:   7H  -   0.447550  and   2C  -   0.579946
MO   9:   6H  -   0.441079  and   1C  -   0.576905
MO   8:   5H  -   0.476615  and   0C  -   0.548294
MO   7:   4H  -   0.476615  and   0C  -   0.548292
MO   6:   3H  -   0.473262  and   0C  -   0.552279
MO   5:   2C  -   0.516556  and   1C  -   0.500660
MO   4:   2C  -   0.516564  and   1C  -   0.500651
MO   3:   1C  -   0.547615  and   0C  -   0.484613
Localized MO's were stored in: propene_H_H_anti.proc0.loc

Localizing the core orbitals
------------------------------------------------------------------------------
                           ORCA ORBITAL LOCALIZATION
------------------------------------------------------------------------------

Input orbitals are from                  ... propene_H_H_anti.proc0.loc
Output orbitals are to                   ... propene_H_H_anti.proc0.loc
Max. number of iterations                ... 128
Localizations seeded randomly            ... off
Convergence tolerance                    ... 1.000e-06
Using relative localization threshhold   ... 1.000e-08
Treshold for strong local MOs            ... 9.500e-01
Treshold for bond MOs                    ... 8.500e-01
Operator                                 ... 0
Orbital range for localization           ... 0 to 2
Localization criterion                   ... FOSTER-BOYS (AUGMENTED HESSIAN)
Doing the dipole integrals     ... o.k.
Initial value of the localization sum :    12.390931
ITERATION   0 : L=   12.3909342302 DL=  3.60e-06 (AVERGE_DL)=    0.0010953621 
ITERATION   1 : L=   12.3909342302 DL=  0.00e+00 (AVERGE_DL)=    0.0000000000 
LOCALIZATION SUM CONVERGED

------------------------------------------------------
AUGMENTED HESSIAN OPTIMIZATION OF FOSTER-BOYS ORBITALS
------------------------------------------------------

Spin operator:           0
Orbital window:          0 to 2
Number of iterations:    128
Gradient tolerance:      1.000e-06
Number of pairs:         3
Davidson threshold:      2000
Diagonalization method:  LAPACK
Iter:    0   L: 12.3909342302   Grad. norm: 5.660399e-07
   *** Likely close to a maximum now. ***
       Augmented Hessian eigenvalues:  3.55e-15 -2.57e+01 -3.23e+01 -9.01e+01
Iter:    1   L: 12.3909342302   Grad. norm: 7.547339e-22
LOCALIZATION HAS CONVERGED.

Eigenvalues of the Hessian:
  0 -2.567e+01
  1 -3.235e+01
  2 -9.014e+01


------------------------------------------------------------------------------- 
                    LOCALIZED MOLECULAR ORBITAL COMPOSITIONS                   
------------------------------------------------------------------------------- 

The Mulliken populations for each LMO on each atom are computed
The LMO`s will be ordered according to atom index and type
  (A) Strongly localized MO`s have populations of >=0.950 on one atom
  (B) Two center bond orbitals have populations of >=0.850 on two atoms
  (C) Other MO`s are considered to be `delocalized`

FOUND  -   3 strongly local MO`s
       -   0 two center bond MO`s
       -   0 significantly delocalized MO`s

Rather strongly localized orbitals:
MO   2:   2C  -   1.000630
MO   1:   1C  -   1.000794
MO   0:   0C  -   1.001013
Localized MO's were stored in: propene_H_H_anti.proc0.loc

Warning: internal orbitals are localized - no re-canonicalization of internal orbitals

--------------------------
CLOSED-SHELL FOCK OPERATOR
--------------------------

RI-JK section for the Fock operator:
  RHF full Fock operator         ... done
  RHF frozen core Fock operator  ... done
Time needed for Fock operator              ...            0.605 sec
Reference energy                           ...   -117.112785754

--------------
DLPNO SETTINGS (2015 fully linear scaling implementation)
--------------

TCutMKN:           1.000e-03
TCutPAO:           1.000e-03
TCutPNO:           1.000e-07
TCutPNOSingles:    3.000e-09
TCutEN:            9.700e-01
TCutPAOExt:        1.000e-01
TCutPairs:         1.000e-05
TCutPre:           1.000e-07
TCutOSV:           1.000e-06
TCutDOij:          1.000e-05
TCutDO:            5.000e-03
TCutC:             1.000e-04
TCutCPAO:          1.000e-03
TCutCMO:           1.000e-03
TScaleDOMP2PreScr: 2.000e+00
TScaleMKNMP2PreScr:1.000e+01
TScalePNOMP2PreScr:1.000e+00
PAO overlap thresh 1.000e-08
Using PNOs for Singles Fock computation
Use new domains
Use fully linear algorithm
TCutTNO:           1.000e-09
TCutMP2Pairs:      1.000e-06
TCutDOStrong:      2.000e-03
TCutMKNStrong:     1.000e-02
TCutMKNWeak:       1.000e-01
TCutDOWeak:        4.000e-03
NTCutTNO:          1

--------------------------
Calculating differential overlap integrals ... ok
--------------------------
ELECTRON PAIR PRESCREENING
--------------------------

Dipole-based pair screening          .... used

   TCutDOij = 1.000000e-05
   TCutPre  = 1.000000e-07
   .... Finished loop over pairs
Total time spent in the prescreening                  ...     0.000 sec
sum of pair energies estimated for screened out pairs ...       0.000000000000 Eh
Thresholds for map construction and integral transformation for crude MP2:
   TCutMKN                    ...     1.0e-02
   TCutDO                     ...     1.0e-02
   TCutPairs                  ...     1.0e-05
   TCutPNO_CrudeMP2           ...     1.0e-07
   TCutPNOSingles_CrudeMP2    ...     3.0e-09
--------------------------------
LOCAL RI TRANSFORMATION (IAVPAO)
--------------------------------

Orbital window:       3 to 11
Number of PAOs:     174
Basis functions:    174 (66 shells)
Aux. functions:     423 (129 shells)

Processing maps (0.0 sec)
Average map sizes:
   Aux shells -> MOs               9.0
   Aux shells -> PAOs            174.0
   MOs        -> AO shells        66.0
   PAOs       -> AO shells        66.0

Calculating integrals (0.3 sec, 5.059 MB)
Sorting integrals (0.0 sec, 5.054 MB)
Total time for the integral transformation: 0.3 sec
--------------------------------
INITIAL GUESS AND PNO GENERATION
--------------------------------

PNO truncation parameters                   .... 
    PAOOverlapThresh   =        1.000e-08

    TCutPairs          =        1.000e-05
    TCutPNO            =        1.000e-07
    TCutPNOSingles     =        3.000e-09
    TCutMP2Pairs       =        1.000e-06
    TCutMKN            =        1.000e-02
    TCutDO             =        1.000e-02

Pair selection                          .... not used
Type of local MP2 treatment                 .... semi-local MP2
Strategy for PNO selection                  .... occupation number selection
Pair density normalization                  .... MP2 norm
Spin component scaling                      .... not used

   .... Finished loop over pairs
Making pair pair interaction lists          ... done

                       ===========================
                         45 OF   45 PAIRS ARE KEPT CCSD PAIRS
                          0 OF   45 PAIRS ARE KEPT MP2 PAIRS FOR (T)
                          0 OF   45 PAIRS ARE SKIPPED
                       ===========================

Total time spent in the initial guess                 ...     0.138 sec
SL-MP2 correlation energy (all non-screened pairs)    ...      -0.495950738986 Eh

Initial PNO correlation energy                        ...      -0.495668016073 Eh
sum of pair energies prescreened and skipped MP2 pairs...       0.000000000000 Eh
sum of pair energies of crude MP2 skipped pairs only  ...       0.000000000000 Eh
sum of MP2 pair energies for pairs that were not kept ...       0.000000000000 Eh
sum of PNO error estimates for the kept pairs         ...      -0.000282722914 Eh
                                                          --------------------
sum of all corrections                                         -0.000282722914
Initial total correlation energy                               -0.495950738986
Thresholds for map construction and integral transformation for fine MP2 and CCSD(T) calculation:
   TCutMKN   ...     1.0e-03
   TCutDO    ...     5.0e-03
   TCutPairs ...     1.0e-05
   TCutCMO   ...     1.0e-03
   TCutCPAO  ...     1.0e-03

Thresholds for map construction and integral transformation for strong Triples:
   TCutMKN   ...     1.0e-02
   TCutDO    ...     1.0e-02
   TCutCMO   ...     1.0e-03
   TCutCPAO  ...     1.0e-03

Thresholds for map construction and integral transformation for weak Triples:
   TCutMKN   ...     1.0e-01
   TCutDO    ...     2.0e-02
   TCutCMO   ...     1.0e-03
   TCutCPAO  ...     1.0e-03

--------------------------------
LOCAL RI TRANSFORMATION (IAVPAO)
--------------------------------

Orbital window:       3 to 11
Number of PAOs:     174
Basis functions:    174 (66 shells)
Aux. functions:     423 (129 shells)

Processing maps (0.0 sec)
Average map sizes:
   Aux shells -> MOs               9.0
   Aux shells -> PAOs            174.0
   MOs        -> AO shells        66.0
   PAOs       -> AO shells        66.0

Calculating integrals (0.3 sec, 5.059 MB)
Sorting integrals (0.0 sec, 5.054 MB)
Total time for the integral transformation: 0.3 sec
--------------------------------
INITIAL GUESS AND PNO GENERATION
--------------------------------

PNO truncation parameters                   .... 
    ScaleTCutPNO       =        1.000e-02
    PAOOverlapThresh   =        1.000e-08

    TCutPairs          =        1.000e-05
    TCutPNO            =        1.000e-07
    TCutPNOSingles     =        3.000e-09
    TCutMP2Pairs       =        1.000e-06
    TCutMKN            =        1.000e-03
    TCutDO             =        5.000e-03

Pair selection                          .... not used
Type of local MP2 treatment                 .... full local PMP2
Strategy for PNO selection                  .... occupation number selection
Pair density normalization                  .... MP2 norm
Spin component scaling                      .... not used

PASS-1: Formation of initial guess LMP2 amplitudes
Initial amplitudes guess done. Entering LMP2 iteration loop:
   Max. no of iterations          ...  50
   Energy convergence tolerance   ...    1.0e-07
   Residual convergence tolerance ...    5.0e-07
   Fock matrix cutoff             ...    1.0e-05 Eh
   DIIS convergence acceleration parameters:
        Max # vectors in DIIS     ... 7
        Start iteration of DIIS   ... 0
        Levelshift                ... 2.000e-01
        Damping factor 1          ... 5.000e-01
        Damping factor 2          ... 1.000e+00
   L-MP2 PNO cut-off              ...   1.0e-09
   L-MP2 PNO cut-off (core)       ...   1.0e-11
                           *** Turning on DIIS ***
LMP2-Iter=   0:  ELMP2= -0.504518350086  DE=   8.5e-03 RMAX=   1.6e-02
LMP2-Iter=   1:  ELMP2= -0.509654268007  DE=   5.1e-03 RMAX=   6.6e-03
LMP2-Iter=   2:  ELMP2= -0.510663161611  DE=   1.0e-03 RMAX=   2.5e-03
LMP2-Iter=   3:  ELMP2= -0.510770926209  DE=   1.1e-04 RMAX=   7.1e-04
LMP2-Iter=   4:  ELMP2= -0.510757779619  DE=   1.3e-05 RMAX=   1.6e-04
LMP2-Iter=   5:  ELMP2= -0.510755779570  DE=   2.0e-06 RMAX=   3.1e-05
LMP2-Iter=   6:  ELMP2= -0.510755694041  DE=   8.6e-08 RMAX=   4.1e-06
LMP2-Iter=   7:  ELMP2= -0.510755778908  DE=   8.5e-08 RMAX=   5.2e-07
LMP2-Iter=   8:  ELMP2= -0.510755791531  DE=   1.3e-08 RMAX=   8.0e-08 => CONVERGED
PASS-2: Formation of Pair natural orbitals
   .... Finished loop over pairs

 PNO Occupation Number Statistics: 
  | Av. % of trace(Dij) retained        ...  99.897694585022
  | sigma^2 in % of trace(Dij) retained ...   1.97e-02
  | Av. % of trace(Di) retained         ...  99.999798126598
  | sigma^2 in % of trace(Di) retained  ...   2.09e-09
 Distributions of % trace(Dij) recovered:
  |       >= 99.9  ...    26 ( 57.8 % of all pairs)
  |   [99.0, 99.9) ...    19 ( 42.2 % of all pairs)
 Distributions of % trace(Di) recovered :
  |       >= 99.9  ...     9 (100.0 % of all I-pairs )

Making pair pair interaction lists          ... done

                       ===========================
                         45 OF   45 PAIRS ARE KEPT
                       ===========================

Total time spent in the initial guess                 ...     1.313 sec
L-MP2 correlation energy (all non-screened pairs)     ...      -0.510755791531 Eh
L-MP2 PNO error correction                            ...      -0.000003300682 Eh
                                                          --------------------
Initial total L-MP2 energy (non-screened pairs)       ...      -0.510759092213 Eh

Initial PNO correlation energy                        ...      -0.510484938250 Eh
sum of pair energies estimated for screened out pairs ...       0.000000000000 Eh
sum of MP2 pair energies for pairs that were not kept ...       0.000000000000 Eh
sum of PNO error estimates for the kept pairs         ...      -0.000274153963 Eh
                                                          --------------------
sum of all corrections                                         -0.000274153963
Initial total correlation energy                               -0.510759092213
Thresholds for map construction and integral transformation for fine MP2 and CCSD(T) calculation:
   TCutMKN   ...     1.0e-03
   TCutDO    ...     5.0e-03
   TCutPairs ...     1.0e-05
   TCutCMO   ...     1.0e-03
   TCutCPAO  ...     1.0e-03

Time for aux screen maps:            0.001
Time for maps after fine MP2:            0.003
-----------------------------
LOCAL RI TRANSFORMATION (IJV)
-----------------------------

Orbital window:       3 to 11
Basis functions:    174 (66 shells)
Aux. functions:     423 (129 shells)

Processing maps (0.0 sec)
Average map sizes:
   Aux shells -> MOs(i)            9.0
   Aux shells -> MOs(j)            9.0
   MOs        -> AO shells        66.0

Calculating integrals (0.3 sec, 0.266 MB)
Sorting integrals (0.0 sec, 0.262 MB)
Total time for the integral transformation: 0.3 sec
--------------------------------
LOCAL RI TRANSFORMATION (VABPAO)
--------------------------------

Number of PAOs:     174
Basis functions:    174 (66 shells)
Aux. functions:     423 (129 shells)

Processing maps (0.0 sec)
Average map sizes:
   Aux shells -> PAOs            174.0
   PAOs       -> AO shells        66.0

Calculating integrals (0.4 sec, 183.182 MB)
Finished


-------------------------------------
Pair Pair Term precalculation with     
RI-(ij|mn) and (im|jn) transformation  
ON THE FLY                             
-------------------------------------

   IBatch   1 (of   1)              ... done (    3.477 sec)
Total EXT                           ...           3.477 sec

---------------------
RI-PNO TRANSFORMATION
---------------------

Total Number of PNOs                   ...  2521
Average number of PNOs per pair        ...    56
Maximal number of PNOs per pair        ...    75
   #pairs with  1 -  5 PNOs   :    0
   #pairs with  6 - 10 PNOs   :    0
   #pairs with 11 - 15 PNOs   :    0
   #pairs with 16 - 20 PNOs   :    0
   #pairs with 21 - 25 PNOs   :    0
   #pairs with 26 - 30 PNOs   :    0
   #pairs with 31 - 35 PNOs   :    4
   #pairs with 36 - 40 PNOs   :    2
   #pairs with 41 - 45 PNOs   :    0
   #pairs with 46 - 50 PNOs   :    5
   #pairs with 51 - 55 PNOs   :   10
   #pairs with 56 - 60 PNOs   :    5
   #pairs with 61 - 65 PNOs   :   13
   #pairs with 66 - 70 PNOs   :    5
   #pairs with 71 - 75 PNOs   :    1

Generation of (ij|ab)[P] integrals            ... on
Generation of (ia|bc)[P],(ja|bc)[P] integrals ... on
Storage of 3 and 4 external integrals         ... on
Generation of ALL (ka|bc)[P] integrals        ... on
Keep RI integrals in memory                   ... off

Ibatch:  1 (of  1)
Starting 2-4 index PNO integral generation ... done

Timings:
Total PNO integral transformation time     ...          3.546 sec
Size of the 3-external file                ...        67 MB
Size of the 4-external file                ...       522 MB
Size of the IKJL file                      ...         0 MB
Size of the all 3-external file            ...       303 MB
Size of the 1-external file                ...         0 MB

Making pair/pair overlap matrices          ... done (    0.109 sec)
Size of the pair overlap file              ... 41 MB
Redoing the guess amplitudes               ... done (    0.001 sec)

-------------------------
FINAL STARTUP INFORMATION
-------------------------

E(0)                                       ...   -117.112785754
E(L-MP2)                                   ...     -0.510759092
E(L-MP2) including corrections             ...     -0.510759092
Initial E(tot)                             ...   -117.623544846
<T|T>                                      ...      0.153613945
Number of pairs included                   ... 45
Total number of pairs                      ... 45

------------------------------------------------
                  RHF COUPLED CLUSTER ITERATIONS
------------------------------------------------

Number of PNO amplitudes to be optimized   ...       146157
Number of non-PNO amplitudes               ...      1180980
Untruncated number of regular amplitudes   ...      1180980

Iter       E(tot)           E(Corr)          Delta-E          Residual     Time
  0   -117.608752540     -0.495692632      0.015066461      0.017258890    4.22
                           *** Turning on DIIS ***
  1   -117.637452810     -0.524392901     -0.028700270      0.011852025    4.23
  2   -117.653269495     -0.540209587     -0.015816686      0.006950565    3.95
  3   -117.656702339     -0.543642431     -0.003432844      0.003727431    3.70
  4   -117.657726290     -0.544666382     -0.001023951      0.001879198   13.65
  5   -117.658063653     -0.545003744     -0.000337363      0.000617848    4.34
  6   -117.658143938     -0.545084030     -0.000080286      0.000163860    5.53
  7   -117.658149471     -0.545089563     -0.000005533      0.000035430    3.85
  8   -117.658148055     -0.545088147      0.000001416      0.000020871    3.69
  9   -117.658147201     -0.545087293      0.000000854      0.000011371    4.31
 10   -117.658147068     -0.545087159      0.000000133      0.000005413    4.32
               --- The Coupled-Cluster iterations have converged ---

----------------------
COUPLED CLUSTER ENERGY
----------------------

E(0)                                       ...   -117.112785754
E(CORR)(strong-pairs)                      ...     -0.545087159
E(CORR)(weak-pairs)                        ...     -0.000274154
E(CORR)(corrected)                         ...     -0.545361313
E(TOT)                                     ...   -117.658147068
Singles Norm <S|S>**1/2                    ...      0.042525958  
T1 diagnostic                              ...      0.010023465  

------------------
LARGEST AMPLITUDES
------------------
   5-> 12   5-> 12       0.062017
   4-> 12   4-> 12       0.062016
   5-> 12   4-> 12       0.055659
   7-> 19   7-> 19       0.037879
   8-> 19   8-> 19       0.037878
   6-> 19   6-> 19       0.035985
  11-> 19  11-> 19       0.035437
   7-> 19   7-> 12       0.028804
   7-> 12   7-> 19       0.028804
   8-> 19   8-> 12       0.028803
   8-> 12   8-> 19       0.028803
   6-> 12   6-> 12       0.028107
   6-> 12   6-> 19       0.027662
   6-> 19   6-> 12       0.027662
   8-> 12   8-> 12       0.027440
   7-> 12   7-> 12       0.027439


-------------------------------------------
DLPNO BASED TRIPLES CORRECTION
-------------------------------------------

Singles multiplier          ...  1.000000
TCutTNO                     ... 1.000e-09
TCutMP2Pairs                ... 1.000e-06
TCutDOStrong                ... 1.000e-02
TCutMKNStrong               ... 1.000e-02
TCutDOWeak                  ... 2.000e-02
TCutMKNWeak                 ... 1.000e-01

Fragment selection                          .... not used
Number of Triples that are to be computed   ...       156

 . . . . . . . . .
10% done  
20% done  
30% done  
40% done  
50% done  
60% done  
70% done  
80% done  
90% done               (      7.391 sec)
Triples timings:
Total time for T0               ...     7.725 sec
Total time for Iterative (T)    ...     0.000 sec
Total time of overall (T)       ...     8.426 sec

Triples List generation         ...     0.000 sec
TNO generation                  ...     0.331 sec
Pair density generation         ...     0.002 sec
Look up tables                  ...     0.000 sec
Generating 3-index integrals    ...     2.658 sec
  Make 4-ind.int. from 3-ind.int...     1.666 sec
  Projecting amplitudes (D + S) ...     0.273 sec
  Downprojecting integrals      ...     0.000 sec
  Energy contr. (sum over a,b,c)...     0.761 sec
Fitting ET(->0)                 ...     0.000 sec

Everything after 3-index        ...     4.733 sec

Timing details:
 TNO integrals                  ...     4.208 sec
   Reading 3-index integrals    ...     0.032 sec
   Sorting integrals            ...     0.945 sec
       Sorting integrals 1      ...     0.000 sec
       Sorting integrals 2      ...     0.144 sec
       Sorting integrals 3      ...     0.034 sec
       Sorting integrals 4      ...     0.001 sec
       Sorting integrals 5      ...     0.005 sec
       Sorting integrals 6      ...     0.761 sec
   Calculating local VM**-1/2   ...     0.015 sec
   Orthogonal. integrals        ...     0.046 sec
   Multipl. 3-index integrals   ...     3.171 sec
   All concerning IRIab (w/TNO) ...     0.796 sec

 Calculate W0/W1                ...     2.029 sec
 W 3-ext contribution           ...     1.168 sec
 W 3-int contribution           ...     0.232 sec
 Sorting W                      ...     0.598 sec

 V exchange contribution        ...     0.270 sec

 Timings for Triples without generation
     of 3-index integrals       ...     4.733 sec
       0 weak pairs             ...     4.733 sec
       1 weak pair              ...     0.000 sec
       2 weak pairs             ...     0.000 sec
       3 weak pairs             ...     0.000 sec
  Extra time for extrapolation  ...     0.000 sec

Number of Triples   (0, 1, 2, 3 weak pairs; overall):    156       0       0       0  (   156)
Number of Atoms     (0, 1, 2, 3 weak pairs; overall):    9.0     0.0     0.0     0.0  (     9)
Number of PAOs      (0, 1, 2, 3 weak pairs; overall):  173.8     0.0     0.0     0.0  (   174)
Number of AuxFcns   (0, 1, 2, 3 weak pairs; overall):  269.9     0.0     0.0     0.0  (   423)
Number of TNOs      (0, 1, 2, 3 weak pairs         ):  107.7     0.0     0.0     0.0
Aver. Number of NTNO, Atoms, PAOs, AuxFcns / Triples:    156   107.7     9.0   173.8   269.9

Triples Correction (T)                     ...     -0.022030551
Final correlation energy                   ...     -0.567391865
E(CCSD)                                    ...   -117.658147068
E(CCSD(T))                                 ...   -117.680177619


Maximum memory used throughout the entire calculation: 1145.9 MB


------------------------------------------------------------------------------- 
                                     TIMINGS                                   
------------------------------------------------------------------------------- 


Total execution time                   ...       75.951 sec

Localization of occupied MO's          ...        0.409 sec (  0.5%)
Fock Matrix Formation                  ...        0.605 sec (  0.8%)
Global overlap, Fock, MKN matrices     ...        0.119 sec (  0.2%)
Differential overlap integrals         ...        0.036 sec (  0.0%)
Organizing maps                        ...        0.008 sec (  0.0%)
RI 3-index integral generations        ...        1.327 sec (  1.7%)
RI-PNO integral transformation         ...        7.470 sec (  9.8%)
Initial Guess                          ...        1.467 sec (  1.9%)
DIIS Solver                            ...        1.821 sec (  2.4%)
State Vector Update                    ...        0.016 sec (  0.0%)
Sigma-vector construction              ...       54.250 sec ( 71.4%)
  <D|H|D>(0-ext)                       ...        0.304 sec (  0.6% of sigma)
  <D|H|D>(2-ext Fock)                  ...        0.005 sec (  0.0% of sigma)
  <D|H|D>(2-ext)                       ...        1.098 sec (  2.0% of sigma)
  <D|H|D>(4-ext)                       ...        8.420 sec ( 15.5% of sigma)
  <D|H|D>(4-ext-corr)                  ...       30.092 sec ( 55.5% of sigma)
  CCSD doubles correction              ...        0.033 sec (  0.1% of sigma)
  <S|H|S>                              ...        0.254 sec (  0.5% of sigma)
  <S|H|D>(1-ext)                       ...        0.060 sec (  0.1% of sigma)
  <D|H|S>(1-ext)                       ...        0.002 sec (  0.0% of sigma)
  <S|H|D>(3-ext)                       ...        0.252 sec (  0.5% of sigma)
  Fock-dressing                        ...       12.524 sec ( 23.1% of sigma)
  Singles amplitudes                   ...        0.067 sec (  0.1% of sigma)
  (ik|jl)-dressing                     ...        0.235 sec (  0.4% of sigma)
  (ij|ab),(ia|jb)-dressing             ...        0.814 sec (  1.5% of sigma)
  Pair energies                        ...        0.004 sec (  0.0% of sigma)
Total Time for computing (T)           ...        8.433 sec ( 11.1% of ALL)


-------------------------   --------------------
FINAL SINGLE POINT ENERGY      -117.680177618967
-------------------------   --------------------


                            ***************************************
                            *     ORCA property calculations      *
                            ***************************************

                                    ---------------------
                                    Active property flags
                                    ---------------------
   (+) Dipole Moment


------------------------------------------------------------------------------
                       ORCA ELECTRIC PROPERTIES CALCULATION
------------------------------------------------------------------------------

Dipole Moment Calculation                       ... on
Quadrupole Moment Calculation                   ... off
Polarizability Calculation                      ... off
GBWName                                         ... propene_H_H_anti.gbw
Electron density file                           ... propene_H_H_anti.scfp.tmp
The origin for moment calculation is the CENTER OF MASS  = (-0.048006, -0.019900 -0.000004)

-------------
DIPOLE MOMENT
-------------
                                X             Y             Z
Electronic contribution:     -1.00742      -0.50994      -0.00002
Nuclear contribution   :      1.15210       0.47767       0.00003
                        -----------------------------------------
Total Dipole Moment    :      0.14468      -0.03227       0.00001
                        -----------------------------------------
Magnitude (a.u.)       :      0.14824
Magnitude (Debye)      :      0.37679



--------------------
Rotational spectrum 
--------------------
 
Rotational constants in cm-1:     1.496772     0.309453     0.269948 
Rotational constants in MHz : 44872.096342  9277.167960  8092.832028 

 Dipole components along the rotational axes: 
x,y,z [a.u.] :     0.144811     0.031680     0.000008 
x,y,z [Debye]:     0.368081     0.080525     0.000019 

 

Timings for individual modules:

Sum of individual times         ...       79.818 sec (=   1.330 min)
GTO integral calculation        ...        0.417 sec (=   0.007 min)   0.5 %
SCF iterations                  ...        3.296 sec (=   0.055 min)   4.1 %
MDCI module                     ...       76.105 sec (=   1.268 min)  95.3 %
                             ****ORCA TERMINATED NORMALLY****
TOTAL RUN TIME: 0 days 0 hours 1 minutes 20 seconds 83 msec
propene_H_H_anti.gbw -> /home1/pantazis/klk/xyz/Energy_barrier/propene_H_H_anti.gbw
propene_H_H_anti.job -> /home1/pantazis/klk/xyz/Energy_barrier/propene_H_H_anti.job
propene_H_H_anti.loc -> /home1/pantazis/klk/xyz/Energy_barrier/propene_H_H_anti.loc
propene_H_H_anti.nodes -> /home1/pantazis/klk/xyz/Energy_barrier/propene_H_H_anti.nodes
propene_H_H_anti.prop -> /home1/pantazis/klk/xyz/Energy_barrier/propene_H_H_anti.prop
propene_H_H_anti_property.txt -> /home1/pantazis/klk/xyz/Energy_barrier/propene_H_H_anti_property.txt
propene_H_H_anti.xyz -> /home1/pantazis/klk/xyz/Energy_barrier/propene_H_H_anti.xyz
cp: cannot stat propene_H_H_anti.asa.inp: No such file or directory
