! Job execution by suborca V 6.07 on ZEUS !
Job started from zeus1, running /scratch/pantazis/sulfolane_halfchair__bZBkID/orca/orca copied from /opt/orca on zeussn125 in /scratch/pantazis/sulfolane_halfchair__bZBkID
Job execution start: Thu Jun 27 11:09:59 CEST 2019
Shared library path: /scratch/pantazis/sulfolane_halfchair__bZBkID/orca:/opt/openmpi_1.10.2/lib:/opt/intel/mkl/lib/intel64:/opt/intel/lib/intel64:
PBS Job ID is: 158002.icqc
izeussn125
izeussn125
izeussn125
izeussn125
izeussn125
izeussn125
izeussn125
izeussn125

                                 *****************
                                 * O   R   C   A *
                                 *****************

           --- An Ab Initio, DFT and Semiempirical electronic structure package ---

                  #######################################################
                  #                        -***-                        #
                  #          Department of theory and spectroscopy      #
                  #               Directorship: Frank Neese             #
                  #        Max Planck Institute fuer Kohlenforschung    #
                  #                Kaiser Wilhelm Platz 1               #
                  #                 D-45470 Muelheim/Ruhr               #
                  #                      Germany                        #
                  #                                                     #
                  #                  All rights reserved                #
                  #                        -***-                        #
                  #######################################################


                         Program Version 4.1.x  -  STABLE  -
                                (SVN: $Rev: 14094$)
                ($Date: 2019-06-14 15:01:15 +0200 (Fri, 14 Jun 2019) $)

                         (BUILD: $Sun Jun 23 06:18:31 CEST 2019$)


 With contributions from (in alphabetic order):
   Daniel Aravena         : Magnetic Properties
   Michael Atanasov       : Ab Initio Ligand Field Theory
   Alexander A. Auer      : GIAO ZORA
   Ute Becker             : Parallelization
   Giovanni Bistoni       : ED, Open-shell LED
   Martin Brehm           : Molecular dynamics
   Dmytro Bykov           : SCF Hessian
   Vijay G. Chilkuri      : MRCI spin determinant printing
   Dipayan Datta          : RHF DLPNO-CCSD density
   Achintya Kumar Dutta   : EOM-CC, STEOM-CC
   Dmitry Ganyushin       : Spin-Orbit,Spin-Spin,Magnetic field MRCI
   Miquel Garcia          : C-PCM Hessian
   Yang Guo               : DLPNO-NEVPT2, CIM, IAO-localization
   Andreas Hansen         : Spin unrestricted coupled pair/coupled cluster methods
   Benjamin Helmich-Paris : CASSCF linear response (MC-RPA)
   Lee Huntington         : MR-EOM, pCC
   Robert Izsak           : Overlap fitted RIJCOSX, COSX-SCS-MP3, EOM
   Christian Kollmar      : KDIIS, OOCD, Brueckner-CCSD(T), CCSD density
   Simone Kossmann        : Meta GGA functionals, TD-DFT gradient, OOMP2, MP2 Hessian
   Martin Krupicka        : AUTO-CI
   Lucas Lang             : DCDCAS
   Dagmar Lenk            : GEPOL surface, SMD
   Dimitrios Liakos       : Extrapolation schemes; parallel MDCI
   Dimitrios Manganas     : ROCIS; embedding schemes
   Dimitrios Pantazis     : SARC Basis sets
   Taras Petrenko         : DFT Hessian,TD-DFT gradient, ASA, ECA, R-Raman, ABS, FL, XAS/XES, NRVS
   Peter Pinski           : DLPNO-MP2, DLPNO-MP2 Gradient
   Christoph Reimann      : Effective Core Potentials
   Marius Retegan         : Local ZFS, SOC
   Christoph Riplinger    : Optimizer, TS searches, QM/MM, DLPNO-CCSD(T), (RO)-DLPNO pert. Triples
   Tobias Risthaus        : Range-separated hybrids, TD-DFT gradient, RPA, STAB
   Michael Roemelt        : Restricted open shell CIS
   Masaaki Saitow         : Open-shell DLPNO
   Barbara Sandhoefer     : DKH picture change effects
   Avijit Sen             : IP-ROCIS
   Kantharuban Sivalingam : CASSCF convergence, NEVPT2, FIC-MRCI
   Bernardo de Souza      : ESD, SOC TD-DFT
   Georgi Stoychev        : AutoAux, RI-MP2 NMR
   Willem Van den Heuvel  : Paramagnetic NMR
   Boris Wezisla          : Elementary symmetry handling
   Frank Wennmohs         : Technical directorship


 We gratefully acknowledge several colleagues who have allowed us to
 interface, adapt or use parts of their codes:
   Stefan Grimme, W. Hujo, H. Kruse,             : VdW corrections, initial TS optimization,
                  C. Bannwarth                     DFT functionals, gCP, sTDA/sTD-DF
   Ed Valeev                                     : LibInt (2-el integral package), F12 methods
   Garnet Chan, S. Sharma, J. Yang, R. Olivares  : DMRG
   Ulf Ekstrom                                   : XCFun DFT Library
   Mihaly Kallay                                 : mrcc  (arbitrary order and MRCC methods)
   Andreas Klamt, Michael Diedenhofen            : otool_cosmo (COSMO solvation model)
   Jiri Pittner, Ondrej Demel                    : Mk-CCSD
   Frank Weinhold                                : gennbo (NPA and NBO analysis)
   Christopher J. Cramer and Donald G. Truhlar   : smd solvation model
   Lars Goerigk                                  : TD-DFT with DH, B97 family of functionals
   V. Asgeirsson, H. Jonsson                     : NEB implementation
   FAccTs GmbH                                   : IRC, NEB, NEB-TS, Multilevel


 Your calculation uses the libint2 library for the computation of 2-el integrals
 For citations please refer to: http://libint.valeyev.net

 This ORCA versions uses:
   CBLAS   interface :  Fast vector & matrix operations
   LAPACKE interface :  Fast linear algebra routines
   SCALAPACK package :  Parallel linear algebra routines




***************************************
The coordinates will be read from file: sulfolane_halfchair.xyz
***************************************


----- Orbital basis set information -----
Your calculation utilizes the basis: cc-pVTZ 
       H, B-Ne : Obtained from the ccRepo (grant-hill.group.shef.ac.uk/ccrepo) Feb. 2017
                 T. H. Dunning, Jr., J. Chem. Phys. 90, 1007 (1989)
            He : Obtained from the ccRepo (grant-hill.group.shef.ac.uk/ccrepo) Feb. 2017
                 D. E. Woon, T. H. Dunning, Jr., J. Chem. Phys. 100, 2975 (1994)
  Li-Be, Na-Mg : Obtained from the ccRepo (grant-hill.group.shef.ac.uk/ccrepo) Feb. 2017
                 B. P. Prascher, D. E. Woon, K. A. Peterson, T. H. Dunning, Jr., A. K. Wilson, Theor. Chem. Acc. 128, 69 (2011)
         Al-Ar : Obtained from the ccRepo (grant-hill.group.shef.ac.uk/ccrepo) Feb. 2017
                 D. E. Woon, T. H. Dunning, Jr., J. Chem. Phys. 98, 1358 (1993)
            Ca : Obtained from the Peterson Research Group Website (tyr0.chem.wsu.edu/~kipeters) Feb. 2017
                 J. Koput, K. A. Peterson, J. Phys. Chem. 106, 9595 (2002)
         Sc-Zn : Obtained from the ccRepo (grant-hill.group.shef.ac.uk/ccrepo) Feb. 2017
                 N. B. Balabanov, K. A. Peterson, J. Chem. Phys. 123, 064107 (2005)
                 N. B. Balabanov, K. A. Peterson, J. Chem. Phys. 125, 074110 (2006)
         Ga-Kr : Obtained from the ccRepo (grant-hill.group.shef.ac.uk/ccrepo) Feb. 2017
                 A. K. Wilson, D. E. Woon, K. A. Peterson, T. H. Dunning, Jr., J. Chem. Phys. 110, 7667 (1999)
             Y : Obtained from the ccRepo (grant-hill.group.shef.ac.uk/ccrepo) Feb. 2017
                 K. A. Peterson, D. Figgen, M. Dolg, H. Stoll, J. Chem. Phys. 126, 124101 (2007)
        Ag, Au : Obtained from the Peterson Research Group Website (tyr0.chem.wsu.edu/~kipeters) Feb. 2017
                 K. A. Peterson, C. Puzzarini, Theor. Chem. Acc. 114, 283 (2005)

----- AuxC basis set information -----
Your calculation utilizes the auxiliary basis: cc-pVTZ/C 
  Obtained from the EMSL Basis Set Exchange (bse.pnl.gov) Feb. 2017
  H-He, B-F, Al-Ar, Ga-Kr : F. Weigend, A. Kohn, C. Hattig, J. Chem. Phys. 116, 3175 (2002)
             Li-Be, Na-Mg : C. Haettig, Phys. Chem. Chem. Phys. 7, 59 (2005)
                       Ne : C. Haettig, Phys. Chem. Chem. Phys. 7, 59 (2005)
                            F. Weigend, A. Kohn, C. Hattig, J. Chem. Phys. 116, 3175 (2002)
                    Sc-Zn : J. G. Hill, J. A. Platts, J. Chem. Phys. 128, 044104 (2008)

----- AuxJK basis set information -----
Your calculation utilizes the auxiliary basis: cc-pVTZ/JK 
  H, B-F, Al-Cl, Ga-Br : Obtained from the TURBOMOLE 7.0 basis set library

================================================================================
                                        WARNINGS
                       Please study these warnings very carefully!
================================================================================


WARNING: MDCI localization with Augmented Hessian Foster-Boys
  ===> : Switching off randomization!

WARNING: Post HF methods need fully converged wavefunctions
  ===> : Setting SCFConvForced true
         You can overwrite this default with %scf ConvForced false 


INFO   : the flag for use of LIBINT has been found!

================================================================================
                                       INPUT FILE
================================================================================
NAME = sulfolane_halfchair.inp
|  1> ! RHF DLPNO-CCSD(T) cc-pVTZ RIJK cc-pVTZ/JK cc-pVTZ/C
|  2> ! KDIIS SOSCF TightSCF TightPNO
|  3> 
|  4> %pal nprocs 8 end
|  5> 
|  6> %maxcore 8000
|  7> 
|  8> %scf maxiter 300
|  9>      shift shift 0.2 erroff 0.1 end
| 10> end
| 11> 
| 12> * xyzfile 0 1 sulfolane_halfchair.xyz 
| 13> 
| 14> 
| 15>                          ****END OF INPUT****
================================================================================

                       ****************************
                       * Single Point Calculation *
                       ****************************

---------------------------------
CARTESIAN COORDINATES (ANGSTROEM)
---------------------------------
  C     -1.786610    0.759340   -0.143550
  C     -0.451350    1.315790    0.363420
  S      0.788310    0.000020    0.000020
  C     -0.451270   -1.315700   -0.363680
  C     -1.786490   -0.759420    0.143570
  O      1.522520   -0.334650    1.236600
  O      1.522890    0.334600   -1.236370
  H     -0.114460    2.225780   -0.135470
  H     -0.438830    1.452260    1.447490
  H     -0.114310   -2.225830    0.134930
  H     -0.438840   -1.451870   -1.447790
  H     -1.879800   -0.934590    1.221540
  H     -2.627720   -1.260460   -0.344700
  H     -2.627800    1.260310    0.344850
  H     -1.880150    0.934480   -1.221510

----------------------------
CARTESIAN COORDINATES (A.U.)
----------------------------
  NO LB      ZA    FRAG     MASS         X           Y           Z
   0 C     6.0000    0    12.011   -3.376204    1.434945   -0.271270
   1 C     6.0000    0    12.011   -0.852928    2.486483    0.686764
   2 S    16.0000    0    32.060    1.489690    0.000038    0.000038
   3 C     6.0000    0    12.011   -0.852777   -2.486313   -0.687256
   4 C     6.0000    0    12.011   -3.375977   -1.435096    0.271308
   5 O     8.0000    0    15.999    2.877146   -0.632397    2.336835
   6 O     8.0000    0    15.999    2.877845    0.632302   -2.336401
   7 H     1.0000    0     1.008   -0.216298    4.206115   -0.256001
   8 H     1.0000    0     1.008   -0.829269    2.744374    2.735360
   9 H     1.0000    0     1.008   -0.216015   -4.206209    0.254981
  10 H     1.0000    0     1.008   -0.829287   -2.743637   -2.735927
  11 H     1.0000    0     1.008   -3.552307   -1.766119    2.308376
  12 H     1.0000    0     1.008   -4.965671   -2.381924   -0.651389
  13 H     1.0000    0     1.008   -4.965822    2.381641    0.651672
  14 H     1.0000    0     1.008   -3.552969    1.765911   -2.308319

--------------------------------
INTERNAL COORDINATES (ANGSTROEM)
--------------------------------
 C      0   0   0     0.000000000000     0.00000000     0.00000000
 C      1   0   0     1.532832166612     0.00000000     0.00000000
 S      2   1   0     1.843927104985   105.15412161     0.00000000
 C      3   2   1     1.843896793424    95.51386722   346.70266280
 C      4   3   2     1.532828251729   105.15108046   346.67731577
 O      3   2   1     1.476549501168   109.32835219   233.53441051
 O      3   2   1     1.476554023698   109.74265717    99.52789933
 H      2   1   3     1.091085653970   114.86659999   117.72111617
 H      2   1   3     1.092697843047   112.54747985   244.96892212
 H      4   3   2     1.091096050126   107.30488491   223.94818532
 H      4   3   2     1.092699073808   106.07940422   106.11594137
 H      5   4   3     1.096088776468   109.97505677   277.09216201
 H      5   4   3     1.094128231699   110.84678358   158.38982602
 H      1   2   3     1.094123446874   110.84699959   158.37417454
 H      1   2   3     1.096093751830   109.97457724   277.07465108

---------------------------
INTERNAL COORDINATES (A.U.)
---------------------------
 C      0   0   0     0.000000000000     0.00000000     0.00000000
 C      1   0   0     2.896633004162     0.00000000     0.00000000
 S      2   1   0     3.484517239337   105.15412161     0.00000000
 C      3   2   1     3.484459958787    95.51386722   346.70266280
 C      4   3   2     2.896625606106   105.15108046   346.67731577
 O      3   2   1     2.790274180386   109.32835219   233.53441051
 O      3   2   1     2.790282726729   109.74265717    99.52789933
 H      2   1   3     2.061853074654   114.86659999   117.72111617
 H      2   1   3     2.064899670486   112.54747985   244.96892212
 H      4   3   2     2.061872720541   107.30488491   223.94818532
 H      4   3   2     2.064901996286   106.07940422   106.11594137
 H      5   4   3     2.071307605990   109.97505677   277.09216201
 H      5   4   3     2.067602713302   110.84678358   158.38982602
 H      1   2   3     2.067593671294   110.84699959   158.37417454
 H      1   2   3     2.071317008060   109.97457724   277.07465108

---------------------
BASIS SET INFORMATION
---------------------
There are 4 groups of distinct atoms

 Group   1 Type C   : 18s5p2d1f contracted to 4s3p2d1f pattern {8811/311/11/1}
 Group   2 Type S   : 41s16p2d1f contracted to 5s4p2d1f pattern {13131311/7711/11/1}
 Group   3 Type O   : 18s5p2d1f contracted to 4s3p2d1f pattern {8811/311/11/1}
 Group   4 Type H   : 5s2p1d contracted to 3s2p1d pattern {311/11/1}

Atom   0C    basis set group =>   1
Atom   1C    basis set group =>   1
Atom   2S    basis set group =>   2
Atom   3C    basis set group =>   1
Atom   4C    basis set group =>   1
Atom   5O    basis set group =>   3
Atom   6O    basis set group =>   3
Atom   7H    basis set group =>   4
Atom   8H    basis set group =>   4
Atom   9H    basis set group =>   4
Atom  10H    basis set group =>   4
Atom  11H    basis set group =>   4
Atom  12H    basis set group =>   4
Atom  13H    basis set group =>   4
Atom  14H    basis set group =>   4
-------------------------------
AUXILIARY BASIS SET INFORMATION
-------------------------------
There are 4 groups of distinct atoms

 Group   1 Type C   : 8s6p5d3f1g contracted to 8s6p5d3f1g pattern {11111111/111111/11111/111/1}
 Group   2 Type S   : 10s8p7d5f2g contracted to 10s8p7d5f2g pattern {1111111111/11111111/1111111/11111/11}
 Group   3 Type O   : 8s6p5d3f1g contracted to 8s6p5d3f1g pattern {11111111/111111/11111/111/1}
 Group   4 Type H   : 4s3p2d1f contracted to 4s3p2d1f pattern {1111/111/11/1}

Atom   0C    basis set group =>   1
Atom   1C    basis set group =>   1
Atom   2S    basis set group =>   2
Atom   3C    basis set group =>   1
Atom   4C    basis set group =>   1
Atom   5O    basis set group =>   3
Atom   6O    basis set group =>   3
Atom   7H    basis set group =>   4
Atom   8H    basis set group =>   4
Atom   9H    basis set group =>   4
Atom  10H    basis set group =>   4
Atom  11H    basis set group =>   4
Atom  12H    basis set group =>   4
Atom  13H    basis set group =>   4
Atom  14H    basis set group =>   4
-------------------------------
AUXILIARY BASIS SET INFORMATION
-------------------------------
There are 4 groups of distinct atoms

 Group   1 Type C   : 10s7p5d2f1g contracted to 10s7p5d2f1g pattern {1111111111/1111111/11111/11/1}
 Group   2 Type S   : 13s11p9d3f1g contracted to 13s11p9d3f1g pattern {1111111111111/11111111111/111111111/111/1}
 Group   3 Type O   : 10s7p5d2f1g contracted to 10s7p5d2f1g pattern {1111111111/1111111/11111/11/1}
 Group   4 Type H   : 4s3p2d1f contracted to 4s3p2d1f pattern {1111/111/11/1}

Atom   0C    basis set group =>   1
Atom   1C    basis set group =>   1
Atom   2S    basis set group =>   2
Atom   3C    basis set group =>   1
Atom   4C    basis set group =>   1
Atom   5O    basis set group =>   3
Atom   6O    basis set group =>   3
Atom   7H    basis set group =>   4
Atom   8H    basis set group =>   4
Atom   9H    basis set group =>   4
Atom  10H    basis set group =>   4
Atom  11H    basis set group =>   4
Atom  12H    basis set group =>   4
Atom  13H    basis set group =>   4
Atom  14H    basis set group =>   4


           ************************************************************
           *        Program running with 8 parallel MPI-processes     *
           *              working on a common directory               *
           ************************************************************
------------------------------------------------------------------------------
                           ORCA GTO INTEGRAL CALCULATION
                           -- RI-GTO INTEGRALS CHOSEN --
------------------------------------------------------------------------------

                         BASIS SET STATISTICS AND STARTUP INFO

Gaussian basis set:
 # of primitive gaussian shells          ...  280
 # of primitive gaussian functions       ...  534
 # of contracted shells                  ...  120
 # of contracted basis functions         ...  326
 Highest angular momentum                ...    3
 Maximum contraction depth               ...   13
Auxiliary gaussian basis set:
 # of primitive gaussian shells          ...  267
 # of primitive gaussian functions       ...  835
 # of contracted shells                  ...  267
 # of contracted aux-basis functions     ...  835
 Highest angular momentum                ...    4
 Maximum contraction depth               ...    1
Ratio of auxiliary to basis functions    ...  2.56
Integral package used                  ... LIBINT
 One Electron integrals                  ... done
 Ordering auxiliary basis shells         ... done
 Integral threshhold             Thresh  ...  2.500e-11
 Primitive cut-off               TCut    ...  2.500e-12
 Pre-screening matrix                    ... done
 Shell pair data                         ... 
 Ordering of the shell pairs             ... done (   0.001 sec) 7019 of 7260 pairs
 Determination of significant pairs      ... done (   0.000 sec)
 Creation of shell pair data             ... done (   0.002 sec)
 Storage of shell pair data              ... done (   0.029 sec)
 Shell pair data done in (   0.032 sec)
 Computing two index integrals           ... done
 Cholesky decomposition of the V-matrix  ... done


Timings:
 Total evaluation time                   ...   0.674 sec (  0.011 min)
 One electron matrix time                ...   0.107 sec (  0.002 min) = 15.8%
 Schwartz matrix evaluation time         ...   0.396 sec (  0.007 min) = 58.8%
 Two index repulsion integral time       ...   0.058 sec (  0.001 min) =  8.6%
 Cholesky decomposition of V             ...   0.055 sec (  0.001 min) =  8.2%
 Three index repulsion integral time     ...   0.000 sec (  0.000 min) =  0.0%



           ************************************************************
           *        Program running with 8 parallel MPI-processes     *
           *              working on a common directory               *
           ************************************************************
-------------------------------------------------------------------------------
                                 ORCA SCF
-------------------------------------------------------------------------------

------------
SCF SETTINGS
------------
Hamiltonian:
 Ab initio Hamiltonian  Method          .... Hartree-Fock(GTOs)
 RI-approximation to the Coulomb term is turned on
   Number of auxiliary basis functions  .... 835
   RI-JK (J+K treated both via RI)      .... on


General Settings:
 Integral files         IntName         .... sulfolane_halfchair
 Hartree-Fock type      HFTyp           .... RHF
 Total Charge           Charge          ....    0
 Multiplicity           Mult            ....    1
 Number of Electrons    NEL             ....   64
 Basis Dimension        Dim             ....  326
 Nuclear Repulsion      ENuc            ....    424.1195339091 Eh

Convergence Acceleration:
 DIIS                   CNVDIIS         .... off
 Newton-Raphson         CNVNR           .... off
 SOSCF                  CNVSOSCF        .... on
   Start iteration      SOSCFMaxIt      ....   150
   Startup grad/error   SOSCFStart      ....  0.003300
 Level Shifting         CNVShift        .... on
   Level shift para.    LevelShift      ....    0.2000
   Turn off err/grad.   ShiftErr        ....    0.1000
 Zerner damping         CNVZerner       .... off
 Static damping         CNVDamp         .... off
 Fernandez-Rico         CNVRico         .... off

SCF Procedure:
 Maximum # iterations   MaxIter         ....   300
 SCF integral mode      SCFMode         .... Direct
   Integral package                     .... LIBINT
 Reset frequency        DirectResetFreq ....    20
 Integral Threshold     Thresh          ....  2.500e-11 Eh
 Primitive CutOff       TCut            ....  2.500e-12 Eh

Convergence Tolerance:
 Convergence Check Mode ConvCheckMode   .... Total+1el-Energy
 Convergence forced     ConvForced      .... 1
 Energy Change          TolE            ....  1.000e-08 Eh
 1-El. energy change                    ....  1.000e-05 Eh
 Orbital Gradient       TolG            ....  1.000e-05
 Orbital Rotation angle TolX            ....  1.000e-05


Diagonalization of the overlap matrix:
Smallest eigenvalue                        ... 3.653e-04
Time for diagonalization                   ...    0.022 sec
Threshold for overlap eigenvalues          ... 1.000e-08
Number of eigenvalues below threshold      ... 0
Time for construction of square roots      ...    0.032 sec
Total time needed                          ...    0.055 sec

-------------------
DFT GRID GENERATION
-------------------

General Integration Accuracy     IntAcc      ...  4.340
Radial Grid Type                 RadialGrid  ... Gauss-Chebyshev
Angular Grid (max. acc.)         AngularGrid ... Lebedev-110
Angular grid pruning method      GridPruning ... 3 (G Style)
Weight generation scheme         WeightScheme... Becke
Basis function cutoff            BFCut       ...    1.0000e-11
Integration weight cutoff        WCut        ...    1.0000e-14
Grids for H and He will be reduced by one unit

# of grid points (after initial pruning)     ...  18214 (   0.0 sec)
# of grid points (after weights+screening)   ...  16924 (   0.0 sec)
nearest neighbour list constructed           ...    0.0 sec
Grid point re-assignment to atoms done       ...    0.0 sec
Grid point division into batches done        ...    0.0 sec
Reduced shell lists constructed in    0.1 sec

Total number of grid points                  ...    16924
Total number of batches                      ...      270
Average number of points per batch           ...       62
Average number of grid points per atom       ...     1128
Average number of shells per batch           ...   105.40 (87.83%)
Average number of basis functions per batch  ...   282.26 (86.58%)
Average number of large shells per batch     ...    88.20 (83.68%)
Average number of large basis fcns per batch ...   234.03 (82.91%)
Average number of aux-shells per batch       ...   105.40 (39.48%)
Average number of aux functions per batch    ...   282.26 (33.80%)
Maximum spatial batch extension              ...   3.10,  2.71,  2.34 au
Average spatial batch extension              ...   0.21,  0.21,  0.19 au

Time for grid setup =    0.142 sec

------------------------------
INITIAL GUESS: MODEL POTENTIAL
------------------------------
Loading Hartree-Fock densities                     ... done
Calculating cut-offs                               ... done
Setting up the integral package                    ... done
Initializing the effective Hamiltonian             ... done
Starting the Coulomb interaction                   ... done (   0.1 sec)
Reading the grid                                   ... done
Mapping shells                                     ... done
Starting the XC term evaluation                    ... done (   0.0 sec)
Transforming the Hamiltonian                       ... done (   0.0 sec)
Diagonalizing the Hamiltonian                      ... done (   0.0 sec)
Back transforming the eigenvectors                 ... done (   0.0 sec)
Now organizing SCF variables                       ... done
                      ------------------
                      INITIAL GUESS DONE (   0.4 sec)
                      ------------------
--------------
SCF ITERATIONS
--------------
ITER       Energy         Delta-E        Max-DP      RMS-DP      [F,P]   Gradient Norm
                             ****Turning on KDIIS(Cayley)****
  0   -703.0545442022   0.000000000000 0.02071373  0.00030046  0.1705217   0.162958381
  1   -703.1762969312  -0.121752729055 0.03636159  0.00034659  0.1586863   0.139348312
  2   -703.2727504533  -0.096453522067 0.05958758  0.00057530  0.1272850   0.112894597
  3   -703.3882500175  -0.115499564202 0.09168888  0.00091759  0.0773287   0.068959068
                      *** Initiating the SOSCF procedure ***
                           *** Shutting down KDIIS ***
                      *** Re-Reading the Fockian *** 
                      *** Removing any level shift *** 
ITER      Energy       Delta-E        Grad      Rot      Max-DP    RMS-DP
  4   -703.46150466  -0.0732546471  0.002613  0.002613  0.002276  0.000065
  5   -703.46179965  -0.0002949856  0.000789  0.000941  0.001054  0.000026
  6   -703.46181638  -0.0000167300  0.000394  0.000509  0.000645  0.000013
  7   -703.46182359  -0.0000072051  0.000079  0.000141  0.000129  0.000005
  8   -703.46182387  -0.0000002846  0.000086  0.000099  0.000054  0.000001
  9   -703.46182400  -0.0000001331  0.000013  0.000026  0.000033  0.000001
 10   -703.46182401  -0.0000000044  0.000004  0.000012  0.000018  0.000000
                  ***Gradient check signals convergence***
              ***Rediagonalizing the Fockian in SOSCF/NRSCF***

               *****************************************************
               *                     SUCCESS                       *
               *           SCF CONVERGED AFTER  11 CYCLES          *
               *****************************************************


----------------
TOTAL SCF ENERGY
----------------

Total Energy       :         -703.46182401 Eh          -19142.16940 eV

Components:
Nuclear Repulsion  :          424.11953391 Eh           11540.87924 eV
Electronic Energy  :        -1127.58135792 Eh          -30683.04864 eV
One Electron Energy:        -1808.54707358 Eh          -49213.06782 eV
Two Electron Energy:          680.96571567 Eh           18530.01917 eV

Virial components:
Potential Energy   :        -1406.03121751 Eh          -38260.05453 eV
Kinetic Energy     :          702.56939350 Eh           19117.88513 eV
Virial Ratio       :            2.00127024


---------------
SCF CONVERGENCE
---------------

  Last Energy change         ...   -5.9390e-10  Tolerance :   1.0000e-08
  Last MAX-Density change    ...    3.1466e-06  Tolerance :   1.0000e-07
  Last RMS-Density change    ...    6.5802e-08  Tolerance :   5.0000e-09
  Last Orbital Gradient      ...    6.5124e-07  Tolerance :   1.0000e-05
  Last Orbital Rotation      ...    1.2849e-06  Tolerance :   1.0000e-05

             **** THE GBW FILE WAS UPDATED (sulfolane_halfchair.gbw) ****
             **** DENSITY FILE WAS UPDATED (sulfolane_halfchair.scfp.tmp) ****
             **** ENERGY FILE WAS UPDATED (sulfolane_halfchair.en.tmp) ****
----------------
ORBITAL ENERGIES
----------------

  NO   OCC          E(Eh)            E(eV) 
   0   2.0000     -92.171251     -2508.1072 
   1   2.0000     -20.536752      -558.8334 
   2   2.0000     -20.536731      -558.8329 
   3   2.0000     -11.280703      -306.9635 
   4   2.0000     -11.280686      -306.9631 
   5   2.0000     -11.266996      -306.5905 
   6   2.0000     -11.266422      -306.5749 
   7   2.0000      -9.141907      -248.7639 
   8   2.0000      -6.826303      -185.7531 
   9   2.0000      -6.825652      -185.7354 
  10   2.0000      -6.825629      -185.7348 
  11   2.0000      -1.422564       -38.7099 
  12   2.0000      -1.315424       -35.7945 
  13   2.0000      -1.145207       -31.1627 
  14   2.0000      -1.024459       -27.8769 
  15   2.0000      -0.968614       -26.3573 
  16   2.0000      -0.835120       -22.7248 
  17   2.0000      -0.800509       -21.7829 
  18   2.0000      -0.695598       -18.9282 
  19   2.0000      -0.685771       -18.6608 
  20   2.0000      -0.635467       -17.2919 
  21   2.0000      -0.632227       -17.2038 
  22   2.0000      -0.612830       -16.6759 
  23   2.0000      -0.607991       -16.5443 
  24   2.0000      -0.558489       -15.1973 
  25   2.0000      -0.540638       -14.7115 
  26   2.0000      -0.525781       -14.3072 
  27   2.0000      -0.519101       -14.1255 
  28   2.0000      -0.478015       -13.0074 
  29   2.0000      -0.471312       -12.8251 
  30   2.0000      -0.457850       -12.4587 
  31   2.0000      -0.415871       -11.3164 
  32   0.0000       0.117557         3.1989 
  33   0.0000       0.144194         3.9237 
  34   0.0000       0.157849         4.2953 
  35   0.0000       0.166455         4.5295 
  36   0.0000       0.189195         5.1483 
  37   0.0000       0.197508         5.3745 
  38   0.0000       0.202980         5.5234 
  39   0.0000       0.209414         5.6984 
  40   0.0000       0.220169         5.9911 
  41   0.0000       0.230482         6.2717 
  42   0.0000       0.247578         6.7369 
  43   0.0000       0.254693         6.9305 
  44   0.0000       0.318794         8.6748 
  45   0.0000       0.321467         8.7476 
  46   0.0000       0.348896         9.4939 
  47   0.0000       0.382217        10.4006 
  48   0.0000       0.382755        10.4153 
  49   0.0000       0.399340        10.8666 
  50   0.0000       0.408475        11.1152 
  51   0.0000       0.419722        11.4212 
  52   0.0000       0.466247        12.6872 
  53   0.0000       0.492775        13.4091 
  54   0.0000       0.497058        13.5256 
  55   0.0000       0.502627        13.6772 
  56   0.0000       0.519354        14.1323 
  57   0.0000       0.529625        14.4118 
  58   0.0000       0.559380        15.2215 
  59   0.0000       0.562548        15.3077 
  60   0.0000       0.579781        15.7766 
  61   0.0000       0.583730        15.8841 
  62   0.0000       0.598883        16.2964 
  63   0.0000       0.605554        16.4780 
  64   0.0000       0.617867        16.8130 
  65   0.0000       0.623449        16.9649 
  66   0.0000       0.629471        17.1288 
  67   0.0000       0.635844        17.3022 
  68   0.0000       0.641915        17.4674 
  69   0.0000       0.655817        17.8457 
  70   0.0000       0.683766        18.6062 
  71   0.0000       0.704182        19.1618 
  72   0.0000       0.712179        19.3794 
  73   0.0000       0.725229        19.7345 
  74   0.0000       0.781782        21.2734 
  75   0.0000       0.798238        21.7212 
  76   0.0000       0.800048        21.7704 
  77   0.0000       0.877590        23.8804 
  78   0.0000       0.884787        24.0763 
  79   0.0000       0.896427        24.3930 
  80   0.0000       0.926358        25.2075 
  81   0.0000       0.951941        25.9036 
  82   0.0000       0.977767        26.6064 
  83   0.0000       0.995830        27.0979 
  84   0.0000       1.010505        27.4973 
  85   0.0000       1.011206        27.5163 
  86   0.0000       1.048261        28.5246 
  87   0.0000       1.069238        29.0955 
  88   0.0000       1.080275        29.3958 
  89   0.0000       1.088293        29.6140 
  90   0.0000       1.107319        30.1317 
  91   0.0000       1.126194        30.6453 
  92   0.0000       1.139574        31.0094 
  93   0.0000       1.150480        31.3062 
  94   0.0000       1.177493        32.0412 
  95   0.0000       1.211652        32.9707 
  96   0.0000       1.236668        33.6515 
  97   0.0000       1.252849        34.0918 
  98   0.0000       1.264758        34.4158 
  99   0.0000       1.266503        34.4633 
 100   0.0000       1.279039        34.8044 
 101   0.0000       1.282830        34.9076 
 102   0.0000       1.310935        35.6724 
 103   0.0000       1.313230        35.7348 
 104   0.0000       1.333421        36.2842 
 105   0.0000       1.357452        36.9381 
 106   0.0000       1.365418        37.1549 
 107   0.0000       1.382449        37.6183 
 108   0.0000       1.394896        37.9571 
 109   0.0000       1.403255        38.1845 
 110   0.0000       1.410735        38.3880 
 111   0.0000       1.435167        39.0529 
 112   0.0000       1.462446        39.7952 
 113   0.0000       1.465423        39.8762 
 114   0.0000       1.484465        40.3943 
 115   0.0000       1.506906        41.0050 
 116   0.0000       1.533333        41.7241 
 117   0.0000       1.540547        41.9204 
 118   0.0000       1.552767        42.2529 
 119   0.0000       1.596619        43.4462 
 120   0.0000       1.608732        43.7758 
 121   0.0000       1.628268        44.3074 
 122   0.0000       1.658956        45.1425 
 123   0.0000       1.688709        45.9521 
 124   0.0000       1.696011        46.1508 
 125   0.0000       1.719569        46.7918 
 126   0.0000       1.736701        47.2580 
 127   0.0000       1.754790        47.7503 
 128   0.0000       1.767278        48.0901 
 129   0.0000       1.794393        48.8279 
 130   0.0000       1.796072        48.8736 
 131   0.0000       1.829113        49.7727 
 132   0.0000       1.841490        50.1095 
 133   0.0000       1.873423        50.9784 
 134   0.0000       1.909751        51.9670 
 135   0.0000       1.922559        52.3155 
 136   0.0000       1.946045        52.9546 
 137   0.0000       2.009039        54.6687 
 138   0.0000       2.028155        55.1889 
 139   0.0000       2.035741        55.3953 
 140   0.0000       2.079393        56.5832 
 141   0.0000       2.150827        58.5270 
 142   0.0000       2.160897        58.8010 
 143   0.0000       2.188509        59.5524 
 144   0.0000       2.244182        61.0673 
 145   0.0000       2.319457        63.1156 
 146   0.0000       2.369773        64.4848 
 147   0.0000       2.449146        66.6447 
 148   0.0000       2.544869        69.2494 
 149   0.0000       2.551205        69.4218 
 150   0.0000       2.609632        71.0117 
 151   0.0000       2.613033        71.1042 
 152   0.0000       2.622154        71.3524 
 153   0.0000       2.624492        71.4161 
 154   0.0000       2.645747        71.9944 
 155   0.0000       2.682921        73.0060 
 156   0.0000       2.725557        74.1662 
 157   0.0000       2.747853        74.7729 
 158   0.0000       2.749326        74.8130 
 159   0.0000       2.751868        74.8821 
 160   0.0000       2.793366        76.0114 
 161   0.0000       2.801023        76.2197 
 162   0.0000       2.823444        76.8298 
 163   0.0000       2.825670        76.8904 
 164   0.0000       2.845670        77.4346 
 165   0.0000       2.884596        78.4938 
 166   0.0000       2.888231        78.5928 
 167   0.0000       2.897152        78.8355 
 168   0.0000       2.903836        79.0174 
 169   0.0000       2.923059        79.5405 
 170   0.0000       2.930115        79.7325 
 171   0.0000       2.938320        79.9558 
 172   0.0000       3.014535        82.0297 
 173   0.0000       3.016302        82.0778 
 174   0.0000       3.046559        82.9011 
 175   0.0000       3.061814        83.3162 
 176   0.0000       3.082690        83.8843 
 177   0.0000       3.163219        86.0756 
 178   0.0000       3.184967        86.6674 
 179   0.0000       3.192086        86.8611 
 180   0.0000       3.262758        88.7842 
 181   0.0000       3.277060        89.1733 
 182   0.0000       3.278284        89.2067 
 183   0.0000       3.306720        89.9804 
 184   0.0000       3.315460        90.2182 
 185   0.0000       3.331906        90.6658 
 186   0.0000       3.349275        91.1384 
 187   0.0000       3.365504        91.5800 
 188   0.0000       3.374963        91.8374 
 189   0.0000       3.401823        92.5683 
 190   0.0000       3.410326        92.7997 
 191   0.0000       3.413571        92.8880 
 192   0.0000       3.427451        93.2657 
 193   0.0000       3.456086        94.0449 
 194   0.0000       3.476268        94.5941 
 195   0.0000       3.476500        94.6004 
 196   0.0000       3.501935        95.2925 
 197   0.0000       3.521548        95.8262 
 198   0.0000       3.532207        96.1162 
 199   0.0000       3.550490        96.6137 
 200   0.0000       3.614943        98.3676 
 201   0.0000       3.637021        98.9684 
 202   0.0000       3.652057        99.3775 
 203   0.0000       3.682850       100.2154 
 204   0.0000       3.698441       100.6397 
 205   0.0000       3.701364       100.7192 
 206   0.0000       3.728948       101.4698 
 207   0.0000       3.735819       101.6568 
 208   0.0000       3.793949       103.2386 
 209   0.0000       3.796239       103.3009 
 210   0.0000       3.823939       104.0547 
 211   0.0000       3.861340       105.0724 
 212   0.0000       3.878345       105.5351 
 213   0.0000       3.888464       105.8105 
 214   0.0000       3.931193       106.9732 
 215   0.0000       3.938234       107.1648 
 216   0.0000       3.943529       107.3089 
 217   0.0000       3.943662       107.3125 
 218   0.0000       3.998307       108.7995 
 219   0.0000       4.014206       109.2321 
 220   0.0000       4.036399       109.8360 
 221   0.0000       4.054916       110.3399 
 222   0.0000       4.056444       110.3814 
 223   0.0000       4.091023       111.3224 
 224   0.0000       4.119607       112.1002 
 225   0.0000       4.130616       112.3998 
 226   0.0000       4.138943       112.6264 
 227   0.0000       4.190792       114.0372 
 228   0.0000       4.190974       114.0422 
 229   0.0000       4.211390       114.5977 
 230   0.0000       4.229482       115.0901 
 231   0.0000       4.262035       115.9759 
 232   0.0000       4.276353       116.3655 
 233   0.0000       4.293415       116.8298 
 234   0.0000       4.298526       116.9688 
 235   0.0000       4.334707       117.9534 
 236   0.0000       4.334793       117.9557 
 237   0.0000       4.356518       118.5469 
 238   0.0000       4.375732       119.0697 
 239   0.0000       4.409905       119.9996 
 240   0.0000       4.429529       120.5336 
 241   0.0000       4.447731       121.0289 
 242   0.0000       4.463366       121.4544 
 243   0.0000       4.474038       121.7448 
 244   0.0000       4.483894       122.0130 
 245   0.0000       4.493630       122.2779 
 246   0.0000       4.510666       122.7415 
 247   0.0000       4.524113       123.1074 
 248   0.0000       4.556981       124.0018 
 249   0.0000       4.557046       124.0035 
 250   0.0000       4.583130       124.7133 
 251   0.0000       4.615867       125.6041 
 252   0.0000       4.632303       126.0514 
 253   0.0000       4.642229       126.3215 
 254   0.0000       4.655236       126.6754 
 255   0.0000       4.734509       128.8325 
 256   0.0000       4.763013       129.6082 
 257   0.0000       4.817758       131.0979 
 258   0.0000       4.848614       131.9375 
 259   0.0000       4.883561       132.8885 
 260   0.0000       4.962422       135.0344 
 261   0.0000       4.998031       136.0033 
 262   0.0000       5.049912       137.4151 
 263   0.0000       5.091608       138.5497 
 264   0.0000       5.107525       138.9828 
 265   0.0000       5.112509       139.1184 
 266   0.0000       5.194333       141.3450 
 267   0.0000       5.203964       141.6071 
 268   0.0000       5.210430       141.7830 
 269   0.0000       5.212111       141.8287 
 270   0.0000       5.245828       142.7462 
 271   0.0000       5.279061       143.6505 
 272   0.0000       5.297476       144.1516 
 273   0.0000       5.297840       144.1615 
 274   0.0000       5.368613       146.0874 
 275   0.0000       5.370024       146.1258 
 276   0.0000       5.460053       148.5756 
 277   0.0000       5.483128       149.2035 
 278   0.0000       5.507553       149.8681 
 279   0.0000       5.550937       151.0487 
 280   0.0000       5.563995       151.4040 
 281   0.0000       5.610922       152.6810 
 282   0.0000       5.615562       152.8072 
 283   0.0000       5.618622       152.8905 
 284   0.0000       5.622435       152.9942 
 285   0.0000       5.641575       153.5151 
 286   0.0000       5.650617       153.7611 
 287   0.0000       5.657635       153.9521 
 288   0.0000       5.676851       154.4750 
 289   0.0000       5.699778       155.0988 
 290   0.0000       5.701839       155.1549 
 291   0.0000       5.727272       155.8470 
 292   0.0000       5.740266       156.2006 
 293   0.0000       5.746545       156.3714 
 294   0.0000       5.780927       157.3070 
 295   0.0000       5.821321       158.4062 
 296   0.0000       5.824606       158.4956 
 297   0.0000       5.859550       159.4465 
 298   0.0000       5.943285       161.7250 
 299   0.0000       5.979188       162.7020 
 300   0.0000       5.997716       163.2062 
 301   0.0000       6.014127       163.6527 
 302   0.0000       6.049904       164.6263 
 303   0.0000       6.114142       166.3743 
 304   0.0000       6.258875       170.3127 
 305   0.0000       6.270636       170.6327 
 306   0.0000       6.287765       171.0988 
 307   0.0000       6.370862       173.3600 
 308   0.0000       6.382395       173.6738 
 309   0.0000       6.731895       183.1842 
 310   0.0000       6.841418       186.1645 
 311   0.0000       6.853306       186.4879 
 312   0.0000       6.925275       188.4463 
 313   0.0000       6.944003       188.9559 
 314   0.0000       7.228334       196.6930 
 315   0.0000       7.303579       198.7405 
 316   0.0000       7.325041       199.3245 
 317   0.0000       7.360619       200.2926 
 318   0.0000       7.488228       203.7650 
 319   0.0000       7.586728       206.4454 
 320   0.0000      10.369695       282.1737 
 321   0.0000      10.428165       283.7648 
 322   0.0000      12.017091       327.0017 
 323   0.0000      12.385166       337.0175 
 324   0.0000      13.071875       355.7038 
 325   0.0000      13.404064       364.7431 

                    ********************************
                    * MULLIKEN POPULATION ANALYSIS *
                    ********************************

-----------------------
MULLIKEN ATOMIC CHARGES
-----------------------
   0 C :   -0.213464
   1 C :   -0.207406
   2 S :    0.950342
   3 C :   -0.207404
   4 C :   -0.213447
   5 O :   -0.573544
   6 O :   -0.573541
   7 H :    0.141394
   8 H :    0.136751
   9 H :    0.141390
  10 H :    0.136747
  11 H :    0.116153
  12 H :    0.124936
  13 H :    0.124949
  14 H :    0.116143
Sum of atomic charges:    0.0000000

--------------------------------
MULLIKEN REDUCED ORBITAL CHARGES
--------------------------------
  0 C s       :     3.229219  s :     3.229219
      pz      :     1.019284  p :     2.861763
      px      :     0.939003
      py      :     0.903476
      dz2     :     0.030502  d :     0.115761
      dxz     :     0.015378
      dyz     :     0.016798
      dx2y2   :     0.025288
      dxy     :     0.027795
      f0      :     0.001364  f :     0.006721
      f+1     :     0.000524
      f-1     :     0.000706
      f+2     :     0.000839
      f-2     :     0.000494
      f+3     :     0.001229
      f-3     :     0.001564
  1 C s       :     3.205992  s :     3.205992
      pz      :     1.042685  p :     2.899900
      px      :     0.892170
      py      :     0.965045
      dz2     :     0.028570  d :     0.096122
      dxz     :     0.012627
      dyz     :     0.009832
      dx2y2   :     0.011236
      dxy     :     0.033857
      f0      :     0.001170  f :     0.005392
      f+1     :     0.000673
      f-1     :     0.000383
      f+2     :     0.000317
      f-2     :     0.000718
      f+3     :     0.001271
      f-3     :     0.000860
  2 S s       :     5.368643  s :     5.368643
      pz      :     2.798683  p :     8.716652
      px      :     2.929992
      py      :     2.987976
      dz2     :     0.245369  d :     0.873068
      dxz     :     0.189450
      dyz     :     0.170538
      dx2y2   :     0.061705
      dxy     :     0.206007
      f0      :     0.024247  f :     0.091294
      f+1     :     0.011653
      f-1     :     0.014653
      f+2     :     0.015227
      f-2     :     0.014249
      f+3     :     0.005470
      f-3     :     0.005795
  3 C s       :     3.205978  s :     3.205978
      pz      :     1.042655  p :     2.899907
      px      :     0.892181
      py      :     0.965071
      dz2     :     0.028577  d :     0.096126
      dxz     :     0.012627
      dyz     :     0.009829
      dx2y2   :     0.011236
      dxy     :     0.033857
      f0      :     0.001170  f :     0.005393
      f+1     :     0.000673
      f-1     :     0.000382
      f+2     :     0.000317
      f-2     :     0.000719
      f+3     :     0.001271
      f-3     :     0.000860
  4 C s       :     3.229216  s :     3.229216
      pz      :     1.019270  p :     2.861750
      px      :     0.938999
      py      :     0.903481
      dz2     :     0.030507  d :     0.115760
      dxz     :     0.015374
      dyz     :     0.016796
      dx2y2   :     0.025288
      dxy     :     0.027795
      f0      :     0.001364  f :     0.006721
      f+1     :     0.000524
      f-1     :     0.000706
      f+2     :     0.000839
      f-2     :     0.000494
      f+3     :     0.001229
      f-3     :     0.001564
  5 O s       :     3.810743  s :     3.810743
      pz      :     1.399615  p :     4.724694
      px      :     1.617288
      py      :     1.707790
      dz2     :     0.011227  d :     0.036076
      dxz     :     0.010657
      dyz     :     0.007675
      dx2y2   :     0.003458
      dxy     :     0.003058
      f0      :     0.000429  f :     0.002032
      f+1     :     0.000580
      f-1     :     0.000291
      f+2     :     0.000305
      f-2     :     0.000325
      f+3     :     0.000050
      f-3     :     0.000052
  6 O s       :     3.810742  s :     3.810742
      pz      :     1.399703  p :     4.724692
      px      :     1.617178
      py      :     1.707810
      dz2     :     0.011223  d :     0.036075
      dxz     :     0.010659
      dyz     :     0.007672
      dx2y2   :     0.003460
      dxy     :     0.003060
      f0      :     0.000428  f :     0.002032
      f+1     :     0.000580
      f-1     :     0.000291
      f+2     :     0.000305
      f-2     :     0.000325
      f+3     :     0.000050
      f-3     :     0.000052
  7 H s       :     0.822878  s :     0.822878
      pz      :     0.007981  p :     0.033298
      px      :     0.009910
      py      :     0.015407
      dz2     :     0.000499  d :     0.002430
      dxz     :     0.000139
      dyz     :     0.000507
      dx2y2   :     0.000581
      dxy     :     0.000704
  8 H s       :     0.828956  s :     0.828956
      pz      :     0.014830  p :     0.031899
      px      :     0.008763
      py      :     0.008305
      dz2     :     0.000752  d :     0.002394
      dxz     :     0.000847
      dyz     :     0.000729
      dx2y2   :     0.000026
      dxy     :     0.000040
  9 H s       :     0.822880  s :     0.822880
      pz      :     0.007980  p :     0.033299
      px      :     0.009911
      py      :     0.015408
      dz2     :     0.000499  d :     0.002430
      dxz     :     0.000139
      dyz     :     0.000507
      dx2y2   :     0.000581
      dxy     :     0.000704
 10 H s       :     0.828958  s :     0.828958
      pz      :     0.014833  p :     0.031900
      px      :     0.008764
      py      :     0.008304
      dz2     :     0.000752  d :     0.002394
      dxz     :     0.000847
      dyz     :     0.000729
      dx2y2   :     0.000026
      dxy     :     0.000040
 11 H s       :     0.852680  s :     0.852680
      pz      :     0.011947  p :     0.028757
      px      :     0.007844
      py      :     0.008966
      dz2     :     0.000669  d :     0.002410
      dxz     :     0.000764
      dyz     :     0.000855
      dx2y2   :     0.000100
      dxy     :     0.000023
 12 H s       :     0.844418  s :     0.844418
      pz      :     0.006519  p :     0.028245
      px      :     0.011342
      py      :     0.010384
      dz2     :     0.000452  d :     0.002402
      dxz     :     0.000384
      dyz     :     0.000210
      dx2y2   :     0.000789
      dxy     :     0.000566
 13 H s       :     0.844404  s :     0.844404
      pz      :     0.006519  p :     0.028246
      px      :     0.011343
      py      :     0.010384
      dz2     :     0.000452  d :     0.002402
      dxz     :     0.000384
      dyz     :     0.000210
      dx2y2   :     0.000789
      dxy     :     0.000566
 14 H s       :     0.852691  s :     0.852691
      pz      :     0.011946  p :     0.028756
      px      :     0.007845
      py      :     0.008966
      dz2     :     0.000669  d :     0.002410
      dxz     :     0.000764
      dyz     :     0.000855
      dx2y2   :     0.000100
      dxy     :     0.000023


                     *******************************
                     * LOEWDIN POPULATION ANALYSIS *
                     *******************************

----------------------
LOEWDIN ATOMIC CHARGES
----------------------
   0 C :    0.049771
   1 C :    0.003909
   2 S :    0.683051
   3 C :    0.003891
   4 C :    0.049765
   5 O :   -0.304661
   6 O :   -0.304667
   7 H :   -0.027058
   8 H :   -0.026214
   9 H :   -0.027049
  10 H :   -0.026215
  11 H :   -0.018070
  12 H :   -0.019191
  13 H :   -0.019192
  14 H :   -0.018070

-------------------------------
LOEWDIN REDUCED ORBITAL CHARGES
-------------------------------
  0 C s       :     2.663094  s :     2.663094
      pz      :     0.976982  p :     2.825292
      px      :     0.933881
      py      :     0.914429
      dz2     :     0.102538  d :     0.420990
      dxz     :     0.059574
      dyz     :     0.060341
      dx2y2   :     0.097120
      dxy     :     0.101417
      f0      :     0.005657  f :     0.040852
      f+1     :     0.003498
      f-1     :     0.004480
      f+2     :     0.006448
      f-2     :     0.005265
      f+3     :     0.008602
      f-3     :     0.006901
  1 C s       :     2.710107  s :     2.710107
      pz      :     1.011892  p :     2.883089
      px      :     0.925931
      py      :     0.945266
      dz2     :     0.095736  d :     0.368950
      dxz     :     0.052423
      dyz     :     0.041521
      dx2y2   :     0.060100
      dxy     :     0.119170
      f0      :     0.004611  f :     0.033945
      f+1     :     0.004977
      f-1     :     0.002224
      f+2     :     0.004216
      f-2     :     0.005341
      f+3     :     0.007670
      f-3     :     0.004905
  2 S s       :     4.909393  s :     4.909393
      pz      :     2.876144  p :     8.677439
      px      :     2.882459
      py      :     2.918835
      dz2     :     0.401690  d :     1.461290
      dxz     :     0.341931
      dyz     :     0.273377
      dx2y2   :     0.111496
      dxy     :     0.332797
      f0      :     0.066680  f :     0.268827
      f+1     :     0.043451
      f-1     :     0.042694
      f+2     :     0.041806
      f-2     :     0.042755
      f+3     :     0.015196
      f-3     :     0.016246
  3 C s       :     2.710106  s :     2.710106
      pz      :     1.011872  p :     2.883096
      px      :     0.925940
      py      :     0.945285
      dz2     :     0.095761  d :     0.368961
      dxz     :     0.052431
      dyz     :     0.041500
      dx2y2   :     0.060103
      dxy     :     0.119166
      f0      :     0.004612  f :     0.033945
      f+1     :     0.004977
      f-1     :     0.002223
      f+2     :     0.004216
      f-2     :     0.005344
      f+3     :     0.007669
      f-3     :     0.004905
  4 C s       :     2.663094  s :     2.663094
      pz      :     0.976979  p :     2.825294
      px      :     0.933886
      py      :     0.914428
      dz2     :     0.102552  d :     0.420995
      dxz     :     0.059563
      dyz     :     0.060341
      dx2y2   :     0.097120
      dxy     :     0.101417
      f0      :     0.005657  f :     0.040853
      f+1     :     0.003499
      f-1     :     0.004480
      f+2     :     0.006450
      f-2     :     0.005265
      f+3     :     0.008601
      f-3     :     0.006901
  5 O s       :     3.536230  s :     3.536230
      pz      :     1.478231  p :     4.701611
      px      :     1.587028
      py      :     1.636352
      dz2     :     0.018765  d :     0.063265
      dxz     :     0.023477
      dyz     :     0.011508
      dx2y2   :     0.004141
      dxy     :     0.005375
      f0      :     0.000595  f :     0.003555
      f+1     :     0.001238
      f-1     :     0.000465
      f+2     :     0.000469
      f-2     :     0.000606
      f+3     :     0.000072
      f-3     :     0.000110
  6 O s       :     3.536235  s :     3.536235
      pz      :     1.478271  p :     4.701612
      px      :     1.586977
      py      :     1.636364
      dz2     :     0.018753  d :     0.063265
      dxz     :     0.023487
      dyz     :     0.011502
      dx2y2   :     0.004145
      dxy     :     0.005378
      f0      :     0.000594  f :     0.003555
      f+1     :     0.001238
      f-1     :     0.000464
      f+2     :     0.000469
      f-2     :     0.000607
      f+3     :     0.000072
      f-3     :     0.000110
  7 H s       :     0.837995  s :     0.837995
      pz      :     0.047233  p :     0.160183
      px      :     0.042538
      py      :     0.070412
      dz2     :     0.005738  d :     0.028880
      dxz     :     0.002219
      dyz     :     0.007095
      dx2y2   :     0.006753
      dxy     :     0.007075
  8 H s       :     0.837205  s :     0.837205
      pz      :     0.081982  p :     0.159988
      px      :     0.038422
      py      :     0.039583
      dz2     :     0.010031  d :     0.029021
      dxz     :     0.008997
      dyz     :     0.009525
      dx2y2   :     0.000137
      dxy     :     0.000331
  9 H s       :     0.837992  s :     0.837992
      pz      :     0.047221  p :     0.160179
      px      :     0.042539
      py      :     0.070418
      dz2     :     0.005735  d :     0.028879
      dxz     :     0.002217
      dyz     :     0.007095
      dx2y2   :     0.006755
      dxy     :     0.007077
 10 H s       :     0.837208  s :     0.837208
      pz      :     0.081985  p :     0.159986
      px      :     0.038421
      py      :     0.039580
      dz2     :     0.010032  d :     0.029021
      dxz     :     0.008998
      dyz     :     0.009525
      dx2y2   :     0.000136
      dxy     :     0.000331
 11 H s       :     0.837012  s :     0.837012
      pz      :     0.075124  p :     0.152948
      px      :     0.038336
      py      :     0.039488
      dz2     :     0.009472  d :     0.028110
      dxz     :     0.009064
      dyz     :     0.008796
      dx2y2   :     0.000616
      dxy     :     0.000163
 12 H s       :     0.837408  s :     0.837408
      pz      :     0.046001  p :     0.153748
      px      :     0.060440
      py      :     0.047306
      dz2     :     0.005617  d :     0.028035
      dxz     :     0.005967
      dyz     :     0.002808
      dx2y2   :     0.007324
      dxy     :     0.006318
 13 H s       :     0.837408  s :     0.837408
      pz      :     0.046006  p :     0.153749
      px      :     0.060438
      py      :     0.047304
      dz2     :     0.005618  d :     0.028035
      dxz     :     0.005967
      dyz     :     0.002809
      dx2y2   :     0.007323
      dxy     :     0.006318
 14 H s       :     0.837014  s :     0.837014
      pz      :     0.075122  p :     0.152946
      px      :     0.038337
      py      :     0.039487
      dz2     :     0.009471  d :     0.028110
      dxz     :     0.009063
      dyz     :     0.008795
      dx2y2   :     0.000616
      dxy     :     0.000163


                      *****************************
                      * MAYER POPULATION ANALYSIS *
                      *****************************

  NA   - Mulliken gross atomic population
  ZA   - Total nuclear charge
  QA   - Mulliken gross atomic charge
  VA   - Mayer's total valence
  BVA  - Mayer's bonded valence
  FA   - Mayer's free valence

  ATOM       NA         ZA         QA         VA         BVA        FA
  0 C      6.2135     6.0000    -0.2135     3.8636     3.8636    -0.0000
  1 C      6.2074     6.0000    -0.2074     3.7864     3.7864     0.0000
  2 S     15.0497    16.0000     0.9503     5.4391     5.4391     0.0000
  3 C      6.2074     6.0000    -0.2074     3.7864     3.7864    -0.0000
  4 C      6.2134     6.0000    -0.2134     3.8636     3.8636    -0.0000
  5 O      8.5735     8.0000    -0.5735     1.9153     1.9153     0.0000
  6 O      8.5735     8.0000    -0.5735     1.9153     1.9153     0.0000
  7 H      0.8586     1.0000     0.1414     0.9952     0.9952     0.0000
  8 H      0.8632     1.0000     0.1368     0.9931     0.9931     0.0000
  9 H      0.8586     1.0000     0.1414     0.9952     0.9952    -0.0000
 10 H      0.8633     1.0000     0.1367     0.9931     0.9931    -0.0000
 11 H      0.8838     1.0000     0.1162     0.9832     0.9832     0.0000
 12 H      0.8751     1.0000     0.1249     0.9750     0.9750    -0.0000
 13 H      0.8751     1.0000     0.1249     0.9750     0.9750     0.0000
 14 H      0.8839     1.0000     0.1161     0.9832     0.9832     0.0000

  Mayer bond orders larger than 0.1
B(  0-C ,  1-C ) :   0.9489 B(  0-C ,  4-C ) :   0.9355 B(  0-C , 13-H ) :   0.9777 
B(  0-C , 14-H ) :   0.9790 B(  1-C ,  2-S ) :   0.8732 B(  1-C ,  7-H ) :   0.9696 
B(  1-C ,  8-H ) :   0.9646 B(  2-S ,  3-C ) :   0.8733 B(  2-S ,  5-O ) :   1.8073 
B(  2-S ,  6-O ) :   1.8073 B(  3-C ,  4-C ) :   0.9489 B(  3-C ,  9-H ) :   0.9695 
B(  3-C , 10-H ) :   0.9646 B(  4-C , 11-H ) :   0.9790 B(  4-C , 12-H ) :   0.9777 


-------
TIMINGS
-------

Total SCF time: 0 days 0 hours 0 min 15 sec 

Total time                  ....      15.454 sec
Sum of individual times     ....      15.191 sec  ( 98.3%)

Fock matrix formation       ....      14.546 sec  ( 94.1%)
Diagonalization             ....       0.091 sec  (  0.6%)
Density matrix formation    ....       0.016 sec  (  0.1%)
Population analysis         ....       0.037 sec  (  0.2%)
Initial guess               ....       0.253 sec  (  1.6%)
Orbital Transformation      ....       0.000 sec  (  0.0%)
Orbital Orthonormalization  ....       0.000 sec  (  0.0%)
DIIS solution               ....       0.000 sec  (  0.0%)
SOSCF solution              ....       0.105 sec  (  0.7%)


           ************************************************************
           *        Program running with 8 parallel MPI-processes     *
           *              working on a common directory               *
           ************************************************************


------------------------------------------------------------------------------- 
                              ORCA-MATRIX DRIVEN CI                            
------------------------------------------------------------------------------- 


Wavefunction type
-----------------
Correlation treatment                      ...      CCSD     
Single excitations                         ... ON
Orbital optimization                       ... OFF
Calculation of Z vector                    ... OFF
Calculation of Brueckner orbitals          ... OFF
Perturbative triple excitations            ... ON
Calculation of F12 correction              ... OFF
Frozen core treatment                      ... chemical core (22 el)
Reference Wavefunction                     ... RHF
  Internal Orbitals:    11 ...   31 ( 21 MO's/ 42 electrons)
  Virtual  Orbitals:    32 ...  325 (294 MO's              )
Number of AO's                             ...    326
Number of electrons                        ...     64
Number of correlated electrons             ...     42

Algorithmic settings
--------------------
Integral transformation                    ... All integrals via the RI transformation
K(C) Formation                             ... RI-DLPNO
   PNO-Integral Storage                    ... ON DISK
   PNO occupation number cut-off           ... 1.000e-07
   Singles PNO occupation number cut-off   ... 3.000e-09
   PNO Mulliken prescreening cut-off       ... 1.000e-03
   Domain cut-off (Mulliken population)    ... 1.000e-03
   PNO Normalization                       ...    1
Maximum number of iterations               ...        50
Convergence tolerance (max. residuum)      ... 1.000e-05
Level shift for amplitude update           ... 2.000e-01
Maximum number of DIIS vectors             ...         7
DIIS turned on at iteration                ...         0
Damping before turning on DIIS             ...     0.500
Damping after turning on DIIS              ...     0.000
Pair specific amplitude update             ... OFF
Natural orbital iterations                 ... OFF
Perturbative natural orbital generation    ... OFF
Printlevel                                 ... 2

Singles Fock matrix elements calculated using PNOs.

Memory handling:
----------------
Maximum memory for working arrays          ...   8000 MB
Data storage in matrix containers          ... UNCOMPRESSED
Data type for integral storage             ... DOUBLE
In-Core Storage of quantities:
   Amplitudes+Sigma Vector      ... NO
   J+K operators                ... NO
   DIIS vectors                 ... NO
   3-external integrals         ... NO
   4-external integrals         ... NO

Localization treatment:
-----------------------
Localization option                        ...    6
Localization threshhold                    ... -1.0e+00
Using relative localization threshhold     ... 1.0e-08
Neglect threshold for strong pairs         ... 1.000e-05 Eh
Prescreening threshold for very weak pairs ... 1.000e-07 Eh

Initializing the integral package          ... done
Localizing the valence orbitals
------------------------------------------------------------------------------
                           ORCA ORBITAL LOCALIZATION
------------------------------------------------------------------------------

Input orbitals are from                  ... sulfolane_halfchair.proc0.gbw
Output orbitals are to                   ... sulfolane_halfchair.proc0.loc
Max. number of iterations                ... 128
Localizations seeded randomly            ... off
Convergence tolerance                    ... 1.000e-06
Using relative localization threshhold   ... 1.000e-08
Treshold for strong local MOs            ... 9.500e-01
Treshold for bond MOs                    ... 8.500e-01
Operator                                 ... 0
Orbital range for localization           ... 11 to 31
Localization criterion                   ... FOSTER-BOYS (AUGMENTED HESSIAN)
Doing the dipole integrals     ... o.k.
Initial value of the localization sum :   204.828686
ITERATION   0 : L=  260.0374964808 DL=  5.52e+01 (AVERGE_DL)=    0.5127368687 
ITERATION   1 : L=  266.0964241079 DL=  6.06e+00 (AVERGE_DL)=    0.1698588718 
ITERATION   2 : L=  266.2281974731 DL=  1.32e-01 (AVERGE_DL)=    0.0250497947 
ITERATION   3 : L=  266.2525304672 DL=  2.43e-02 (AVERGE_DL)=    0.0107643579 
ITERATION   4 : L=  266.2603853847 DL=  7.85e-03 (AVERGE_DL)=    0.0061159111 
ITERATION   5 : L=  266.2631877023 DL=  2.80e-03 (AVERGE_DL)=    0.0036529946 
ITERATION   6 : L=  266.2641763536 DL=  9.89e-04 (AVERGE_DL)=    0.0021697611 
ITERATION   7 : L=  266.2645409934 DL=  3.65e-04 (AVERGE_DL)=    0.0013177179 
ITERATION   8 : L=  266.2646821703 DL=  1.41e-04 (AVERGE_DL)=    0.0008199213 
ITERATION   9 : L=  266.2647405323 DL=  5.84e-05 (AVERGE_DL)=    0.0005271757 
ITERATION  10 : L=  266.2647664096 DL=  2.59e-05 (AVERGE_DL)=    0.0003510343 
ITERATION  11 : L=  266.2647786381 DL=  1.22e-05 (AVERGE_DL)=    0.0002413113 
ITERATION  12 : L=  266.2647847093 DL=  6.07e-06 (AVERGE_DL)=    0.0001700304 
ITERATION  13 : L=  266.2647878192 DL=  3.11e-06 (AVERGE_DL)=    0.0001216929 
ITERATION  14 : L=  266.2647894376 DL=  1.62e-06 (AVERGE_DL)=    0.0000877889 
ITERATION  15 : L=  266.2647902831 DL=  8.45e-07 (AVERGE_DL)=    0.0000634511 
LOCALIZATION SUM CONVERGED

------------------------------------------------------
AUGMENTED HESSIAN OPTIMIZATION OF FOSTER-BOYS ORBITALS
------------------------------------------------------

Spin operator:           0
Orbital window:          11 to 31
Number of iterations:    128
Gradient tolerance:      1.000e-06
Number of pairs:         210
Davidson threshold:      2000
Diagonalization method:  LAPACK
Iter:    0   L: 266.2647902831   Grad. norm: 1.806721e-03
   *** Likely close to a maximum now. ***
       Augmented Hessian eigenvalues:  1.81e-06 -2.92e-01 -2.92e-01 -6.14e-01 ... 
Iter:    1   L: 266.2647911883   Grad. norm: 2.111416e-06
Iter:    2   L: 266.2647911883   Grad. norm: 6.741688e-14
LOCALIZATION HAS CONVERGED.

Eigenvalues of the Hessian:
  0 -2.918e-01
  1 -2.921e-01
  2 -6.143e-01
  3 -6.154e-01
  4 -7.005e-01
  5 -7.009e-01
  6 -4.033e+00
  7 -4.033e+00
  8 -4.092e+00
  9 -4.092e+00
    ...


------------------------------------------------------------------------------- 
                    LOCALIZED MOLECULAR ORBITAL COMPOSITIONS                   
------------------------------------------------------------------------------- 

The Mulliken populations for each LMO on each atom are computed
The LMO`s will be ordered according to atom index and type
  (A) Strongly localized MO`s have populations of >=0.950 on one atom
  (B) Two center bond orbitals have populations of >=0.850 on two atoms
  (C) Other MO`s are considered to be `delocalized`

FOUND  -   0 strongly local MO`s
       -  21 two center bond MO`s
       -   0 significantly delocalized MO`s

Bond-like localized orbitals:
MO  31:  14H  -   0.456734  and   0C  -   0.569287
MO  30:  13H  -   0.454607  and   0C  -   0.569272
MO  29:  12H  -   0.454616  and   4C  -   0.569261
MO  28:  11H  -   0.456724  and   4C  -   0.569293
MO  27:  10H  -   0.439134  and   3C  -   0.577879
MO  26:   9H  -   0.435144  and   3C  -   0.580568
MO  25:   8H  -   0.439135  and   1C  -   0.577878
MO  24:   7H  -   0.435143  and   1C  -   0.580574
MO  23:   6O  -   0.569713  and   2S  -   0.439096
MO  22:   6O  -   0.906262  and   2S  -   0.095315
MO  21:   6O  -   0.911655  and   2S  -   0.089012
MO  20:   6O  -   0.913749  and   2S  -   0.087161
MO  19:   5O  -   0.569716  and   2S  -   0.439094
MO  18:   5O  -   0.906259  and   2S  -   0.095316
MO  17:   5O  -   0.911662  and   2S  -   0.089005
MO  16:   5O  -   0.913745  and   2S  -   0.087166
MO  15:   4C  -   0.506779  and   3C  -   0.514509
MO  14:   4C  -   0.515249  and   0C  -   0.515256
MO  13:   3C  -   0.486235  and   2S  -   0.549643
MO  12:   2S  -   0.549650  and   1C  -   0.486225
MO  11:   1C  -   0.514517  and   0C  -   0.506771
Localized MO's were stored in: sulfolane_halfchair.proc0.loc

Localizing the core orbitals
------------------------------------------------------------------------------
                           ORCA ORBITAL LOCALIZATION
------------------------------------------------------------------------------

Input orbitals are from                  ... sulfolane_halfchair.proc0.loc
Output orbitals are to                   ... sulfolane_halfchair.proc0.loc
Max. number of iterations                ... 128
Localizations seeded randomly            ... off
Convergence tolerance                    ... 1.000e-06
Using relative localization threshhold   ... 1.000e-08
Treshold for strong local MOs            ... 9.500e-01
Treshold for bond MOs                    ... 8.500e-01
Operator                                 ... 0
Orbital range for localization           ... 0 to 10
Localization criterion                   ... FOSTER-BOYS (AUGMENTED HESSIAN)
Doing the dipole integrals     ... o.k.
Initial value of the localization sum :    81.194023
ITERATION   0 : L=   81.3464226294 DL=  1.52e-01 (AVERGE_DL)=    0.0526393882 
ITERATION   1 : L=   81.3993187523 DL=  5.29e-02 (AVERGE_DL)=    0.0310120571 
ITERATION   2 : L=   81.4004895140 DL=  1.17e-03 (AVERGE_DL)=    0.0046137378 
ITERATION   3 : L=   81.4005331761 DL=  4.37e-05 (AVERGE_DL)=    0.0008909862 
ITERATION   4 : L=   81.4005353433 DL=  2.17e-06 (AVERGE_DL)=    0.0001985057 
ITERATION   5 : L=   81.4005356200 DL=  2.77e-07 (AVERGE_DL)=    0.0000709238 
LOCALIZATION SUM CONVERGED

------------------------------------------------------
AUGMENTED HESSIAN OPTIMIZATION OF FOSTER-BOYS ORBITALS
------------------------------------------------------

Spin operator:           0
Orbital window:          0 to 10
Number of iterations:    128
Gradient tolerance:      1.000e-06
Number of pairs:         55
Davidson threshold:      2000
Diagonalization method:  LAPACK
Iter:    0   L: 81.4005356200   Grad. norm: 3.994380e-04
   *** Detected a saddle point. ***
       Augmented Hessian eigenvalues:  2.95e-04  5.94e-05 -1.60e-04 -8.06e-04 ... 
Iter:    1   L: 81.4005417747   Grad. norm: 4.011510e-04
Iter:    2   L: 81.4005555086   Grad. norm: 3.755353e-04
Iter:    3   L: 81.4005762205   Grad. norm: 3.247497e-04
Iter:    4   L: 81.4005973692   Grad. norm: 2.478003e-04
Iter:    5   L: 81.4006137131   Grad. norm: 1.575250e-04
Iter:    6   L: 81.4006225817   Grad. norm: 5.435212e-05
Iter:    7   L: 81.4006236743   Grad. norm: 8.242323e-07
   *** Likely close to a maximum now. ***
       Augmented Hessian eigenvalues:  1.58e-10 -2.30e-04 -5.56e-04 -8.83e-04 ... 
Iter:    8   L: 81.4006236744   Grad. norm: 7.246004e-11
LOCALIZATION HAS CONVERGED.

Eigenvalues of the Hessian:
  0 -2.298e-04
  1 -5.562e-04
  2 -8.825e-04
  3 -1.376e-01
  4 -1.378e-01
  5 -1.380e-01
  6 -4.131e-01
  7 -5.504e-01
  8 -5.511e-01
  9 -5.518e-01
    ...


------------------------------------------------------------------------------- 
                    LOCALIZED MOLECULAR ORBITAL COMPOSITIONS                   
------------------------------------------------------------------------------- 

The Mulliken populations for each LMO on each atom are computed
The LMO`s will be ordered according to atom index and type
  (A) Strongly localized MO`s have populations of >=0.950 on one atom
  (B) Two center bond orbitals have populations of >=0.850 on two atoms
  (C) Other MO`s are considered to be `delocalized`

FOUND  -  11 strongly local MO`s
       -   0 two center bond MO`s
       -   0 significantly delocalized MO`s

Rather strongly localized orbitals:
MO  10:   6O  -   0.999831
MO   9:   5O  -   0.999831
MO   8:   4C  -   1.001448
MO   7:   3C  -   1.001079
MO   6:   2S  -   0.999732
MO   5:   2S  -   0.999732
MO   4:   2S  -   0.999771
MO   3:   2S  -   1.000001
MO   2:   2S  -   0.999771
MO   1:   1C  -   1.001079
MO   0:   0C  -   1.001448
Localized MO's were stored in: sulfolane_halfchair.proc0.loc

Warning: internal orbitals are localized - no re-canonicalization of internal orbitals

--------------------------
CLOSED-SHELL FOCK OPERATOR
--------------------------

RI-JK section for the Fock operator:
  RHF full Fock operator         ... done
  RHF frozen core Fock operator  ... done
Time needed for Fock operator              ...            2.368 sec
Reference energy                           ...   -703.461824008

--------------
DLPNO SETTINGS (2015 fully linear scaling implementation)
--------------

TCutMKN:           1.000e-03
TCutPAO:           1.000e-03
TCutPNO:           1.000e-07
TCutPNOSingles:    3.000e-09
TCutEN:            9.700e-01
TCutPAOExt:        1.000e-01
TCutPairs:         1.000e-05
TCutPre:           1.000e-07
TCutOSV:           1.000e-06
TCutDOij:          1.000e-05
TCutDO:            5.000e-03
TCutC:             1.000e-04
TCutCPAO:          1.000e-03
TCutCMO:           1.000e-03
TScaleDOMP2PreScr: 2.000e+00
TScaleMKNMP2PreScr:1.000e+01
TScalePNOMP2PreScr:1.000e+00
PAO overlap thresh 1.000e-08
Using PNOs for Singles Fock computation
Use new domains
Use fully linear algorithm
TCutTNO:           1.000e-09
TCutMP2Pairs:      1.000e-06
TCutDOStrong:      2.000e-03
TCutMKNStrong:     1.000e-02
TCutMKNWeak:       1.000e-01
TCutDOWeak:        4.000e-03
NTCutTNO:          1

--------------------------
Calculating differential overlap integrals ... ok
--------------------------
ELECTRON PAIR PRESCREENING
--------------------------

Dipole-based pair screening          .... used

   TCutDOij = 1.000000e-05
   TCutPre  = 1.000000e-07
   .... Finished loop over pairs
Total time spent in the prescreening                  ...     0.000 sec
sum of pair energies estimated for screened out pairs ...       0.000000000000 Eh
Thresholds for map construction and integral transformation for crude MP2:
   TCutMKN                    ...     1.0e-02
   TCutDO                     ...     1.0e-02
   TCutPairs                  ...     1.0e-05
   TCutPNO_CrudeMP2           ...     1.0e-07
   TCutPNOSingles_CrudeMP2    ...     3.0e-09
--------------------------------
LOCAL RI TRANSFORMATION (IAVPAO)
--------------------------------

Orbital window:      11 to 31
Number of PAOs:     326
Basis functions:    326 (120 shells)
Aux. functions:     848 (250 shells)

Processing maps (0.0 sec)
Average map sizes:
   Aux shells -> MOs              21.0
   Aux shells -> PAOs            326.0
   MOs        -> AO shells       120.0
   PAOs       -> AO shells       120.0

Calculating integrals (0.9 sec, 44.301 MB)
Sorting integrals (0.1 sec, 44.292 MB)
Total time for the integral transformation: 1.0 sec
--------------------------------
INITIAL GUESS AND PNO GENERATION
--------------------------------

PNO truncation parameters                   .... 
    PAOOverlapThresh   =        1.000e-08

    TCutPairs          =        1.000e-05
    TCutPNO            =        1.000e-07
    TCutPNOSingles     =        3.000e-09
    TCutMP2Pairs       =        1.000e-06
    TCutMKN            =        1.000e-02
    TCutDO             =        1.000e-02

Pair selection                          .... not used
Type of local MP2 treatment                 .... semi-local MP2
Strategy for PNO selection                  .... occupation number selection
Pair density normalization                  .... MP2 norm
Spin component scaling                      .... not used

   .... Finished loop over pairs
Making pair pair interaction lists          ... done

                       ===========================
                        231 OF  231 PAIRS ARE KEPT CCSD PAIRS
                          0 OF  231 PAIRS ARE KEPT MP2 PAIRS FOR (T)
                          0 OF  231 PAIRS ARE SKIPPED
                       ===========================

Total time spent in the initial guess                 ...     2.257 sec
SL-MP2 correlation energy (all non-screened pairs)    ...      -1.297917297371 Eh

Initial PNO correlation energy                        ...      -1.296537193009 Eh
sum of pair energies prescreened and skipped MP2 pairs...       0.000000000000 Eh
sum of pair energies of crude MP2 skipped pairs only  ...       0.000000000000 Eh
sum of MP2 pair energies for pairs that were not kept ...       0.000000000000 Eh
sum of PNO error estimates for the kept pairs         ...      -0.001380104362 Eh
                                                          --------------------
sum of all corrections                                         -0.001380104362
Initial total correlation energy                               -1.297917297371
Thresholds for map construction and integral transformation for fine MP2 and CCSD(T) calculation:
   TCutMKN   ...     1.0e-03
   TCutDO    ...     5.0e-03
   TCutPairs ...     1.0e-05
   TCutCMO   ...     1.0e-03
   TCutCPAO  ...     1.0e-03

Thresholds for map construction and integral transformation for strong Triples:
   TCutMKN   ...     1.0e-02
   TCutDO    ...     1.0e-02
   TCutCMO   ...     1.0e-03
   TCutCPAO  ...     1.0e-03

Thresholds for map construction and integral transformation for weak Triples:
   TCutMKN   ...     1.0e-01
   TCutDO    ...     2.0e-02
   TCutCMO   ...     1.0e-03
   TCutCPAO  ...     1.0e-03

--------------------------------
LOCAL RI TRANSFORMATION (IAVPAO)
--------------------------------

Orbital window:      11 to 31
Number of PAOs:     326
Basis functions:    326 (120 shells)
Aux. functions:     848 (250 shells)

Processing maps (0.0 sec)
Average map sizes:
   Aux shells -> MOs              21.0
   Aux shells -> PAOs            326.0
   MOs        -> AO shells       120.0
   PAOs       -> AO shells       120.0

Calculating integrals (0.9 sec, 44.301 MB)
Sorting integrals (0.1 sec, 44.292 MB)
Total time for the integral transformation: 1.0 sec
--------------------------------
INITIAL GUESS AND PNO GENERATION
--------------------------------

PNO truncation parameters                   .... 
    ScaleTCutPNO       =        1.000e-02
    PAOOverlapThresh   =        1.000e-08

    TCutPairs          =        1.000e-05
    TCutPNO            =        1.000e-07
    TCutPNOSingles     =        3.000e-09
    TCutMP2Pairs       =        1.000e-06
    TCutMKN            =        1.000e-03
    TCutDO             =        5.000e-03

Pair selection                          .... not used
Type of local MP2 treatment                 .... full local PMP2
Strategy for PNO selection                  .... occupation number selection
Pair density normalization                  .... MP2 norm
Spin component scaling                      .... not used

PASS-1: Formation of initial guess LMP2 amplitudes
Initial amplitudes guess done. Entering LMP2 iteration loop:
   Max. no of iterations          ...  50
   Energy convergence tolerance   ...    1.0e-07
   Residual convergence tolerance ...    5.0e-07
   Fock matrix cutoff             ...    1.0e-05 Eh
   DIIS convergence acceleration parameters:
        Max # vectors in DIIS     ... 7
        Start iteration of DIIS   ... 0
        Levelshift                ... 2.000e-01
        Damping factor 1          ... 5.000e-01
        Damping factor 2          ... 1.000e+00
   L-MP2 PNO cut-off              ...   1.0e-09
   L-MP2 PNO cut-off (core)       ...   1.0e-11
                           *** Turning on DIIS ***
LMP2-Iter=   0:  ELMP2= -1.330752535123  DE=   3.2e-02 RMAX=   7.1e-03
LMP2-Iter=   1:  ELMP2= -1.346317288991  DE=   1.6e-02 RMAX=   4.3e-03
LMP2-Iter=   2:  ELMP2= -1.349106954538  DE=   2.8e-03 RMAX=   9.7e-04
LMP2-Iter=   3:  ELMP2= -1.349474721938  DE=   3.7e-04 RMAX=   4.1e-04
LMP2-Iter=   4:  ELMP2= -1.349500162954  DE=   2.5e-05 RMAX=   5.3e-05
LMP2-Iter=   5:  ELMP2= -1.349496521177  DE=   3.6e-06 RMAX=   1.7e-05
LMP2-Iter=   6:  ELMP2= -1.349495755036  DE=   7.7e-07 RMAX=   2.4e-06
LMP2-Iter=   7:  ELMP2= -1.349495661675  DE=   9.3e-08 RMAX=   5.0e-07
LMP2-Iter=   8:  ELMP2= -1.349495677763  DE=   1.6e-08 RMAX=   9.2e-08 => CONVERGED
PASS-2: Formation of Pair natural orbitals
   .... Finished loop over pairs

 PNO Occupation Number Statistics: 
  | Av. % of trace(Dij) retained        ...  99.549128712387
  | sigma^2 in % of trace(Dij) retained ...   2.85e-01
  | Av. % of trace(Di) retained         ...  99.999742430402
  | sigma^2 in % of trace(Di) retained  ...   8.28e-09
 Distributions of % trace(Dij) recovered:
  |       >= 99.9  ...    77 ( 33.3 % of all pairs)
  |   [90.0, 99.0) ...    38 ( 16.5 % of all pairs)
  |   [99.0, 99.9) ...   116 ( 50.2 % of all pairs)
 Distributions of % trace(Di) recovered :
  |       >= 99.9  ...    21 (100.0 % of all I-pairs )

Making pair pair interaction lists          ... done

                       ===========================
                        231 OF  231 PAIRS ARE KEPT
                       ===========================

Total time spent in the initial guess                 ...    21.247 sec
L-MP2 correlation energy (all non-screened pairs)     ...      -1.349495677763 Eh
L-MP2 PNO error correction                            ...      -0.000028608374 Eh
                                                          --------------------
Initial total L-MP2 energy (non-screened pairs)       ...      -1.349524286137 Eh

Initial PNO correlation energy                        ...      -1.348195149018 Eh
sum of pair energies estimated for screened out pairs ...       0.000000000000 Eh
sum of MP2 pair energies for pairs that were not kept ...       0.000000000000 Eh
sum of PNO error estimates for the kept pairs         ...      -0.001329137119 Eh
                                                          --------------------
sum of all corrections                                         -0.001329137119
Initial total correlation energy                               -1.349524286137
Thresholds for map construction and integral transformation for fine MP2 and CCSD(T) calculation:
   TCutMKN   ...     1.0e-03
   TCutDO    ...     5.0e-03
   TCutPairs ...     1.0e-05
   TCutCMO   ...     1.0e-03
   TCutCPAO  ...     1.0e-03

Time for aux screen maps:            0.004
Time for maps after fine MP2:            0.014
-----------------------------
LOCAL RI TRANSFORMATION (IJV)
-----------------------------

Orbital window:      11 to 31
Basis functions:    326 (120 shells)
Aux. functions:     848 (250 shells)

Processing maps (0.0 sec)
Average map sizes:
   Aux shells -> MOs(i)           21.0
   Aux shells -> MOs(j)           21.0
   MOs        -> AO shells       120.0

Calculating integrals (0.9 sec, 2.863 MB)
Sorting integrals (0.0 sec, 2.853 MB)
Total time for the integral transformation: 0.9 sec
--------------------------------
LOCAL RI TRANSFORMATION (VABPAO)
--------------------------------

Number of PAOs:     326
Basis functions:    326 (120 shells)
Aux. functions:     848 (250 shells)

Processing maps (0.0 sec)
Average map sizes:
   Aux shells -> PAOs            326.0
   PAOs       -> AO shells       120.0

Calculating integrals (2.0 sec, 1292.468 MB)
Finished


-------------------------------------
Pair Pair Term precalculation with     
RI-(ij|mn) and (im|jn) transformation  
ON THE FLY                             
-------------------------------------

   IBatch   1 (of   2)              ... done (   54.513 sec)
   IBatch   2 (of   2)              ... done (   28.975 sec)
Total EXT                           ...          83.488 sec

---------------------
RI-PNO TRANSFORMATION
---------------------

Total Number of PNOs                   ...  9834
Average number of PNOs per pair        ...    42
Maximal number of PNOs per pair        ...    73
   #pairs with  1 -  5 PNOs   :    0
   #pairs with  6 - 10 PNOs   :    2
   #pairs with 11 - 15 PNOs   :    6
   #pairs with 16 - 20 PNOs   :   16
   #pairs with 21 - 25 PNOs   :    6
   #pairs with 26 - 30 PNOs   :   27
   #pairs with 31 - 35 PNOs   :   23
   #pairs with 36 - 40 PNOs   :   20
   #pairs with 41 - 45 PNOs   :   24
   #pairs with 46 - 50 PNOs   :   28
   #pairs with 51 - 55 PNOs   :   36
   #pairs with 56 - 60 PNOs   :    9
   #pairs with 61 - 65 PNOs   :   14
   #pairs with 66 - 70 PNOs   :   17
   #pairs with 71 - 75 PNOs   :    3

Generation of (ij|ab)[P] integrals            ... on
Generation of (ia|bc)[P],(ja|bc)[P] integrals ... on
Storage of 3 and 4 external integrals         ... on
Generation of ALL (ka|bc)[P] integrals        ... on
Keep RI integrals in memory                   ... off

Ibatch:  1 (of  1)
Starting 2-4 index PNO integral generation ... done

Timings:
Total PNO integral transformation time     ...         27.352 sec
Size of the 3-external file                ...       190 MB
Size of the 4-external file                ...      1337 MB
Size of the IKJL file                      ...         0 MB
Size of the all 3-external file            ...      2003 MB
Size of the 1-external file                ...         4 MB

Making pair/pair overlap matrices          ... done (    3.448 sec)
Size of the pair overlap file              ... 511 MB
Redoing the guess amplitudes               ... done (    0.004 sec)

-------------------------
FINAL STARTUP INFORMATION
-------------------------

E(0)                                       ...   -703.461824008
E(L-MP2)                                   ...     -1.349524286
E(L-MP2) including corrections             ...     -1.349524286
Initial E(tot)                             ...   -704.811348294
<T|T>                                      ...      0.358291370
Number of pairs included                   ... 231
Total number of pairs                      ... 231

------------------------------------------------
                  RHF COUPLED CLUSTER ITERATIONS
------------------------------------------------

Number of PNO amplitudes to be optimized   ...       471766
Number of non-PNO amplitudes               ...     19966716
Untruncated number of regular amplitudes   ...     19966716

Iter       E(tot)           E(Corr)          Delta-E          Residual     Time
  0   -704.759819645     -1.296666500      0.052857787      0.021114048   14.18
                           *** Turning on DIIS ***
  1   -704.801383484     -1.338230339     -0.041563840      0.007029944   14.02
  2   -704.835088587     -1.371935442     -0.033705103      0.004414307   14.16
  3   -704.842280825     -1.379127680     -0.007192238      0.001954122   14.09
  4   -704.844444834     -1.381291689     -0.002164009      0.001145203   14.09
  5   -704.845177240     -1.382024094     -0.000732405      0.000511856   14.00
  6   -704.845354299     -1.382201153     -0.000177059      0.000182785   13.86
  7   -704.845401740     -1.382248595     -0.000047441      0.000069844   13.05
  8   -704.845405054     -1.382251909     -0.000003314      0.000044710   12.84
  9   -704.845401794     -1.382248649      0.000003260      0.000015650   16.77
 10   -704.845402005     -1.382248860     -0.000000211      0.000007327   16.78
               --- The Coupled-Cluster iterations have converged ---

----------------------
COUPLED CLUSTER ENERGY
----------------------

E(0)                                       ...   -703.461824008
E(CORR)(strong-pairs)                      ...     -1.382248860
E(CORR)(weak-pairs)                        ...     -0.001329137
E(CORR)(corrected)                         ...     -1.383577997
E(TOT)                                     ...   -704.845402005
Singles Norm <S|S>**1/2                    ...      0.096092189  
T1 diagnostic                              ...      0.014827347  

------------------
LARGEST AMPLITUDES
------------------
  12-> 32  12-> 32       0.042218
  13-> 32  13-> 32       0.042203
  23-> 32  23-> 32       0.034710
  19-> 32  19-> 32       0.034705
  14-> 43  14-> 43       0.032388
  25-> 39  25-> 39       0.030320
  27-> 39  27-> 39       0.030314
  22-> 32  -1-> -1       0.029791
  18-> 32  -1-> -1       0.029787
  29-> 38  29-> 38       0.029573
  30-> 38  30-> 38       0.029562
  31-> 32  31-> 32       0.028232
  28-> 32  28-> 32       0.028231
  28-> 39  28-> 39       0.027764
  31-> 39  31-> 39       0.027760
  27-> 32  27-> 32       0.027705


-------------------------------------------
DLPNO BASED TRIPLES CORRECTION
-------------------------------------------

Singles multiplier          ...  1.000000
TCutTNO                     ... 1.000e-09
TCutMP2Pairs                ... 1.000e-06
TCutDOStrong                ... 1.000e-02
TCutMKNStrong               ... 1.000e-02
TCutDOWeak                  ... 2.000e-02
TCutMKNWeak                 ... 1.000e-01

Fragment selection                          .... not used
Number of Triples that are to be computed   ...      1750

 . . . . . . . . .
10% done  
20% done  
30% done  
40% done  
50% done  
60% done  
70% done  
80% done  
90% done               (    196.258 sec)
Triples timings:
Total time for T0               ...   208.541 sec
Total time for Iterative (T)    ...     0.000 sec
Total time of overall (T)       ...   216.863 sec

Triples List generation         ...     0.000 sec
TNO generation                  ...    12.275 sec
Pair density generation         ...     0.005 sec
Look up tables                  ...     0.000 sec
Generating 3-index integrals    ...   127.197 sec
  Make 4-ind.int. from 3-ind.int...    23.516 sec
  Projecting amplitudes (D + S) ...    16.372 sec
  Downprojecting integrals      ...     0.004 sec
  Energy contr. (sum over a,b,c)...     8.132 sec
Fitting ET(->0)                 ...     0.000 sec

Everything after 3-index        ...    69.061 sec

Timing details:
 TNO integrals                  ...   146.565 sec
   Reading 3-index integrals    ...     0.266 sec
   Sorting integrals            ...    19.305 sec
       Sorting integrals 1      ...     0.001 sec
       Sorting integrals 2      ...     9.914 sec
       Sorting integrals 3      ...     0.735 sec
       Sorting integrals 4      ...     0.036 sec
       Sorting integrals 5      ...     0.189 sec
       Sorting integrals 6      ...     8.430 sec
   Calculating local VM**-1/2   ...     0.576 sec
   Orthogonal. integrals        ...     1.048 sec
   Multipl. 3-index integrals   ...   125.369 sec
   All concerning IRIab (w/TNO) ...    12.876 sec

 Calculate W0/W1                ...    21.027 sec
 W 3-ext contribution           ...    11.413 sec
 W 3-int contribution           ...     3.130 sec
 Sorting W                      ...     6.193 sec

 V exchange contribution        ...     2.745 sec

 Timings for Triples without generation
     of 3-index integrals       ...    69.059 sec
       0 weak pairs             ...    69.059 sec
       1 weak pair              ...     0.000 sec
       2 weak pairs             ...     0.000 sec
       3 weak pairs             ...     0.000 sec
  Extra time for extrapolation  ...     0.000 sec

Number of Triples   (0, 1, 2, 3 weak pairs; overall):   1750       0       0       0  (  1750)
Number of Atoms     (0, 1, 2, 3 weak pairs; overall):   14.8     0.0     0.0     0.0  (    15)
Number of PAOs      (0, 1, 2, 3 weak pairs; overall):  322.3     0.0     0.0     0.0  (   326)
Number of AuxFcns   (0, 1, 2, 3 weak pairs; overall):  407.6     0.0     0.0     0.0  (   848)
Number of TNOs      (0, 1, 2, 3 weak pairs         ):  101.6     0.0     0.0     0.0
Aver. Number of NTNO, Atoms, PAOs, AuxFcns / Triples:   1750   101.6    14.8   322.3   407.6

Triples Correction (T)                     ...     -0.059938152
Final correlation energy                   ...     -1.443516149
E(CCSD)                                    ...   -704.845402005
E(CCSD(T))                                 ...   -704.905340157


Maximum memory used throughout the entire calculation: 7602.9 MB


------------------------------------------------------------------------------- 
                                     TIMINGS                                   
------------------------------------------------------------------------------- 


Total execution time                   ...      522.874 sec

Localization of occupied MO's          ...        0.662 sec (  0.1%)
Fock Matrix Formation                  ...        2.368 sec (  0.5%)
Global overlap, Fock, MKN matrices     ...        0.176 sec (  0.0%)
Differential overlap integrals         ...        0.110 sec (  0.0%)
Organizing maps                        ...        0.043 sec (  0.0%)
RI 3-index integral generations        ...        4.850 sec (  0.9%)
RI-PNO integral transformation         ...      115.471 sec ( 22.1%)
Initial Guess                          ...       23.558 sec (  4.5%)
DIIS Solver                            ...        5.425 sec (  1.0%)
State Vector Update                    ...        0.039 sec (  0.0%)
Sigma-vector construction              ...      157.449 sec ( 30.1%)
  <D|H|D>(0-ext)                       ...        4.016 sec (  2.6% of sigma)
  <D|H|D>(2-ext Fock)                  ...        0.018 sec (  0.0% of sigma)
  <D|H|D>(2-ext)                       ...       18.803 sec ( 11.9% of sigma)
  <D|H|D>(4-ext)                       ...       16.992 sec ( 10.8% of sigma)
  <D|H|D>(4-ext-corr)                  ...       88.397 sec ( 56.1% of sigma)
  CCSD doubles correction              ...        0.259 sec (  0.2% of sigma)
  <S|H|S>                              ...        1.126 sec (  0.7% of sigma)
  <S|H|D>(1-ext)                       ...        0.424 sec (  0.3% of sigma)
  <D|H|S>(1-ext)                       ...        0.014 sec (  0.0% of sigma)
  <S|H|D>(3-ext)                       ...        0.625 sec (  0.4% of sigma)
  Fock-dressing                        ...       19.395 sec ( 12.3% of sigma)
  Singles amplitudes                   ...        0.602 sec (  0.4% of sigma)
  (ik|jl)-dressing                     ...        2.998 sec (  1.9% of sigma)
  (ij|ab),(ia|jb)-dressing             ...        3.520 sec (  2.2% of sigma)
  Pair energies                        ...        0.009 sec (  0.0% of sigma)
Total Time for computing (T)           ...      216.948 sec ( 41.5% of ALL)


-------------------------   --------------------
FINAL SINGLE POINT ENERGY      -704.905340157152
-------------------------   --------------------


                            ***************************************
                            *     ORCA property calculations      *
                            ***************************************

                                    ---------------------
                                    Active property flags
                                    ---------------------
   (+) Dipole Moment


------------------------------------------------------------------------------
                       ORCA ELECTRIC PROPERTIES CALCULATION
------------------------------------------------------------------------------

Dipole Moment Calculation                       ... on
Quadrupole Moment Calculation                   ... off
Polarizability Calculation                      ... off
GBWName                                         ... sulfolane_halfchair.gbw
Electron density file                           ... sulfolane_halfchair.scfp.tmp
The origin for moment calculation is the CENTER OF MASS  = ( 0.157825,  0.000001  0.000012)

-------------
DIPOLE MOMENT
-------------
                                X             Y             Z
Electronic contribution:      7.73227       0.00003       0.00043
Nuclear contribution   :    -10.10081       0.00007      -0.00066
                        -----------------------------------------
Total Dipole Moment    :     -2.36854       0.00010      -0.00023
                        -----------------------------------------
Magnitude (a.u.)       :      2.36854
Magnitude (Debye)      :      6.02034



--------------------
Rotational spectrum 
--------------------
 
Rotational constants in cm-1:     0.121870     0.065812     0.061350 
Rotational constants in MHz :  3653.574193  1972.989756  1839.213647 

 Dipole components along the rotational axes: 
x,y,z [a.u.] :    -2.368537     0.000120    -0.000223 
x,y,z [Debye]:    -6.020344     0.000305    -0.000566 

 

Timings for individual modules:

Sum of individual times         ...      541.177 sec (=   9.020 min)
GTO integral calculation        ...        2.380 sec (=   0.040 min)   0.4 %
SCF iterations                  ...       15.568 sec (=   0.259 min)   2.9 %
MDCI module                     ...      523.229 sec (=   8.720 min)  96.7 %
                             ****ORCA TERMINATED NORMALLY****
TOTAL RUN TIME: 0 days 0 hours 9 minutes 1 seconds 602 msec
sulfolane_halfchair.gbw -> /home1/pantazis/klk/xyz_1/Sulphur_compounds/sulfolane_halfchair.gbw
sulfolane_halfchair.job -> /home1/pantazis/klk/xyz_1/Sulphur_compounds/sulfolane_halfchair.job
sulfolane_halfchair.loc -> /home1/pantazis/klk/xyz_1/Sulphur_compounds/sulfolane_halfchair.loc
sulfolane_halfchair.nodes -> /home1/pantazis/klk/xyz_1/Sulphur_compounds/sulfolane_halfchair.nodes
sulfolane_halfchair.prop -> /home1/pantazis/klk/xyz_1/Sulphur_compounds/sulfolane_halfchair.prop
sulfolane_halfchair_property.txt -> /home1/pantazis/klk/xyz_1/Sulphur_compounds/sulfolane_halfchair_property.txt
sulfolane_halfchair.xyz -> /home1/pantazis/klk/xyz_1/Sulphur_compounds/sulfolane_halfchair.xyz
cp: cannot stat sulfolane_halfchair.asa.inp: No such file or directory
