! Job execution by suborca V 6.07 on ZEUS !
Job started from zeus1, running /scratch/pantazis/thiacyclohexane_twb__nrFEMa/orca/orca copied from /opt/orca on zeussn127 in /scratch/pantazis/thiacyclohexane_twb__nrFEMa
Job execution start: Thu Jun 27 11:11:22 CEST 2019
Shared library path: /scratch/pantazis/thiacyclohexane_twb__nrFEMa/orca:/opt/openmpi_1.10.2/lib:/opt/intel/mkl/lib/intel64:/opt/intel/lib/intel64:
PBS Job ID is: 158004.icqc
izeussn127
izeussn127
izeussn127
izeussn127
izeussn127
izeussn127
izeussn127
izeussn127

                                 *****************
                                 * O   R   C   A *
                                 *****************

           --- An Ab Initio, DFT and Semiempirical electronic structure package ---

                  #######################################################
                  #                        -***-                        #
                  #          Department of theory and spectroscopy      #
                  #               Directorship: Frank Neese             #
                  #        Max Planck Institute fuer Kohlenforschung    #
                  #                Kaiser Wilhelm Platz 1               #
                  #                 D-45470 Muelheim/Ruhr               #
                  #                      Germany                        #
                  #                                                     #
                  #                  All rights reserved                #
                  #                        -***-                        #
                  #######################################################


                         Program Version 4.1.x  -  STABLE  -
                                (SVN: $Rev: 14094$)
                ($Date: 2019-06-14 15:01:15 +0200 (Fri, 14 Jun 2019) $)

                         (BUILD: $Sun Jun 23 06:18:31 CEST 2019$)


 With contributions from (in alphabetic order):
   Daniel Aravena         : Magnetic Properties
   Michael Atanasov       : Ab Initio Ligand Field Theory
   Alexander A. Auer      : GIAO ZORA
   Ute Becker             : Parallelization
   Giovanni Bistoni       : ED, Open-shell LED
   Martin Brehm           : Molecular dynamics
   Dmytro Bykov           : SCF Hessian
   Vijay G. Chilkuri      : MRCI spin determinant printing
   Dipayan Datta          : RHF DLPNO-CCSD density
   Achintya Kumar Dutta   : EOM-CC, STEOM-CC
   Dmitry Ganyushin       : Spin-Orbit,Spin-Spin,Magnetic field MRCI
   Miquel Garcia          : C-PCM Hessian
   Yang Guo               : DLPNO-NEVPT2, CIM, IAO-localization
   Andreas Hansen         : Spin unrestricted coupled pair/coupled cluster methods
   Benjamin Helmich-Paris : CASSCF linear response (MC-RPA)
   Lee Huntington         : MR-EOM, pCC
   Robert Izsak           : Overlap fitted RIJCOSX, COSX-SCS-MP3, EOM
   Christian Kollmar      : KDIIS, OOCD, Brueckner-CCSD(T), CCSD density
   Simone Kossmann        : Meta GGA functionals, TD-DFT gradient, OOMP2, MP2 Hessian
   Martin Krupicka        : AUTO-CI
   Lucas Lang             : DCDCAS
   Dagmar Lenk            : GEPOL surface, SMD
   Dimitrios Liakos       : Extrapolation schemes; parallel MDCI
   Dimitrios Manganas     : ROCIS; embedding schemes
   Dimitrios Pantazis     : SARC Basis sets
   Taras Petrenko         : DFT Hessian,TD-DFT gradient, ASA, ECA, R-Raman, ABS, FL, XAS/XES, NRVS
   Peter Pinski           : DLPNO-MP2, DLPNO-MP2 Gradient
   Christoph Reimann      : Effective Core Potentials
   Marius Retegan         : Local ZFS, SOC
   Christoph Riplinger    : Optimizer, TS searches, QM/MM, DLPNO-CCSD(T), (RO)-DLPNO pert. Triples
   Tobias Risthaus        : Range-separated hybrids, TD-DFT gradient, RPA, STAB
   Michael Roemelt        : Restricted open shell CIS
   Masaaki Saitow         : Open-shell DLPNO
   Barbara Sandhoefer     : DKH picture change effects
   Avijit Sen             : IP-ROCIS
   Kantharuban Sivalingam : CASSCF convergence, NEVPT2, FIC-MRCI
   Bernardo de Souza      : ESD, SOC TD-DFT
   Georgi Stoychev        : AutoAux, RI-MP2 NMR
   Willem Van den Heuvel  : Paramagnetic NMR
   Boris Wezisla          : Elementary symmetry handling
   Frank Wennmohs         : Technical directorship


 We gratefully acknowledge several colleagues who have allowed us to
 interface, adapt or use parts of their codes:
   Stefan Grimme, W. Hujo, H. Kruse,             : VdW corrections, initial TS optimization,
                  C. Bannwarth                     DFT functionals, gCP, sTDA/sTD-DF
   Ed Valeev                                     : LibInt (2-el integral package), F12 methods
   Garnet Chan, S. Sharma, J. Yang, R. Olivares  : DMRG
   Ulf Ekstrom                                   : XCFun DFT Library
   Mihaly Kallay                                 : mrcc  (arbitrary order and MRCC methods)
   Andreas Klamt, Michael Diedenhofen            : otool_cosmo (COSMO solvation model)
   Jiri Pittner, Ondrej Demel                    : Mk-CCSD
   Frank Weinhold                                : gennbo (NPA and NBO analysis)
   Christopher J. Cramer and Donald G. Truhlar   : smd solvation model
   Lars Goerigk                                  : TD-DFT with DH, B97 family of functionals
   V. Asgeirsson, H. Jonsson                     : NEB implementation
   FAccTs GmbH                                   : IRC, NEB, NEB-TS, Multilevel


 Your calculation uses the libint2 library for the computation of 2-el integrals
 For citations please refer to: http://libint.valeyev.net

 This ORCA versions uses:
   CBLAS   interface :  Fast vector & matrix operations
   LAPACKE interface :  Fast linear algebra routines
   SCALAPACK package :  Parallel linear algebra routines




***************************************
The coordinates will be read from file: thiacyclohexane_twb.xyz
***************************************


----- Orbital basis set information -----
Your calculation utilizes the basis: cc-pVTZ 
       H, B-Ne : Obtained from the ccRepo (grant-hill.group.shef.ac.uk/ccrepo) Feb. 2017
                 T. H. Dunning, Jr., J. Chem. Phys. 90, 1007 (1989)
            He : Obtained from the ccRepo (grant-hill.group.shef.ac.uk/ccrepo) Feb. 2017
                 D. E. Woon, T. H. Dunning, Jr., J. Chem. Phys. 100, 2975 (1994)
  Li-Be, Na-Mg : Obtained from the ccRepo (grant-hill.group.shef.ac.uk/ccrepo) Feb. 2017
                 B. P. Prascher, D. E. Woon, K. A. Peterson, T. H. Dunning, Jr., A. K. Wilson, Theor. Chem. Acc. 128, 69 (2011)
         Al-Ar : Obtained from the ccRepo (grant-hill.group.shef.ac.uk/ccrepo) Feb. 2017
                 D. E. Woon, T. H. Dunning, Jr., J. Chem. Phys. 98, 1358 (1993)
            Ca : Obtained from the Peterson Research Group Website (tyr0.chem.wsu.edu/~kipeters) Feb. 2017
                 J. Koput, K. A. Peterson, J. Phys. Chem. 106, 9595 (2002)
         Sc-Zn : Obtained from the ccRepo (grant-hill.group.shef.ac.uk/ccrepo) Feb. 2017
                 N. B. Balabanov, K. A. Peterson, J. Chem. Phys. 123, 064107 (2005)
                 N. B. Balabanov, K. A. Peterson, J. Chem. Phys. 125, 074110 (2006)
         Ga-Kr : Obtained from the ccRepo (grant-hill.group.shef.ac.uk/ccrepo) Feb. 2017
                 A. K. Wilson, D. E. Woon, K. A. Peterson, T. H. Dunning, Jr., J. Chem. Phys. 110, 7667 (1999)
             Y : Obtained from the ccRepo (grant-hill.group.shef.ac.uk/ccrepo) Feb. 2017
                 K. A. Peterson, D. Figgen, M. Dolg, H. Stoll, J. Chem. Phys. 126, 124101 (2007)
        Ag, Au : Obtained from the Peterson Research Group Website (tyr0.chem.wsu.edu/~kipeters) Feb. 2017
                 K. A. Peterson, C. Puzzarini, Theor. Chem. Acc. 114, 283 (2005)

----- AuxC basis set information -----
Your calculation utilizes the auxiliary basis: cc-pVTZ/C 
  Obtained from the EMSL Basis Set Exchange (bse.pnl.gov) Feb. 2017
  H-He, B-F, Al-Ar, Ga-Kr : F. Weigend, A. Kohn, C. Hattig, J. Chem. Phys. 116, 3175 (2002)
             Li-Be, Na-Mg : C. Haettig, Phys. Chem. Chem. Phys. 7, 59 (2005)
                       Ne : C. Haettig, Phys. Chem. Chem. Phys. 7, 59 (2005)
                            F. Weigend, A. Kohn, C. Hattig, J. Chem. Phys. 116, 3175 (2002)
                    Sc-Zn : J. G. Hill, J. A. Platts, J. Chem. Phys. 128, 044104 (2008)

----- AuxJK basis set information -----
Your calculation utilizes the auxiliary basis: cc-pVTZ/JK 
  H, B-F, Al-Cl, Ga-Br : Obtained from the TURBOMOLE 7.0 basis set library

================================================================================
                                        WARNINGS
                       Please study these warnings very carefully!
================================================================================


WARNING: MDCI localization with Augmented Hessian Foster-Boys
  ===> : Switching off randomization!

WARNING: Post HF methods need fully converged wavefunctions
  ===> : Setting SCFConvForced true
         You can overwrite this default with %scf ConvForced false 


INFO   : the flag for use of LIBINT has been found!

================================================================================
                                       INPUT FILE
================================================================================
NAME = thiacyclohexane_twb.inp
|  1> ! RHF DLPNO-CCSD(T) cc-pVTZ RIJK cc-pVTZ/JK cc-pVTZ/C
|  2> ! KDIIS SOSCF TightSCF TightPNO
|  3> 
|  4> %pal nprocs 8 end
|  5> 
|  6> %maxcore 8000
|  7> 
|  8> %scf maxiter 300
|  9>      shift shift 0.2 erroff 0.1 end
| 10> end
| 11> 
| 12> * xyzfile 0 1 thiacyclohexane_twb.xyz 
| 13> 
| 14> 
| 15>                          ****END OF INPUT****
================================================================================

                       ****************************
                       * Single Point Calculation *
                       ****************************

---------------------------------
CARTESIAN COORDINATES (ANGSTROEM)
---------------------------------
  C      0.359450   -1.362200   -0.371770
  S      1.553520   -0.000020   -0.000010
  C      0.359510    1.362170    0.371800
  C     -0.937240    1.222440   -0.429150
  C     -1.780900    0.000030   -0.000030
  C     -0.937300   -1.222400    0.429170
  H      0.882510    2.287710    0.115930
  H      0.153350    1.383100    1.447630
  H     -1.533030    2.136700   -0.313680
  H     -0.681600    1.152340   -1.493200
  H     -2.439700   -0.279820   -0.831350
  H     -2.439770    0.279880    0.831230
  H     -1.533120   -2.136640    0.313740
  H     -0.681700   -1.152240    1.493230
  H      0.153290   -1.383160   -1.447600
  H      0.882420   -2.287740   -0.115840

----------------------------
CARTESIAN COORDINATES (A.U.)
----------------------------
  NO LB      ZA    FRAG     MASS         X           Y           Z
   0 C     6.0000    0    12.011    0.679262   -2.574185   -0.702543
   1 S    16.0000    0    32.060    2.935727   -0.000038   -0.000019
   2 C     6.0000    0    12.011    0.679375    2.574128    0.702600
   3 C     6.0000    0    12.011   -1.771127    2.310077   -0.810976
   4 C     6.0000    0    12.011   -3.365413    0.000057   -0.000057
   5 C     6.0000    0    12.011   -1.771240   -2.310001    0.811014
   6 H     1.0000    0     1.008    1.667702    4.323145    0.219076
   7 H     1.0000    0     1.008    0.289790    2.613680    2.735624
   8 H     1.0000    0     1.008   -2.897007    4.037778   -0.592769
   9 H     1.0000    0     1.008   -1.288037    2.177607   -2.821739
  10 H     1.0000    0     1.008   -4.610365   -0.528783   -1.571024
  11 H     1.0000    0     1.008   -4.610497    0.528897    1.570797
  12 H     1.0000    0     1.008   -2.897177   -4.037664    0.592883
  13 H     1.0000    0     1.008   -1.288226   -2.177418    2.821796
  14 H     1.0000    0     1.008    0.289676   -2.613794   -2.735568
  15 H     1.0000    0     1.008    1.667532   -4.323202   -0.218906

--------------------------------
INTERNAL COORDINATES (ANGSTROEM)
--------------------------------
 C      0   0   0     0.000000000000     0.00000000     0.00000000
 S      1   0   0     1.849200642142     0.00000000     0.00000000
 C      2   1   0     1.849179318590    99.56217805     0.00000000
 C      3   2   1     1.530557394514   111.99896799   328.76321597
 C      4   3   2     1.546024701646   112.90903577    67.98786302
 C      1   2   3     1.530558553633   111.99928646   328.76682860
 H      3   2   1     1.093445356888   105.52380115   207.74857995
 H      3   2   1     1.095604946776   109.45168693    92.13607486
 H      4   3   2     1.097346979127   109.20023937   190.01290862
 H      4   3   2     1.096571120402   108.42772057   305.52577614
 H      5   4   3     1.097007932925   108.60724261   202.85298770
 H      5   4   3     1.097004506372   109.65582976    87.23103224
 H      6   1   2     1.097342396383   109.20070106   190.01301119
 H      6   1   2     1.096575336764   108.42988287   305.52706823
 H      1   2   3     1.095605520295   109.45142003    92.13944128
 H      1   2   3     1.093445050014   105.52320080   207.75328506

---------------------------
INTERNAL COORDINATES (A.U.)
---------------------------
 C      0   0   0     0.000000000000     0.00000000     0.00000000
 S      1   0   0     3.494482780321     0.00000000     0.00000000
 C      2   1   0     3.494442484646    99.56217805     0.00000000
 C      3   2   1     2.892334307879   111.99896799   328.76321597
 C      4   3   2     2.921563282388   112.90903577    67.98786302
 C      1   2   3     2.892336498298   111.99928646   328.76682860
 H      3   2   1     2.066312266926   105.52380115   207.74857995
 H      3   2   1     2.070393300376   109.45168693    92.13607486
 H      4   3   2     2.073685264437   109.20023937   190.01290862
 H      4   3   2     2.072219103927   108.42772057   305.52577614
 H      5   4   3     2.073044559967   108.60724261   202.85298770
 H      5   4   3     2.073038084720   109.65582976    87.23103224
 H      6   1   2     2.073676604305   109.20070106   190.01301119
 H      6   1   2     2.072227071697   108.42988287   305.52706823
 H      1   2   3     2.070394384169   109.45142003    92.13944128
 H      1   2   3     2.066311687018   105.52320080   207.75328506

---------------------
BASIS SET INFORMATION
---------------------
There are 3 groups of distinct atoms

 Group   1 Type C   : 18s5p2d1f contracted to 4s3p2d1f pattern {8811/311/11/1}
 Group   2 Type S   : 41s16p2d1f contracted to 5s4p2d1f pattern {13131311/7711/11/1}
 Group   3 Type H   : 5s2p1d contracted to 3s2p1d pattern {311/11/1}

Atom   0C    basis set group =>   1
Atom   1S    basis set group =>   2
Atom   2C    basis set group =>   1
Atom   3C    basis set group =>   1
Atom   4C    basis set group =>   1
Atom   5C    basis set group =>   1
Atom   6H    basis set group =>   3
Atom   7H    basis set group =>   3
Atom   8H    basis set group =>   3
Atom   9H    basis set group =>   3
Atom  10H    basis set group =>   3
Atom  11H    basis set group =>   3
Atom  12H    basis set group =>   3
Atom  13H    basis set group =>   3
Atom  14H    basis set group =>   3
Atom  15H    basis set group =>   3
-------------------------------
AUXILIARY BASIS SET INFORMATION
-------------------------------
There are 3 groups of distinct atoms

 Group   1 Type C   : 8s6p5d3f1g contracted to 8s6p5d3f1g pattern {11111111/111111/11111/111/1}
 Group   2 Type S   : 10s8p7d5f2g contracted to 10s8p7d5f2g pattern {1111111111/11111111/1111111/11111/11}
 Group   3 Type H   : 4s3p2d1f contracted to 4s3p2d1f pattern {1111/111/11/1}

Atom   0C    basis set group =>   1
Atom   1S    basis set group =>   2
Atom   2C    basis set group =>   1
Atom   3C    basis set group =>   1
Atom   4C    basis set group =>   1
Atom   5C    basis set group =>   1
Atom   6H    basis set group =>   3
Atom   7H    basis set group =>   3
Atom   8H    basis set group =>   3
Atom   9H    basis set group =>   3
Atom  10H    basis set group =>   3
Atom  11H    basis set group =>   3
Atom  12H    basis set group =>   3
Atom  13H    basis set group =>   3
Atom  14H    basis set group =>   3
Atom  15H    basis set group =>   3
-------------------------------
AUXILIARY BASIS SET INFORMATION
-------------------------------
There are 3 groups of distinct atoms

 Group   1 Type C   : 10s7p5d2f1g contracted to 10s7p5d2f1g pattern {1111111111/1111111/11111/11/1}
 Group   2 Type S   : 13s11p9d3f1g contracted to 13s11p9d3f1g pattern {1111111111111/11111111111/111111111/111/1}
 Group   3 Type H   : 4s3p2d1f contracted to 4s3p2d1f pattern {1111/111/11/1}

Atom   0C    basis set group =>   1
Atom   1S    basis set group =>   2
Atom   2C    basis set group =>   1
Atom   3C    basis set group =>   1
Atom   4C    basis set group =>   1
Atom   5C    basis set group =>   1
Atom   6H    basis set group =>   3
Atom   7H    basis set group =>   3
Atom   8H    basis set group =>   3
Atom   9H    basis set group =>   3
Atom  10H    basis set group =>   3
Atom  11H    basis set group =>   3
Atom  12H    basis set group =>   3
Atom  13H    basis set group =>   3
Atom  14H    basis set group =>   3
Atom  15H    basis set group =>   3


           ************************************************************
           *        Program running with 8 parallel MPI-processes     *
           *              working on a common directory               *
           ************************************************************
------------------------------------------------------------------------------
                           ORCA GTO INTEGRAL CALCULATION
                           -- RI-GTO INTEGRALS CHOSEN --
------------------------------------------------------------------------------

                         BASIS SET STATISTICS AND STARTUP INFO

Gaussian basis set:
 # of primitive gaussian shells          ...  270
 # of primitive gaussian functions       ...  516
 # of contracted shells                  ...  122
 # of contracted basis functions         ...  324
 Highest angular momentum                ...    3
 Maximum contraction depth               ...   13
Auxiliary gaussian basis set:
 # of primitive gaussian shells          ...  262
 # of primitive gaussian functions       ...  816
 # of contracted shells                  ...  262
 # of contracted aux-basis functions     ...  816
 Highest angular momentum                ...    4
 Maximum contraction depth               ...    1
Ratio of auxiliary to basis functions    ...  2.52
Integral package used                  ... LIBINT
 One Electron integrals                  ... done
 Ordering auxiliary basis shells         ... done
 Integral threshhold             Thresh  ...  2.500e-11
 Primitive cut-off               TCut    ...  2.500e-12
 Pre-screening matrix                    ... done
 Shell pair data                         ... 
 Ordering of the shell pairs             ... done (   0.001 sec) 7327 of 7503 pairs
 Determination of significant pairs      ... done (   0.000 sec)
 Creation of shell pair data             ... done (   0.002 sec)
 Storage of shell pair data              ... done (   0.002 sec)
 Shell pair data done in (   0.006 sec)
 Computing two index integrals           ... done
 Cholesky decomposition of the V-matrix  ... done


Timings:
 Total evaluation time                   ...   0.573 sec (  0.010 min)
 One electron matrix time                ...   0.098 sec (  0.002 min) = 17.1%
 Schwartz matrix evaluation time         ...   0.332 sec (  0.006 min) = 57.9%
 Two index repulsion integral time       ...   0.056 sec (  0.001 min) =  9.7%
 Cholesky decomposition of V             ...   0.056 sec (  0.001 min) =  9.7%
 Three index repulsion integral time     ...   0.000 sec (  0.000 min) =  0.0%



           ************************************************************
           *        Program running with 8 parallel MPI-processes     *
           *              working on a common directory               *
           ************************************************************
-------------------------------------------------------------------------------
                                 ORCA SCF
-------------------------------------------------------------------------------

------------
SCF SETTINGS
------------
Hamiltonian:
 Ab initio Hamiltonian  Method          .... Hartree-Fock(GTOs)
 RI-approximation to the Coulomb term is turned on
   Number of auxiliary basis functions  .... 816
   RI-JK (J+K treated both via RI)      .... on


General Settings:
 Integral files         IntName         .... thiacyclohexane_twb
 Hartree-Fock type      HFTyp           .... RHF
 Total Charge           Charge          ....    0
 Multiplicity           Mult            ....    1
 Number of Electrons    NEL             ....   56
 Basis Dimension        Dim             ....  324
 Nuclear Repulsion      ENuc            ....    309.9787925961 Eh

Convergence Acceleration:
 DIIS                   CNVDIIS         .... off
 Newton-Raphson         CNVNR           .... off
 SOSCF                  CNVSOSCF        .... on
   Start iteration      SOSCFMaxIt      ....   150
   Startup grad/error   SOSCFStart      ....  0.003300
 Level Shifting         CNVShift        .... on
   Level shift para.    LevelShift      ....    0.2000
   Turn off err/grad.   ShiftErr        ....    0.1000
 Zerner damping         CNVZerner       .... off
 Static damping         CNVDamp         .... off
 Fernandez-Rico         CNVRico         .... off

SCF Procedure:
 Maximum # iterations   MaxIter         ....   300
 SCF integral mode      SCFMode         .... Direct
   Integral package                     .... LIBINT
 Reset frequency        DirectResetFreq ....    20
 Integral Threshold     Thresh          ....  2.500e-11 Eh
 Primitive CutOff       TCut            ....  2.500e-12 Eh

Convergence Tolerance:
 Convergence Check Mode ConvCheckMode   .... Total+1el-Energy
 Convergence forced     ConvForced      .... 1
 Energy Change          TolE            ....  1.000e-08 Eh
 1-El. energy change                    ....  1.000e-05 Eh
 Orbital Gradient       TolG            ....  1.000e-05
 Orbital Rotation angle TolX            ....  1.000e-05


Diagonalization of the overlap matrix:
Smallest eigenvalue                        ... 2.239e-04
Time for diagonalization                   ...    0.021 sec
Threshold for overlap eigenvalues          ... 1.000e-08
Number of eigenvalues below threshold      ... 0
Time for construction of square roots      ...    0.034 sec
Total time needed                          ...    0.055 sec

-------------------
DFT GRID GENERATION
-------------------

General Integration Accuracy     IntAcc      ...  4.340
Radial Grid Type                 RadialGrid  ... Gauss-Chebyshev
Angular Grid (max. acc.)         AngularGrid ... Lebedev-110
Angular grid pruning method      GridPruning ... 3 (G Style)
Weight generation scheme         WeightScheme... Becke
Basis function cutoff            BFCut       ...    1.0000e-11
Integration weight cutoff        WCut        ...    1.0000e-14
Grids for H and He will be reduced by one unit

# of grid points (after initial pruning)     ...  18026 (   0.0 sec)
# of grid points (after weights+screening)   ...  16655 (   0.0 sec)
nearest neighbour list constructed           ...    0.0 sec
Grid point re-assignment to atoms done       ...    0.0 sec
Grid point division into batches done        ...    0.0 sec
Reduced shell lists constructed in    0.1 sec

Total number of grid points                  ...    16655
Total number of batches                      ...      266
Average number of points per batch           ...       62
Average number of grid points per atom       ...     1041
Average number of shells per batch           ...    95.66 (78.41%)
Average number of basis functions per batch  ...   249.49 (77.00%)
Average number of large shells per batch     ...    76.06 (79.51%)
Average number of large basis fcns per batch ...   194.17 (77.83%)
Average number of aux-shells per batch       ...    95.66 (36.51%)
Average number of aux functions per batch    ...   249.49 (30.57%)
Maximum spatial batch extension              ...  13.81, 12.72, 14.81 au
Average spatial batch extension              ...   0.37,  0.34,  0.37 au

Time for grid setup =    0.122 sec

------------------------------
INITIAL GUESS: MODEL POTENTIAL
------------------------------
Loading Hartree-Fock densities                     ... done
Calculating cut-offs                               ... done
Setting up the integral package                    ... done
Initializing the effective Hamiltonian             ... done
Starting the Coulomb interaction                   ... done (   0.1 sec)
Reading the grid                                   ... done
Mapping shells                                     ... done
Starting the XC term evaluation                    ... done (   0.1 sec)
Transforming the Hamiltonian                       ... done (   0.0 sec)
Diagonalizing the Hamiltonian                      ... done (   0.0 sec)
Back transforming the eigenvectors                 ... done (   0.0 sec)
Now organizing SCF variables                       ... done
                      ------------------
                      INITIAL GUESS DONE (   0.4 sec)
                      ------------------
--------------
SCF ITERATIONS
--------------
ITER       Energy         Delta-E        Max-DP      RMS-DP      [F,P]   Gradient Norm
                             ****Turning on KDIIS(Cayley)****
  0   -592.4665893863   0.000000000000 0.01780088  0.00025935  0.0911443   0.135319676
  1   -592.5526405461  -0.086051159761 0.03203325  0.00033059  0.0833614   0.117711210
  2   -592.6253217126  -0.072681166574 0.05298887  0.00056607  0.0670242   0.095452074
  3   -592.7145493187  -0.089227606105 0.08042459  0.00091770  0.0401962   0.058650386
                      *** Initiating the SOSCF procedure ***
                           *** Shutting down KDIIS ***
                      *** Re-Reading the Fockian *** 
                      *** Removing any level shift *** 
ITER      Energy       Delta-E        Grad      Rot      Max-DP    RMS-DP
  4   -592.77235319  -0.0578038702  0.002225  0.002225  0.002351  0.000056
  5   -592.77257387  -0.0002206821  0.000916  0.001075  0.001357  0.000035
  6   -592.77259879  -0.0000249184  0.000467  0.000378  0.000436  0.000014
  7   -592.77260794  -0.0000091482  0.000064  0.000120  0.000171  0.000005
  8   -592.77260815  -0.0000002083  0.000017  0.000038  0.000090  0.000002
  9   -592.77260817  -0.0000000243  0.000008  0.000010  0.000024  0.000000
                  ***Gradient check signals convergence***
              ***Rediagonalizing the Fockian in SOSCF/NRSCF***

               *****************************************************
               *                     SUCCESS                       *
               *           SCF CONVERGED AFTER  10 CYCLES          *
               *****************************************************


----------------
TOTAL SCF ENERGY
----------------

Total Energy       :         -592.77260817 Eh          -16130.16271 eV

Components:
Nuclear Repulsion  :          309.97879260 Eh            8434.95177 eV
Electronic Energy  :         -902.75140077 Eh          -24565.11448 eV
One Electron Energy:        -1428.28049097 Eh          -38865.48804 eV
Two Electron Energy:          525.52909020 Eh           14300.37356 eV

Virial components:
Potential Energy   :        -1185.12760508 Eh          -32248.96164 eV
Kinetic Energy     :          592.35499690 Eh           16118.79893 eV
Virial Ratio       :            2.00070500


---------------
SCF CONVERGENCE
---------------

  Last Energy change         ...   -3.3820e-09  Tolerance :   1.0000e-08
  Last MAX-Density change    ...    1.0753e-05  Tolerance :   1.0000e-07
  Last RMS-Density change    ...    1.9951e-07  Tolerance :   5.0000e-09
  Last Orbital Gradient      ...    2.3039e-06  Tolerance :   1.0000e-05
  Last Orbital Rotation      ...    4.5851e-06  Tolerance :   1.0000e-05

             **** THE GBW FILE WAS UPDATED (thiacyclohexane_twb.gbw) ****
             **** DENSITY FILE WAS UPDATED (thiacyclohexane_twb.scfp.tmp) ****
             **** ENERGY FILE WAS UPDATED (thiacyclohexane_twb.en.tmp) ****
----------------
ORBITAL ENERGIES
----------------

  NO   OCC          E(Eh)            E(eV) 
   0   2.0000     -91.933385     -2501.6346 
   1   2.0000     -11.253465      -306.2223 
   2   2.0000     -11.253457      -306.2221 
   3   2.0000     -11.230816      -305.6060 
   4   2.0000     -11.230767      -305.6047 
   5   2.0000     -11.228001      -305.5294 
   6   2.0000      -8.934115      -243.1096 
   7   2.0000      -6.615307      -180.0117 
   8   2.0000      -6.614381      -179.9864 
   9   2.0000      -6.613513      -179.9628 
  10   2.0000      -1.111900       -30.2563 
  11   2.0000      -1.015206       -27.6252 
  12   2.0000      -0.996131       -27.1061 
  13   2.0000      -0.850443       -23.1417 
  14   2.0000      -0.835185       -22.7265 
  15   2.0000      -0.737315       -20.0634 
  16   2.0000      -0.655020       -17.8240 
  17   2.0000      -0.641340       -17.4517 
  18   2.0000      -0.579459       -15.7679 
  19   2.0000      -0.571236       -15.5441 
  20   2.0000      -0.546587       -14.8734 
  21   2.0000      -0.519627       -14.1398 
  22   2.0000      -0.511336       -13.9142 
  23   2.0000      -0.492543       -13.4028 
  24   2.0000      -0.467710       -12.7270 
  25   2.0000      -0.439036       -11.9468 
  26   2.0000      -0.405290       -11.0285 
  27   2.0000      -0.328614        -8.9420 
  28   0.0000       0.130420         3.5489 
  29   0.0000       0.154799         4.2123 
  30   0.0000       0.163238         4.4419 
  31   0.0000       0.175884         4.7861 
  32   0.0000       0.176506         4.8030 
  33   0.0000       0.193176         5.2566 
  34   0.0000       0.217869         5.9285 
  35   0.0000       0.222076         6.0430 
  36   0.0000       0.225021         6.1231 
  37   0.0000       0.230933         6.2840 
  38   0.0000       0.243130         6.6159 
  39   0.0000       0.265310         7.2195 
  40   0.0000       0.319512         8.6944 
  41   0.0000       0.324961         8.8426 
  42   0.0000       0.347473         9.4552 
  43   0.0000       0.391884        10.6637 
  44   0.0000       0.402106        10.9419 
  45   0.0000       0.406951        11.0737 
  46   0.0000       0.408394        11.1130 
  47   0.0000       0.414486        11.2787 
  48   0.0000       0.419146        11.4056 
  49   0.0000       0.438949        11.9444 
  50   0.0000       0.457265        12.4428 
  51   0.0000       0.460651        12.5350 
  52   0.0000       0.478648        13.0247 
  53   0.0000       0.495818        13.4919 
  54   0.0000       0.539553        14.6820 
  55   0.0000       0.545488        14.8435 
  56   0.0000       0.563136        15.3237 
  57   0.0000       0.578566        15.7436 
  58   0.0000       0.579161        15.7598 
  59   0.0000       0.587436        15.9850 
  60   0.0000       0.589959        16.0536 
  61   0.0000       0.604233        16.4420 
  62   0.0000       0.624150        16.9840 
  63   0.0000       0.636324        17.3152 
  64   0.0000       0.637636        17.3510 
  65   0.0000       0.640204        17.4208 
  66   0.0000       0.660364        17.9694 
  67   0.0000       0.665665        18.1137 
  68   0.0000       0.671668        18.2770 
  69   0.0000       0.683910        18.6101 
  70   0.0000       0.687219        18.7002 
  71   0.0000       0.690828        18.7984 
  72   0.0000       0.709366        19.3028 
  73   0.0000       0.753632        20.5074 
  74   0.0000       0.777850        21.1664 
  75   0.0000       0.821271        22.3479 
  76   0.0000       0.824392        22.4329 
  77   0.0000       0.881556        23.9883 
  78   0.0000       0.896902        24.4060 
  79   0.0000       0.919857        25.0306 
  80   0.0000       0.924137        25.1471 
  81   0.0000       0.944711        25.7069 
  82   0.0000       0.986052        26.8319 
  83   0.0000       0.989248        26.9188 
  84   0.0000       1.001538        27.2532 
  85   0.0000       1.053765        28.6744 
  86   0.0000       1.081822        29.4379 
  87   0.0000       1.097339        29.8601 
  88   0.0000       1.100865        29.9561 
  89   0.0000       1.143946        31.1284 
  90   0.0000       1.158214        31.5166 
  91   0.0000       1.158482        31.5239 
  92   0.0000       1.198308        32.6076 
  93   0.0000       1.200062        32.6553 
  94   0.0000       1.229549        33.4577 
  95   0.0000       1.232730        33.5443 
  96   0.0000       1.243012        33.8241 
  97   0.0000       1.246341        33.9147 
  98   0.0000       1.266244        34.4562 
  99   0.0000       1.267283        34.4845 
 100   0.0000       1.305862        35.5343 
 101   0.0000       1.310622        35.6638 
 102   0.0000       1.320895        35.9434 
 103   0.0000       1.327031        36.1104 
 104   0.0000       1.346852        36.6497 
 105   0.0000       1.366781        37.1920 
 106   0.0000       1.379080        37.5267 
 107   0.0000       1.380618        37.5685 
 108   0.0000       1.408469        38.3264 
 109   0.0000       1.412064        38.4242 
 110   0.0000       1.440407        39.1955 
 111   0.0000       1.441460        39.2241 
 112   0.0000       1.456033        39.6207 
 113   0.0000       1.468385        39.9568 
 114   0.0000       1.484981        40.4084 
 115   0.0000       1.492135        40.6031 
 116   0.0000       1.495646        40.6986 
 117   0.0000       1.533367        41.7250 
 118   0.0000       1.538666        41.8692 
 119   0.0000       1.546268        42.0761 
 120   0.0000       1.551326        42.2137 
 121   0.0000       1.587100        43.1872 
 122   0.0000       1.607469        43.7415 
 123   0.0000       1.608636        43.7732 
 124   0.0000       1.631461        44.3943 
 125   0.0000       1.672256        45.5044 
 126   0.0000       1.699588        46.2481 
 127   0.0000       1.720866        46.8272 
 128   0.0000       1.725276        46.9472 
 129   0.0000       1.737374        47.2764 
 130   0.0000       1.792483        48.7759 
 131   0.0000       1.798793        48.9476 
 132   0.0000       1.839948        50.0675 
 133   0.0000       1.857557        50.5467 
 134   0.0000       1.864707        50.7413 
 135   0.0000       1.897483        51.6331 
 136   0.0000       1.897960        51.6461 
 137   0.0000       1.936925        52.7064 
 138   0.0000       1.993069        54.2342 
 139   0.0000       2.009090        54.6701 
 140   0.0000       2.042164        55.5701 
 141   0.0000       2.068522        56.2873 
 142   0.0000       2.110784        57.4374 
 143   0.0000       2.174684        59.1762 
 144   0.0000       2.202363        59.9294 
 145   0.0000       2.239127        60.9298 
 146   0.0000       2.255655        61.3795 
 147   0.0000       2.376374        64.6644 
 148   0.0000       2.379992        64.7629 
 149   0.0000       2.404254        65.4231 
 150   0.0000       2.486012        67.6478 
 151   0.0000       2.556715        69.5718 
 152   0.0000       2.579187        70.1833 
 153   0.0000       2.609437        71.0064 
 154   0.0000       2.653994        72.2189 
 155   0.0000       2.659288        72.3629 
 156   0.0000       2.668060        72.6016 
 157   0.0000       2.690735        73.2186 
 158   0.0000       2.699239        73.4500 
 159   0.0000       2.773233        75.4635 
 160   0.0000       2.801036        76.2201 
 161   0.0000       2.802479        76.2593 
 162   0.0000       2.831526        77.0497 
 163   0.0000       2.860241        77.8311 
 164   0.0000       2.880162        78.3732 
 165   0.0000       2.899240        78.8923 
 166   0.0000       2.927171        79.6524 
 167   0.0000       2.929369        79.7122 
 168   0.0000       2.951852        80.3240 
 169   0.0000       2.965299        80.6899 
 170   0.0000       2.966254        80.7159 
 171   0.0000       3.011417        81.9448 
 172   0.0000       3.029490        82.4366 
 173   0.0000       3.030752        82.4710 
 174   0.0000       3.062621        83.3382 
 175   0.0000       3.069976        83.5383 
 176   0.0000       3.093956        84.1908 
 177   0.0000       3.107471        84.5586 
 178   0.0000       3.125959        85.0617 
 179   0.0000       3.187984        86.7494 
 180   0.0000       3.246457        88.3406 
 181   0.0000       3.250128        88.4405 
 182   0.0000       3.280193        89.2586 
 183   0.0000       3.291704        89.5718 
 184   0.0000       3.303012        89.8795 
 185   0.0000       3.303500        89.8928 
 186   0.0000       3.320839        90.3646 
 187   0.0000       3.339287        90.8666 
 188   0.0000       3.350762        91.1789 
 189   0.0000       3.372697        91.7758 
 190   0.0000       3.389625        92.2364 
 191   0.0000       3.393137        92.3319 
 192   0.0000       3.406220        92.6880 
 193   0.0000       3.409337        92.7728 
 194   0.0000       3.435808        93.4931 
 195   0.0000       3.445872        93.7669 
 196   0.0000       3.450186        93.8843 
 197   0.0000       3.463661        94.2510 
 198   0.0000       3.477380        94.6243 
 199   0.0000       3.487015        94.8865 
 200   0.0000       3.511833        95.5618 
 201   0.0000       3.512194        95.5717 
 202   0.0000       3.531384        96.0938 
 203   0.0000       3.557605        96.8074 
 204   0.0000       3.561871        96.9234 
 205   0.0000       3.601546        98.0030 
 206   0.0000       3.601595        98.0044 
 207   0.0000       3.616346        98.4058 
 208   0.0000       3.624181        98.6190 
 209   0.0000       3.667172        99.7888 
 210   0.0000       3.681891       100.1894 
 211   0.0000       3.697113       100.6036 
 212   0.0000       3.751160       102.0743 
 213   0.0000       3.752218       102.1030 
 214   0.0000       3.771475       102.6271 
 215   0.0000       3.796467       103.3071 
 216   0.0000       3.801812       103.4526 
 217   0.0000       3.831165       104.2513 
 218   0.0000       3.864643       105.1623 
 219   0.0000       3.872243       105.3691 
 220   0.0000       3.890172       105.8569 
 221   0.0000       3.905444       106.2725 
 222   0.0000       3.911103       106.4265 
 223   0.0000       3.913479       106.4912 
 224   0.0000       3.952023       107.5400 
 225   0.0000       3.965656       107.9110 
 226   0.0000       3.981201       108.3340 
 227   0.0000       3.989231       108.5525 
 228   0.0000       4.014240       109.2330 
 229   0.0000       4.028576       109.6231 
 230   0.0000       4.048646       110.1693 
 231   0.0000       4.058436       110.4356 
 232   0.0000       4.060584       110.4941 
 233   0.0000       4.090740       111.3147 
 234   0.0000       4.103364       111.6582 
 235   0.0000       4.128715       112.3480 
 236   0.0000       4.169755       113.4648 
 237   0.0000       4.172043       113.5271 
 238   0.0000       4.184708       113.8717 
 239   0.0000       4.226474       115.0082 
 240   0.0000       4.231019       115.1319 
 241   0.0000       4.257451       115.8511 
 242   0.0000       4.270613       116.2093 
 243   0.0000       4.279055       116.4390 
 244   0.0000       4.290836       116.7596 
 245   0.0000       4.298502       116.9682 
 246   0.0000       4.328652       117.7886 
 247   0.0000       4.347629       118.3050 
 248   0.0000       4.361306       118.6772 
 249   0.0000       4.361412       118.6801 
 250   0.0000       4.389987       119.4576 
 251   0.0000       4.430100       120.5492 
 252   0.0000       4.441439       120.8577 
 253   0.0000       4.447962       121.0352 
 254   0.0000       4.451502       121.1315 
 255   0.0000       4.458053       121.3098 
 256   0.0000       4.498595       122.4130 
 257   0.0000       4.501829       122.5010 
 258   0.0000       4.505434       122.5991 
 259   0.0000       4.522505       123.0636 
 260   0.0000       4.535342       123.4129 
 261   0.0000       4.564105       124.1956 
 262   0.0000       4.600862       125.1958 
 263   0.0000       4.612392       125.5096 
 264   0.0000       4.621996       125.7709 
 265   0.0000       4.636625       126.1690 
 266   0.0000       4.647766       126.4722 
 267   0.0000       4.668496       127.0362 
 268   0.0000       4.679085       127.3244 
 269   0.0000       4.735440       128.8579 
 270   0.0000       4.749048       129.2282 
 271   0.0000       4.811386       130.9245 
 272   0.0000       4.826724       131.3418 
 273   0.0000       4.848656       131.9386 
 274   0.0000       4.887745       133.0023 
 275   0.0000       4.931207       134.1850 
 276   0.0000       4.946070       134.5894 
 277   0.0000       5.039876       137.1420 
 278   0.0000       5.068375       137.9175 
 279   0.0000       5.103879       138.8836 
 280   0.0000       5.106413       138.9526 
 281   0.0000       5.177032       140.8742 
 282   0.0000       5.185805       141.1129 
 283   0.0000       5.201401       141.5373 
 284   0.0000       5.227305       142.2422 
 285   0.0000       5.237624       142.5230 
 286   0.0000       5.266546       143.3100 
 287   0.0000       5.292518       144.0167 
 288   0.0000       5.305660       144.3743 
 289   0.0000       5.332681       145.1096 
 290   0.0000       5.340474       145.3217 
 291   0.0000       5.351187       145.6132 
 292   0.0000       5.389997       146.6693 
 293   0.0000       5.411286       147.2486 
 294   0.0000       5.433775       147.8605 
 295   0.0000       5.441494       148.0706 
 296   0.0000       5.536591       150.6583 
 297   0.0000       5.537261       150.6765 
 298   0.0000       5.582529       151.9083 
 299   0.0000       5.621833       152.9778 
 300   0.0000       5.627303       153.1267 
 301   0.0000       5.654858       153.8765 
 302   0.0000       5.662868       154.0945 
 303   0.0000       5.692242       154.8938 
 304   0.0000       5.733295       156.0109 
 305   0.0000       5.734860       156.0535 
 306   0.0000       5.755465       156.6142 
 307   0.0000       5.818563       158.3311 
 308   0.0000       5.879879       159.9997 
 309   0.0000       5.888989       160.2475 
 310   0.0000       5.899079       160.5221 
 311   0.0000       5.940248       161.6424 
 312   0.0000       6.009138       163.5170 
 313   0.0000       6.148723       167.3153 
 314   0.0000       6.321989       172.0301 
 315   0.0000       6.355951       172.9542 
 316   0.0000       6.387338       173.8083 
 317   0.0000       6.408043       174.3717 
 318   0.0000       6.483940       176.4370 
 319   0.0000      12.129079       330.0490 
 320   0.0000      12.559006       341.7479 
 321   0.0000      12.577556       342.2527 
 322   0.0000      13.238074       360.2263 
 323   0.0000      13.538610       368.4043 

                    ********************************
                    * MULLIKEN POPULATION ANALYSIS *
                    ********************************

-----------------------
MULLIKEN ATOMIC CHARGES
-----------------------
   0 C :   -0.161500
   1 S :   -0.179689
   2 C :   -0.161500
   3 C :   -0.192794
   4 C :   -0.207454
   5 C :   -0.192796
   6 H :    0.122673
   7 H :    0.107381
   8 H :    0.113797
   9 H :    0.101489
  10 H :    0.102525
  11 H :    0.102527
  12 H :    0.113802
  13 H :    0.101485
  14 H :    0.107383
  15 H :    0.122672
Sum of atomic charges:   -0.0000000

--------------------------------
MULLIKEN REDUCED ORBITAL CHARGES
--------------------------------
  0 C s       :     3.203224  s :     3.203224
      pz      :     0.989176  p :     2.832840
      px      :     0.896598
      py      :     0.947066
      dz2     :     0.038122  d :     0.119659
      dxz     :     0.019940
      dyz     :     0.012472
      dx2y2   :     0.013485
      dxy     :     0.035640
      f0      :     0.001169  f :     0.005777
      f+1     :     0.000984
      f-1     :     0.000334
      f+2     :     0.000567
      f-2     :     0.000848
      f+3     :     0.001057
      f-3     :     0.000817
  1 S s       :     5.833662  s :     5.833662
      pz      :     3.879664  p :    10.202736
      px      :     3.333285
      py      :     2.989787
      dz2     :     0.020953  d :     0.130325
      dxz     :     0.011394
      dyz     :     0.013490
      dx2y2   :     0.019827
      dxy     :     0.064660
      f0      :     0.001280  f :     0.012966
      f+1     :     0.001480
      f-1     :     0.001700
      f+2     :     0.000207
      f-2     :     0.002166
      f+3     :     0.002898
      f-3     :     0.003235
  2 C s       :     3.203220  s :     3.203220
      pz      :     0.989174  p :     2.832843
      px      :     0.896606
      py      :     0.947064
      dz2     :     0.038123  d :     0.119661
      dxz     :     0.019940
      dyz     :     0.012471
      dx2y2   :     0.013485
      dxy     :     0.035641
      f0      :     0.001169  f :     0.005777
      f+1     :     0.000984
      f-1     :     0.000335
      f+2     :     0.000567
      f-2     :     0.000848
      f+3     :     0.001057
      f-3     :     0.000817
  3 C s       :     3.212825  s :     3.212825
      pz      :     0.982823  p :     2.856369
      px      :     0.907493
      py      :     0.966054
      dz2     :     0.034608  d :     0.116999
      dxz     :     0.019974
      dyz     :     0.009385
      dx2y2   :     0.020717
      dxy     :     0.032314
      f0      :     0.001112  f :     0.006600
      f+1     :     0.001080
      f-1     :     0.000387
      f+2     :     0.000894
      f-2     :     0.000739
      f+3     :     0.001417
      f-3     :     0.000972
  4 C s       :     3.229528  s :     3.229528
      pz      :     1.013351  p :     2.860351
      px      :     0.963139
      py      :     0.883860
      dz2     :     0.015524  d :     0.111107
      dxz     :     0.032672
      dyz     :     0.017816
      dx2y2   :     0.019927
      dxy     :     0.025168
      f0      :     0.000472  f :     0.006469
      f+1     :     0.001240
      f-1     :     0.000712
      f+2     :     0.000313
      f-2     :     0.001405
      f+3     :     0.001175
      f-3     :     0.001151
  5 C s       :     3.212825  s :     3.212825
      pz      :     0.982817  p :     2.856371
      px      :     0.907499
      py      :     0.966055
      dz2     :     0.034609  d :     0.116999
      dxz     :     0.019973
      dyz     :     0.009386
      dx2y2   :     0.020716
      dxy     :     0.032315
      f0      :     0.001112  f :     0.006600
      f+1     :     0.001080
      f-1     :     0.000387
      f+2     :     0.000894
      f-2     :     0.000739
      f+3     :     0.001417
      f-3     :     0.000972
  6 H s       :     0.842654  s :     0.842654
      pz      :     0.008037  p :     0.032191
      px      :     0.009617
      py      :     0.014537
      dz2     :     0.000364  d :     0.002482
      dxz     :     0.000195
      dyz     :     0.000450
      dx2y2   :     0.000785
      dxy     :     0.000687
  7 H s       :     0.859430  s :     0.859430
      pz      :     0.014229  p :     0.030778
      px      :     0.008788
      py      :     0.007761
      dz2     :     0.000809  d :     0.002411
      dxz     :     0.000901
      dyz     :     0.000632
      dx2y2   :     0.000006
      dxy     :     0.000063
  8 H s       :     0.855347  s :     0.855347
      pz      :     0.007378  p :     0.028417
      px      :     0.009649
      py      :     0.011389
      dz2     :     0.000255  d :     0.002440
      dxz     :     0.000228
      dyz     :     0.000420
      dx2y2   :     0.000915
      dxy     :     0.000622
  9 H s       :     0.868578  s :     0.868578
      pz      :     0.011854  p :     0.027503
      px      :     0.008035
      py      :     0.007614
      dz2     :     0.000769  d :     0.002430
      dxz     :     0.000852
      dyz     :     0.000684
      dx2y2   :     0.000024
      dxy     :     0.000101
 10 H s       :     0.866958  s :     0.866958
      pz      :     0.008159  p :     0.028082
      px      :     0.010981
      py      :     0.008941
      dz2     :     0.000588  d :     0.002435
      dxz     :     0.000613
      dyz     :     0.000468
      dx2y2   :     0.000263
      dxy     :     0.000503
 11 H s       :     0.866956  s :     0.866956
      pz      :     0.008159  p :     0.028082
      px      :     0.010982
      py      :     0.008941
      dz2     :     0.000588  d :     0.002435
      dxz     :     0.000613
      dyz     :     0.000468
      dx2y2   :     0.000263
      dxy     :     0.000503
 12 H s       :     0.855341  s :     0.855341
      pz      :     0.007378  p :     0.028417
      px      :     0.009650
      py      :     0.011389
      dz2     :     0.000255  d :     0.002440
      dxz     :     0.000228
      dyz     :     0.000420
      dx2y2   :     0.000915
      dxy     :     0.000622
 13 H s       :     0.868582  s :     0.868582
      pz      :     0.011855  p :     0.027503
      px      :     0.008035
      py      :     0.007614
      dz2     :     0.000769  d :     0.002430
      dxz     :     0.000852
      dyz     :     0.000684
      dx2y2   :     0.000024
      dxy     :     0.000101
 14 H s       :     0.859428  s :     0.859428
      pz      :     0.014229  p :     0.030778
      px      :     0.008788
      py      :     0.007761
      dz2     :     0.000809  d :     0.002411
      dxz     :     0.000901
      dyz     :     0.000632
      dx2y2   :     0.000006
      dxy     :     0.000063
 15 H s       :     0.842655  s :     0.842655
      pz      :     0.008037  p :     0.032191
      px      :     0.009617
      py      :     0.014537
      dz2     :     0.000364  d :     0.002482
      dxz     :     0.000195
      dyz     :     0.000450
      dx2y2   :     0.000785
      dxy     :     0.000687


                     *******************************
                     * LOEWDIN POPULATION ANALYSIS *
                     *******************************

----------------------
LOEWDIN ATOMIC CHARGES
----------------------
   0 C :   -0.088317
   1 S :    0.359198
   2 C :   -0.088332
   3 C :    0.038082
   4 C :    0.059402
   5 C :    0.038084
   6 H :   -0.038571
   7 H :   -0.044653
   8 H :   -0.024295
   9 H :   -0.025171
  10 H :   -0.026365
  11 H :   -0.026366
  12 H :   -0.024298
  13 H :   -0.025170
  14 H :   -0.044652
  15 H :   -0.038574

-------------------------------
LOEWDIN REDUCED ORBITAL CHARGES
-------------------------------
  0 C s       :     2.708306  s :     2.708306
      pz      :     1.001845  p :     2.907797
      px      :     0.954763
      py      :     0.951188
      dz2     :     0.121902  d :     0.435852
      dxz     :     0.079703
      dyz     :     0.042381
      dx2y2   :     0.061866
      dxy     :     0.130000
      f0      :     0.005081  f :     0.036362
      f+1     :     0.005943
      f-1     :     0.003002
      f+2     :     0.004680
      f-2     :     0.006522
      f+3     :     0.005862
      f-3     :     0.005274
  1 S s       :     5.388110  s :     5.388110
      pz      :     3.726354  p :     9.976021
      px      :     3.298883
      py      :     2.950784
      dz2     :     0.032539  d :     0.240590
      dxz     :     0.029842
      dyz     :     0.030895
      dx2y2   :     0.051507
      dxy     :     0.095808
      f0      :     0.003288  f :     0.036081
      f+1     :     0.002759
      f-1     :     0.004186
      f+2     :     0.000741
      f-2     :     0.005884
      f+3     :     0.008656
      f-3     :     0.010567
  2 C s       :     2.708304  s :     2.708304
      pz      :     1.001843  p :     2.907803
      px      :     0.954768
      py      :     0.951192
      dz2     :     0.121907  d :     0.435862
      dxz     :     0.079705
      dyz     :     0.042381
      dx2y2   :     0.061867
      dxy     :     0.130002
      f0      :     0.005081  f :     0.036363
      f+1     :     0.005943
      f-1     :     0.003002
      f+2     :     0.004680
      f-2     :     0.006522
      f+3     :     0.005862
      f-3     :     0.005274
  3 C s       :     2.663248  s :     2.663248
      pz      :     0.960032  p :     2.833884
      px      :     0.930143
      py      :     0.943708
      dz2     :     0.116042  d :     0.424586
      dxz     :     0.077113
      dyz     :     0.036145
      dx2y2   :     0.077979
      dxy     :     0.117307
      f0      :     0.005031  f :     0.040201
      f+1     :     0.006376
      f-1     :     0.003693
      f+2     :     0.006415
      f-2     :     0.005633
      f+3     :     0.006844
      f-3     :     0.006208
  4 C s       :     2.663114  s :     2.663114
      pz      :     0.973043  p :     2.826476
      px      :     0.937761
      py      :     0.915672
      dz2     :     0.053244  d :     0.411865
      dxz     :     0.113733
      dyz     :     0.065622
      dx2y2   :     0.080824
      dxy     :     0.098442
      f0      :     0.003283  f :     0.039143
      f+1     :     0.005662
      f-1     :     0.006251
      f+2     :     0.004206
      f-2     :     0.005349
      f+3     :     0.005637
      f-3     :     0.008755
  5 C s       :     2.663249  s :     2.663249
      pz      :     0.960031  p :     2.833883
      px      :     0.930144
      py      :     0.943708
      dz2     :     0.116045  d :     0.424584
      dxz     :     0.077109
      dyz     :     0.036147
      dx2y2   :     0.077976
      dxy     :     0.117307
      f0      :     0.005031  f :     0.040201
      f+1     :     0.006376
      f-1     :     0.003694
      f+2     :     0.006415
      f-2     :     0.005632
      f+3     :     0.006844
      f-3     :     0.006208
  6 H s       :     0.849767  s :     0.849767
      pz      :     0.042251  p :     0.160132
      px      :     0.047851
      py      :     0.070031
      dz2     :     0.003814  d :     0.028672
      dxz     :     0.002587
      dyz     :     0.006491
      dx2y2   :     0.008023
      dxy     :     0.007757
  7 H s       :     0.856265  s :     0.856265
      pz      :     0.079227  p :     0.159985
      px      :     0.041101
      py      :     0.039656
      dz2     :     0.010024  d :     0.028403
      dxz     :     0.009089
      dyz     :     0.008445
      dx2y2   :     0.000167
      dxy     :     0.000679
  8 H s       :     0.842356  s :     0.842356
      pz      :     0.039948  p :     0.153867
      px      :     0.050034
      py      :     0.063886
      dz2     :     0.002832  d :     0.028072
      dxz     :     0.003068
      dyz     :     0.005973
      dx2y2   :     0.008690
      dxy     :     0.007509
  9 H s       :     0.843651  s :     0.843651
      pz      :     0.073804  p :     0.153145
      px      :     0.040134
      py      :     0.039206
      dz2     :     0.009798  d :     0.028376
      dxz     :     0.008934
      dyz     :     0.008325
      dx2y2   :     0.000309
      dxy     :     0.001011
 10 H s       :     0.844796  s :     0.844796
      pz      :     0.059207  p :     0.153397
      px      :     0.052662
      py      :     0.041527
      dz2     :     0.007997  d :     0.028172
      dxz     :     0.007308
      dyz     :     0.005291
      dx2y2   :     0.003268
      dxy     :     0.004308
 11 H s       :     0.844796  s :     0.844796
      pz      :     0.059205  p :     0.153398
      px      :     0.052666
      py      :     0.041528
      dz2     :     0.007997  d :     0.028172
      dxz     :     0.007308
      dyz     :     0.005290
      dx2y2   :     0.003269
      dxy     :     0.004308
 12 H s       :     0.842356  s :     0.842356
      pz      :     0.039948  p :     0.153869
      px      :     0.050036
      py      :     0.063886
      dz2     :     0.002832  d :     0.028072
      dxz     :     0.003068
      dyz     :     0.005973
      dx2y2   :     0.008690
      dxy     :     0.007509
 13 H s       :     0.843652  s :     0.843652
      pz      :     0.073804  p :     0.153143
      px      :     0.040133
      py      :     0.039206
      dz2     :     0.009798  d :     0.028375
      dxz     :     0.008934
      dyz     :     0.008325
      dx2y2   :     0.000308
      dxy     :     0.001011
 14 H s       :     0.856265  s :     0.856265
      pz      :     0.079227  p :     0.159984
      px      :     0.041101
      py      :     0.039656
      dz2     :     0.010024  d :     0.028403
      dxz     :     0.009089
      dyz     :     0.008445
      dx2y2   :     0.000167
      dxy     :     0.000679
 15 H s       :     0.849768  s :     0.849768
      pz      :     0.042251  p :     0.160133
      px      :     0.047850
      py      :     0.070031
      dz2     :     0.003814  d :     0.028672
      dxz     :     0.002587
      dyz     :     0.006491
      dx2y2   :     0.008023
      dxy     :     0.007757


                      *****************************
                      * MAYER POPULATION ANALYSIS *
                      *****************************

  NA   - Mulliken gross atomic population
  ZA   - Total nuclear charge
  QA   - Mulliken gross atomic charge
  VA   - Mayer's total valence
  BVA  - Mayer's bonded valence
  FA   - Mayer's free valence

  ATOM       NA         ZA         QA         VA         BVA        FA
  0 C      6.1615     6.0000    -0.1615     3.8851     3.8851    -0.0000
  1 S     16.1797    16.0000    -0.1797     1.9864     1.9864     0.0000
  2 C      6.1615     6.0000    -0.1615     3.8851     3.8851     0.0000
  3 C      6.1928     6.0000    -0.1928     3.8498     3.8498    -0.0000
  4 C      6.2075     6.0000    -0.2075     3.8582     3.8582     0.0000
  5 C      6.1928     6.0000    -0.1928     3.8498     3.8498     0.0000
  6 H      0.8773     1.0000     0.1227     0.9814     0.9814    -0.0000
  7 H      0.8926     1.0000     0.1074     0.9759     0.9759     0.0000
  8 H      0.8862     1.0000     0.1138     0.9760     0.9760    -0.0000
  9 H      0.8985     1.0000     0.1015     0.9801     0.9801    -0.0000
 10 H      0.8975     1.0000     0.1025     0.9807     0.9807    -0.0000
 11 H      0.8975     1.0000     0.1025     0.9807     0.9807     0.0000
 12 H      0.8862     1.0000     0.1138     0.9760     0.9760    -0.0000
 13 H      0.8985     1.0000     0.1015     0.9801     0.9801     0.0000
 14 H      0.8926     1.0000     0.1074     0.9759     0.9759    -0.0000
 15 H      0.8773     1.0000     0.1227     0.9814     0.9814     0.0000

  Mayer bond orders larger than 0.1
B(  0-C ,  1-S ) :   0.9723 B(  0-C ,  5-C ) :   0.9481 B(  0-C , 14-H ) :   0.9788 
B(  0-C , 15-H ) :   0.9821 B(  1-S ,  2-C ) :   0.9723 B(  2-C ,  3-C ) :   0.9481 
B(  2-C ,  6-H ) :   0.9821 B(  2-C ,  7-H ) :   0.9788 B(  3-C ,  4-C ) :   0.9414 
B(  3-C ,  8-H ) :   0.9861 B(  3-C ,  9-H ) :   0.9801 B(  4-C ,  5-C ) :   0.9414 
B(  4-C , 10-H ) :   0.9917 B(  4-C , 11-H ) :   0.9917 B(  5-C , 12-H ) :   0.9861 
B(  5-C , 13-H ) :   0.9801 

-------
TIMINGS
-------

Total SCF time: 0 days 0 hours 0 min 12 sec 

Total time                  ....      12.600 sec
Sum of individual times     ....      12.341 sec  ( 97.9%)

Fock matrix formation       ....      11.750 sec  ( 93.3%)
Diagonalization             ....       0.080 sec  (  0.6%)
Density matrix formation    ....       0.011 sec  (  0.1%)
Population analysis         ....       0.037 sec  (  0.3%)
Initial guess               ....       0.259 sec  (  2.1%)
Orbital Transformation      ....       0.000 sec  (  0.0%)
Orbital Orthonormalization  ....       0.000 sec  (  0.0%)
DIIS solution               ....       0.000 sec  (  0.0%)
SOSCF solution              ....       0.083 sec  (  0.7%)


           ************************************************************
           *        Program running with 8 parallel MPI-processes     *
           *              working on a common directory               *
           ************************************************************


------------------------------------------------------------------------------- 
                              ORCA-MATRIX DRIVEN CI                            
------------------------------------------------------------------------------- 


Wavefunction type
-----------------
Correlation treatment                      ...      CCSD     
Single excitations                         ... ON
Orbital optimization                       ... OFF
Calculation of Z vector                    ... OFF
Calculation of Brueckner orbitals          ... OFF
Perturbative triple excitations            ... ON
Calculation of F12 correction              ... OFF
Frozen core treatment                      ... chemical core (20 el)
Reference Wavefunction                     ... RHF
  Internal Orbitals:    10 ...   27 ( 18 MO's/ 36 electrons)
  Virtual  Orbitals:    28 ...  323 (296 MO's              )
Number of AO's                             ...    324
Number of electrons                        ...     56
Number of correlated electrons             ...     36

Algorithmic settings
--------------------
Integral transformation                    ... All integrals via the RI transformation
K(C) Formation                             ... RI-DLPNO
   PNO-Integral Storage                    ... ON DISK
   PNO occupation number cut-off           ... 1.000e-07
   Singles PNO occupation number cut-off   ... 3.000e-09
   PNO Mulliken prescreening cut-off       ... 1.000e-03
   Domain cut-off (Mulliken population)    ... 1.000e-03
   PNO Normalization                       ...    1
Maximum number of iterations               ...        50
Convergence tolerance (max. residuum)      ... 1.000e-05
Level shift for amplitude update           ... 2.000e-01
Maximum number of DIIS vectors             ...         7
DIIS turned on at iteration                ...         0
Damping before turning on DIIS             ...     0.500
Damping after turning on DIIS              ...     0.000
Pair specific amplitude update             ... OFF
Natural orbital iterations                 ... OFF
Perturbative natural orbital generation    ... OFF
Printlevel                                 ... 2

Singles Fock matrix elements calculated using PNOs.

Memory handling:
----------------
Maximum memory for working arrays          ...   8000 MB
Data storage in matrix containers          ... UNCOMPRESSED
Data type for integral storage             ... DOUBLE
In-Core Storage of quantities:
   Amplitudes+Sigma Vector      ... NO
   J+K operators                ... NO
   DIIS vectors                 ... NO
   3-external integrals         ... NO
   4-external integrals         ... NO

Localization treatment:
-----------------------
Localization option                        ...    6
Localization threshhold                    ... -1.0e+00
Using relative localization threshhold     ... 1.0e-08
Neglect threshold for strong pairs         ... 1.000e-05 Eh
Prescreening threshold for very weak pairs ... 1.000e-07 Eh

Initializing the integral package          ... done
Localizing the valence orbitals
------------------------------------------------------------------------------
                           ORCA ORBITAL LOCALIZATION
------------------------------------------------------------------------------

Input orbitals are from                  ... thiacyclohexane_twb.proc0.gbw
Output orbitals are to                   ... thiacyclohexane_twb.proc0.loc
Max. number of iterations                ... 128
Localizations seeded randomly            ... off
Convergence tolerance                    ... 1.000e-06
Using relative localization threshhold   ... 1.000e-08
Treshold for strong local MOs            ... 9.500e-01
Treshold for bond MOs                    ... 8.500e-01
Operator                                 ... 0
Orbital range for localization           ... 10 to 27
Localization criterion                   ... FOSTER-BOYS (AUGMENTED HESSIAN)
Doing the dipole integrals     ... o.k.
Initial value of the localization sum :   150.481549
ITERATION   0 : L=  212.3378885918 DL=  6.19e+01 (AVERGE_DL)=    0.6358378732 
ITERATION   1 : L=  216.0162413845 DL=  3.68e+00 (AVERGE_DL)=    0.1550532861 
ITERATION   2 : L=  216.0476455257 DL=  3.14e-02 (AVERGE_DL)=    0.0143267521 
ITERATION   3 : L=  216.0479097002 DL=  2.64e-04 (AVERGE_DL)=    0.0013140131 
ITERATION   4 : L=  216.0479118213 DL=  2.12e-06 (AVERGE_DL)=    0.0001177443 
ITERATION   5 : L=  216.0479118516 DL=  3.03e-08 (AVERGE_DL)=    0.0000140726 
LOCALIZATION SUM CONVERGED

------------------------------------------------------
AUGMENTED HESSIAN OPTIMIZATION OF FOSTER-BOYS ORBITALS
------------------------------------------------------

Spin operator:           0
Orbital window:          10 to 27
Number of iterations:    128
Gradient tolerance:      1.000e-06
Number of pairs:         153
Davidson threshold:      2000
Diagonalization method:  LAPACK
Iter:    0   L: 216.0479118516   Grad. norm: 6.486899e-04
   *** Likely close to a maximum now. ***
       Augmented Hessian eigenvalues:  4.38e-09 -7.85e+00 -1.54e+01 -1.76e+01 ... 
Iter:    1   L: 216.0479118538   Grad. norm: 7.528708e-10
LOCALIZATION HAS CONVERGED.

Eigenvalues of the Hessian:
  0 -7.847e+00
  1 -1.543e+01
  2 -1.757e+01
  3 -1.758e+01
  4 -1.769e+01
  5 -1.773e+01
  6 -1.791e+01
  7 -1.840e+01
  8 -1.840e+01
  9 -1.862e+01
    ...


------------------------------------------------------------------------------- 
                    LOCALIZED MOLECULAR ORBITAL COMPOSITIONS                   
------------------------------------------------------------------------------- 

The Mulliken populations for each LMO on each atom are computed
The LMO`s will be ordered according to atom index and type
  (A) Strongly localized MO`s have populations of >=0.950 on one atom
  (B) Two center bond orbitals have populations of >=0.850 on two atoms
  (C) Other MO`s are considered to be `delocalized`

FOUND  -   2 strongly local MO`s
       -  16 two center bond MO`s
       -   0 significantly delocalized MO`s

Rather strongly localized orbitals:
MO  11:   1S  -   1.005891
MO  10:   1S  -   1.005891
Bond-like localized orbitals:
MO  27:  15H  -   0.453442  and   0C  -   0.572047
MO  26:  14H  -   0.464392  and   0C  -   0.564920
MO  25:  13H  -   0.467385  and   5C  -   0.559624
MO  24:  12H  -   0.461433  and   5C  -   0.568318
MO  23:  11H  -   0.467338  and   4C  -   0.566005
MO  22:  10H  -   0.467339  and   4C  -   0.566004
MO  21:   9H  -   0.467382  and   3C  -   0.559628
MO  20:   8H  -   0.461436  and   3C  -   0.568315
MO  19:   7H  -   0.464394  and   2C  -   0.564919
MO  18:   6H  -   0.453442  and   2C  -   0.572047
MO  17:   5C  -   0.518443  and   4C  -   0.514052
MO  16:   5C  -   0.509988  and   0C  -   0.518268
MO  15:   4C  -   0.514051  and   3C  -   0.518443
MO  14:   3C  -   0.509988  and   2C  -   0.518269
MO  13:   2C  -   0.463635  and   1S  -   0.561183
MO  12:   1S  -   0.561184  and   0C  -   0.463634
Localized MO's were stored in: thiacyclohexane_twb.proc0.loc

Localizing the core orbitals
------------------------------------------------------------------------------
                           ORCA ORBITAL LOCALIZATION
------------------------------------------------------------------------------

Input orbitals are from                  ... thiacyclohexane_twb.proc0.loc
Output orbitals are to                   ... thiacyclohexane_twb.proc0.loc
Max. number of iterations                ... 128
Localizations seeded randomly            ... off
Convergence tolerance                    ... 1.000e-06
Using relative localization threshhold   ... 1.000e-08
Treshold for strong local MOs            ... 9.500e-01
Treshold for bond MOs                    ... 8.500e-01
Operator                                 ... 0
Orbital range for localization           ... 0 to 9
Localization criterion                   ... FOSTER-BOYS (AUGMENTED HESSIAN)
Doing the dipole integrals     ... o.k.
Initial value of the localization sum :    87.836284
ITERATION   0 : L=   87.9888519852 DL=  1.53e-01 (AVERGE_DL)=    0.0582270737 
ITERATION   1 : L=   88.0412582811 DL=  5.24e-02 (AVERGE_DL)=    0.0341260070 
ITERATION   2 : L=   88.0429135546 DL=  1.66e-03 (AVERGE_DL)=    0.0060649695 
ITERATION   3 : L=   88.0429739580 DL=  6.04e-05 (AVERGE_DL)=    0.0011585751 
ITERATION   4 : L=   88.0429777958 DL=  3.84e-06 (AVERGE_DL)=    0.0002920351 
ITERATION   5 : L=   88.0429780692 DL=  2.73e-07 (AVERGE_DL)=    0.0000779503 
LOCALIZATION SUM CONVERGED

------------------------------------------------------
AUGMENTED HESSIAN OPTIMIZATION OF FOSTER-BOYS ORBITALS
------------------------------------------------------

Spin operator:           0
Orbital window:          0 to 9
Number of iterations:    128
Gradient tolerance:      1.000e-06
Number of pairs:         45
Davidson threshold:      2000
Diagonalization method:  LAPACK
Iter:    0   L: 88.0429780692   Grad. norm: 2.916702e-04
   *** Detected a saddle point. ***
       Augmented Hessian eigenvalues:  4.34e-05  1.79e-06 -1.58e-05 -5.36e-05 ... 
Iter:    1   L: 88.0429799185   Grad. norm: 2.870945e-04
Iter:    2   L: 88.0429829198   Grad. norm: 2.676214e-04
Iter:    3   L: 88.0429861179   Grad. norm: 2.228328e-04
Iter:    4   L: 88.0429885022   Grad. norm: 1.403577e-04
Iter:    5   L: 88.0429893580   Grad. norm: 2.112719e-05
   *** Likely close to a maximum now. ***
       Augmented Hessian eigenvalues:  2.08e-09 -4.54e-05 -5.40e-05 -6.01e-05 ... 
Iter:    6   L: 88.0429893590   Grad. norm: 1.446257e-08
LOCALIZATION HAS CONVERGED.

Eigenvalues of the Hessian:
  0 -4.538e-05
  1 -5.397e-05
  2 -6.009e-05
  3 -1.372e-01
  4 -1.378e-01
  5 -1.384e-01
  6 -4.134e-01
  7 -5.496e-01
  8 -5.514e-01
  9 -5.527e-01
    ...


------------------------------------------------------------------------------- 
                    LOCALIZED MOLECULAR ORBITAL COMPOSITIONS                   
------------------------------------------------------------------------------- 

The Mulliken populations for each LMO on each atom are computed
The LMO`s will be ordered according to atom index and type
  (A) Strongly localized MO`s have populations of >=0.950 on one atom
  (B) Two center bond orbitals have populations of >=0.850 on two atoms
  (C) Other MO`s are considered to be `delocalized`

FOUND  -  10 strongly local MO`s
       -   0 two center bond MO`s
       -   0 significantly delocalized MO`s

Rather strongly localized orbitals:
MO   9:   5C  -   1.001671
MO   8:   4C  -   1.001170
MO   7:   3C  -   1.001671
MO   6:   2C  -   1.001251
MO   5:   1S  -   1.000211
MO   4:   1S  -   0.999173
MO   3:   1S  -   1.000211
MO   2:   1S  -   0.999998
MO   1:   1S  -   0.999173
MO   0:   0C  -   1.001251
Localized MO's were stored in: thiacyclohexane_twb.proc0.loc

Warning: internal orbitals are localized - no re-canonicalization of internal orbitals

--------------------------
CLOSED-SHELL FOCK OPERATOR
--------------------------

RI-JK section for the Fock operator:
  RHF full Fock operator         ... done
  RHF frozen core Fock operator  ... done
Time needed for Fock operator              ...            2.132 sec
Reference energy                           ...   -592.772608174

--------------
DLPNO SETTINGS (2015 fully linear scaling implementation)
--------------

TCutMKN:           1.000e-03
TCutPAO:           1.000e-03
TCutPNO:           1.000e-07
TCutPNOSingles:    3.000e-09
TCutEN:            9.700e-01
TCutPAOExt:        1.000e-01
TCutPairs:         1.000e-05
TCutPre:           1.000e-07
TCutOSV:           1.000e-06
TCutDOij:          1.000e-05
TCutDO:            5.000e-03
TCutC:             1.000e-04
TCutCPAO:          1.000e-03
TCutCMO:           1.000e-03
TScaleDOMP2PreScr: 2.000e+00
TScaleMKNMP2PreScr:1.000e+01
TScalePNOMP2PreScr:1.000e+00
PAO overlap thresh 1.000e-08
Using PNOs for Singles Fock computation
Use new domains
Use fully linear algorithm
TCutTNO:           1.000e-09
TCutMP2Pairs:      1.000e-06
TCutDOStrong:      2.000e-03
TCutMKNStrong:     1.000e-02
TCutMKNWeak:       1.000e-01
TCutDOWeak:        4.000e-03
NTCutTNO:          1

--------------------------
Calculating differential overlap integrals ... ok
--------------------------
ELECTRON PAIR PRESCREENING
--------------------------

Dipole-based pair screening          .... used

   TCutDOij = 1.000000e-05
   TCutPre  = 1.000000e-07
   .... Finished loop over pairs
Total time spent in the prescreening                  ...     0.000 sec
sum of pair energies estimated for screened out pairs ...       0.000000000000 Eh
Thresholds for map construction and integral transformation for crude MP2:
   TCutMKN                    ...     1.0e-02
   TCutDO                     ...     1.0e-02
   TCutPairs                  ...     1.0e-05
   TCutPNO_CrudeMP2           ...     1.0e-07
   TCutPNOSingles_CrudeMP2    ...     3.0e-09
--------------------------------
LOCAL RI TRANSFORMATION (IAVPAO)
--------------------------------

Orbital window:      10 to 27
Number of PAOs:     324
Basis functions:    324 (122 shells)
Aux. functions:     827 (247 shells)

Processing maps (0.0 sec)
Average map sizes:
   Aux shells -> MOs              18.0
   Aux shells -> PAOs            324.0
   MOs        -> AO shells       121.3
   PAOs       -> AO shells       122.0

Calculating integrals (0.8 sec, 36.807 MB)
Sorting integrals (0.1 sec, 36.797 MB)
Total time for the integral transformation: 0.9 sec
--------------------------------
INITIAL GUESS AND PNO GENERATION
--------------------------------

PNO truncation parameters                   .... 
    PAOOverlapThresh   =        1.000e-08

    TCutPairs          =        1.000e-05
    TCutPNO            =        1.000e-07
    TCutPNOSingles     =        3.000e-09
    TCutMP2Pairs       =        1.000e-06
    TCutMKN            =        1.000e-02
    TCutDO             =        1.000e-02

Pair selection                          .... not used
Type of local MP2 treatment                 .... semi-local MP2
Strategy for PNO selection                  .... occupation number selection
Pair density normalization                  .... MP2 norm
Spin component scaling                      .... not used

   .... Finished loop over pairs
Making pair pair interaction lists          ... done

                       ===========================
                        171 OF  171 PAIRS ARE KEPT CCSD PAIRS
                          0 OF  171 PAIRS ARE KEPT MP2 PAIRS FOR (T)
                          0 OF  171 PAIRS ARE SKIPPED
                       ===========================

Total time spent in the initial guess                 ...     1.521 sec
SL-MP2 correlation energy (all non-screened pairs)    ...      -1.009055245004 Eh

Initial PNO correlation energy                        ...      -1.008048057467 Eh
sum of pair energies prescreened and skipped MP2 pairs...       0.000000000000 Eh
sum of pair energies of crude MP2 skipped pairs only  ...       0.000000000000 Eh
sum of MP2 pair energies for pairs that were not kept ...       0.000000000000 Eh
sum of PNO error estimates for the kept pairs         ...      -0.001007187536 Eh
                                                          --------------------
sum of all corrections                                         -0.001007187536
Initial total correlation energy                               -1.009055245004
Thresholds for map construction and integral transformation for fine MP2 and CCSD(T) calculation:
   TCutMKN   ...     1.0e-03
   TCutDO    ...     5.0e-03
   TCutPairs ...     1.0e-05
   TCutCMO   ...     1.0e-03
   TCutCPAO  ...     1.0e-03

Thresholds for map construction and integral transformation for strong Triples:
   TCutMKN   ...     1.0e-02
   TCutDO    ...     1.0e-02
   TCutCMO   ...     1.0e-03
   TCutCPAO  ...     1.0e-03

Thresholds for map construction and integral transformation for weak Triples:
   TCutMKN   ...     1.0e-01
   TCutDO    ...     2.0e-02
   TCutCMO   ...     1.0e-03
   TCutCPAO  ...     1.0e-03

--------------------------------
LOCAL RI TRANSFORMATION (IAVPAO)
--------------------------------

Orbital window:      10 to 27
Number of PAOs:     324
Basis functions:    324 (122 shells)
Aux. functions:     827 (247 shells)

Processing maps (0.0 sec)
Average map sizes:
   Aux shells -> MOs              18.0
   Aux shells -> PAOs            324.0
   MOs        -> AO shells       121.3
   PAOs       -> AO shells       122.0

Calculating integrals (0.8 sec, 36.807 MB)
Sorting integrals (0.1 sec, 36.797 MB)
Total time for the integral transformation: 0.9 sec
--------------------------------
INITIAL GUESS AND PNO GENERATION
--------------------------------

PNO truncation parameters                   .... 
    ScaleTCutPNO       =        1.000e-02
    PAOOverlapThresh   =        1.000e-08

    TCutPairs          =        1.000e-05
    TCutPNO            =        1.000e-07
    TCutPNOSingles     =        3.000e-09
    TCutMP2Pairs       =        1.000e-06
    TCutMKN            =        1.000e-03
    TCutDO             =        5.000e-03

Pair selection                          .... not used
Type of local MP2 treatment                 .... full local PMP2
Strategy for PNO selection                  .... occupation number selection
Pair density normalization                  .... MP2 norm
Spin component scaling                      .... not used

PASS-1: Formation of initial guess LMP2 amplitudes
Initial amplitudes guess done. Entering LMP2 iteration loop:
   Max. no of iterations          ...  50
   Energy convergence tolerance   ...    1.0e-07
   Residual convergence tolerance ...    5.0e-07
   Fock matrix cutoff             ...    1.0e-05 Eh
   DIIS convergence acceleration parameters:
        Max # vectors in DIIS     ... 7
        Start iteration of DIIS   ... 0
        Levelshift                ... 2.000e-01
        Damping factor 1          ... 5.000e-01
        Damping factor 2          ... 1.000e+00
   L-MP2 PNO cut-off              ...   1.0e-09
   L-MP2 PNO cut-off (core)       ...   1.0e-11
                           *** Turning on DIIS ***
LMP2-Iter=   0:  ELMP2= -1.027870554486  DE=   1.8e-02 RMAX=   5.5e-03
LMP2-Iter=   1:  ELMP2= -1.038158296417  DE=   1.0e-02 RMAX=   2.2e-03
LMP2-Iter=   2:  ELMP2= -1.039868572507  DE=   1.7e-03 RMAX=   4.6e-04
LMP2-Iter=   3:  ELMP2= -1.040035233925  DE=   1.7e-04 RMAX=   1.6e-04
LMP2-Iter=   4:  ELMP2= -1.040041688721  DE=   6.5e-06 RMAX=   2.2e-05
LMP2-Iter=   5:  ELMP2= -1.040040260778  DE=   1.4e-06 RMAX=   6.7e-06
LMP2-Iter=   6:  ELMP2= -1.040040057012  DE=   2.0e-07 RMAX=   9.5e-07
LMP2-Iter=   7:  ELMP2= -1.040040048542  DE=   8.5e-09 RMAX=   2.4e-07
LMP2-Iter=   8:  ELMP2= -1.040040052216  DE=   3.7e-09 RMAX=   3.5e-08 => CONVERGED
PASS-2: Formation of Pair natural orbitals
   .... Finished loop over pairs

 PNO Occupation Number Statistics: 
  | Av. % of trace(Dij) retained        ...  99.709107251691
  | sigma^2 in % of trace(Dij) retained ...   8.98e-02
  | Av. % of trace(Di) retained         ...  99.999722090490
  | sigma^2 in % of trace(Di) retained  ...   2.36e-09
 Distributions of % trace(Dij) recovered:
  |       >= 99.9  ...    56 ( 32.7 % of all pairs)
  |   [90.0, 99.0) ...     4 (  2.3 % of all pairs)
  |   [99.0, 99.9) ...   111 ( 64.9 % of all pairs)
 Distributions of % trace(Di) recovered :
  |       >= 99.9  ...    18 (100.0 % of all I-pairs )

Making pair pair interaction lists          ... done

                       ===========================
                        171 OF  171 PAIRS ARE KEPT
                       ===========================

Total time spent in the initial guess                 ...    12.650 sec
L-MP2 correlation energy (all non-screened pairs)     ...      -1.040040052216 Eh
L-MP2 PNO error correction                            ...      -0.000021564560 Eh
                                                          --------------------
Initial total L-MP2 energy (non-screened pairs)       ...      -1.040061616777 Eh

Initial PNO correlation energy                        ...      -1.039077732929 Eh
sum of pair energies estimated for screened out pairs ...       0.000000000000 Eh
sum of MP2 pair energies for pairs that were not kept ...       0.000000000000 Eh
sum of PNO error estimates for the kept pairs         ...      -0.000983883847 Eh
                                                          --------------------
sum of all corrections                                         -0.000983883847
Initial total correlation energy                               -1.040061616777
Thresholds for map construction and integral transformation for fine MP2 and CCSD(T) calculation:
   TCutMKN   ...     1.0e-03
   TCutDO    ...     5.0e-03
   TCutPairs ...     1.0e-05
   TCutCMO   ...     1.0e-03
   TCutCPAO  ...     1.0e-03

Time for aux screen maps:            0.004
Time for maps after fine MP2:            0.012
-----------------------------
LOCAL RI TRANSFORMATION (IJV)
-----------------------------

Orbital window:      10 to 27
Basis functions:    324 (122 shells)
Aux. functions:     827 (247 shells)

Processing maps (0.0 sec)
Average map sizes:
   Aux shells -> MOs(i)           18.0
   Aux shells -> MOs(j)           18.0
   MOs        -> AO shells       121.3

Calculating integrals (0.8 sec, 2.054 MB)
Sorting integrals (0.0 sec, 2.044 MB)
Total time for the integral transformation: 0.8 sec
--------------------------------
LOCAL RI TRANSFORMATION (VABPAO)
--------------------------------

Number of PAOs:     324
Basis functions:    324 (122 shells)
Aux. functions:     827 (247 shells)

Processing maps (0.0 sec)
Average map sizes:
   Aux shells -> PAOs            324.0
   PAOs       -> AO shells       122.0

Calculating integrals (1.9 sec, 1245.422 MB)
Finished


-------------------------------------
Pair Pair Term precalculation with     
RI-(ij|mn) and (im|jn) transformation  
ON THE FLY                             
-------------------------------------

   IBatch   1 (of   2)              ... done (   84.162 sec)
   IBatch   2 (of   2)              ... done (    4.178 sec)
Total EXT                           ...          88.340 sec

---------------------
RI-PNO TRANSFORMATION
---------------------

Total Number of PNOs                   ...  7940
Average number of PNOs per pair        ...    46
Maximal number of PNOs per pair        ...    71
   #pairs with  1 -  5 PNOs   :    0
   #pairs with  6 - 10 PNOs   :    0
   #pairs with 11 - 15 PNOs   :    0
   #pairs with 16 - 20 PNOs   :    2
   #pairs with 21 - 25 PNOs   :   14
   #pairs with 26 - 30 PNOs   :   20
   #pairs with 31 - 35 PNOs   :   14
   #pairs with 36 - 40 PNOs   :   11
   #pairs with 41 - 45 PNOs   :   10
   #pairs with 46 - 50 PNOs   :   18
   #pairs with 51 - 55 PNOs   :   34
   #pairs with 56 - 60 PNOs   :    7
   #pairs with 61 - 65 PNOs   :   12
   #pairs with 66 - 70 PNOs   :   25
   #pairs with 71 - 75 PNOs   :    4

Generation of (ij|ab)[P] integrals            ... on
Generation of (ia|bc)[P],(ja|bc)[P] integrals ... on
Storage of 3 and 4 external integrals         ... on
Generation of ALL (ka|bc)[P] integrals        ... on
Keep RI integrals in memory                   ... off

Ibatch:  1 (of  1)
Starting 2-4 index PNO integral generation ... done

Timings:
Total PNO integral transformation time     ...         24.218 sec
Size of the 3-external file                ...       172 MB
Size of the 4-external file                ...      1265 MB
Size of the IKJL file                      ...         0 MB
Size of the all 3-external file            ...      1556 MB
Size of the 1-external file                ...         3 MB

Making pair/pair overlap matrices          ... done (    2.199 sec)
Size of the pair overlap file              ... 350 MB
Redoing the guess amplitudes               ... done (    0.004 sec)

-------------------------
FINAL STARTUP INFORMATION
-------------------------

E(0)                                       ...   -592.772608174
E(L-MP2)                                   ...     -1.040061617
E(L-MP2) including corrections             ...     -1.040061617
Initial E(tot)                             ...   -593.812669791
<T|T>                                      ...      0.318408230
Number of pairs included                   ... 171
Total number of pairs                      ... 171

------------------------------------------------
                  RHF COUPLED CLUSTER ITERATIONS
------------------------------------------------

Number of PNO amplitudes to be optimized   ...       406128
Number of non-PNO amplitudes               ...     14982336
Untruncated number of regular amplitudes   ...     14982336

Iter       E(tot)           E(Corr)          Delta-E          Residual     Time
  0   -593.781743347     -1.008151289      0.031910328      0.010657873   11.78
                           *** Turning on DIIS ***
  1   -593.838439489     -1.064847432     -0.056696143      0.006898507   11.71
  2   -593.867985974     -1.094393916     -0.029546485      0.002249021   12.25
  3   -593.873272177     -1.099680119     -0.005286202      0.001221481   12.36
  4   -593.874324537     -1.100732479     -0.001052360      0.000348783   11.91
  5   -593.874518189     -1.100926131     -0.000193652      0.000140140   11.47
  6   -593.874558723     -1.100966666     -0.000040534      0.000048837   11.21
  7   -593.874564452     -1.100972395     -0.000005729      0.000027734   11.72
  8   -593.874565277     -1.100973220     -0.000000825      0.000010079   11.85
  9   -593.874565099     -1.100973041      0.000000179      0.000004064   11.85
               --- The Coupled-Cluster iterations have converged ---

----------------------
COUPLED CLUSTER ENERGY
----------------------

E(0)                                       ...   -592.772608174
E(CORR)(strong-pairs)                      ...     -1.100973041
E(CORR)(weak-pairs)                        ...     -0.000983884
E(CORR)(corrected)                         ...     -1.101956925
E(TOT)                                     ...   -593.874565099
Singles Norm <S|S>**1/2                    ...      0.054589469  
T1 diagnostic                              ...      0.009098245  

------------------
LARGEST AMPLITUDES
------------------
  12-> 28  12-> 28       0.044906
  13-> 28  13-> 28       0.044904
  11-> 28  11-> 28       0.034365
  10-> 28  10-> 28       0.034365
  25-> 35  25-> 35       0.030587
  21-> 35  21-> 35       0.030586
  22-> 34  22-> 34       0.029409
  23-> 34  23-> 34       0.029408
  25-> 28  25-> 28       0.028532
  21-> 28  21-> 28       0.028531
  19-> 35  19-> 35       0.028140
  26-> 35  26-> 35       0.028139
  19-> 28  19-> 28       0.027921
  26-> 28  26-> 28       0.027921
  22-> 28  22-> 28       0.027905
  23-> 28  23-> 28       0.027904


-------------------------------------------
DLPNO BASED TRIPLES CORRECTION
-------------------------------------------

Singles multiplier          ...  1.000000
TCutTNO                     ... 1.000e-09
TCutMP2Pairs                ... 1.000e-06
TCutDOStrong                ... 1.000e-02
TCutMKNStrong               ... 1.000e-02
TCutDOWeak                  ... 2.000e-02
TCutMKNWeak                 ... 1.000e-01

Fragment selection                          .... not used
Number of Triples that are to be computed   ...      1122

 . . . . . . . . .
10% done  
20% done  
30% done  
40% done  
50% done  
60% done  
70% done  
80% done  
90% done               (    152.202 sec)
Triples timings:
Total time for T0               ...   159.893 sec
Total time for Iterative (T)    ...     0.000 sec
Total time of overall (T)       ...   159.894 sec

Triples List generation         ...     0.000 sec
TNO generation                  ...     7.684 sec
Pair density generation         ...     0.005 sec
Look up tables                  ...     0.000 sec
Generating 3-index integrals    ...    99.934 sec
  Make 4-ind.int. from 3-ind.int...    18.342 sec
  Projecting amplitudes (D + S) ...     9.997 sec
  Downprojecting integrals      ...     0.003 sec
  Energy contr. (sum over a,b,c)...     6.778 sec
Fitting ET(->0)                 ...     0.000 sec

Everything after 3-index        ...    52.268 sec

Timing details:
 TNO integrals                  ...   114.984 sec
   Reading 3-index integrals    ...     0.416 sec
   Sorting integrals            ...    22.832 sec
       Sorting integrals 1      ...     0.001 sec
       Sorting integrals 2      ...    14.366 sec
       Sorting integrals 3      ...     1.047 sec
       Sorting integrals 4      ...     0.039 sec
       Sorting integrals 5      ...     0.271 sec
       Sorting integrals 6      ...     7.108 sec
   Calculating local VM**-1/2   ...     0.313 sec
   Orthogonal. integrals        ...     0.723 sec
   Multipl. 3-index integrals   ...    90.700 sec
   All concerning IRIab (w/TNO) ...     9.733 sec

 Calculate W0/W1                ...    17.140 sec
 W 3-ext contribution           ...     9.380 sec
 W 3-int contribution           ...     2.359 sec
 Sorting W                      ...     5.162 sec

 V exchange contribution        ...     2.207 sec

 Timings for Triples without generation
     of 3-index integrals       ...    52.266 sec
       0 weak pairs             ...    52.266 sec
       1 weak pair              ...     0.000 sec
       2 weak pairs             ...     0.000 sec
       3 weak pairs             ...     0.000 sec
  Extra time for extrapolation  ...     0.000 sec

Number of Triples   (0, 1, 2, 3 weak pairs; overall):   1122       0       0       0  (  1122)
Number of Atoms     (0, 1, 2, 3 weak pairs; overall):   15.6     0.0     0.0     0.0  (    16)
Number of PAOs      (0, 1, 2, 3 weak pairs; overall):  318.7     0.0     0.0     0.0  (   324)
Number of AuxFcns   (0, 1, 2, 3 weak pairs; overall):  373.0     0.0     0.0     0.0  (   827)
Number of TNOs      (0, 1, 2, 3 weak pairs         ):  109.7     0.0     0.0     0.0
Aver. Number of NTNO, Atoms, PAOs, AuxFcns / Triples:   1122   109.7    15.6   318.7   373.0

Triples Correction (T)                     ...     -0.046555399
Final correlation energy                   ...     -1.148512324
E(CCSD)                                    ...   -593.874565099
E(CCSD(T))                                 ...   -593.921120498


Maximum memory used throughout the entire calculation: 7918.4 MB


------------------------------------------------------------------------------- 
                                     TIMINGS                                   
------------------------------------------------------------------------------- 


Total execution time                   ...      441.686 sec

Localization of occupied MO's          ...        0.620 sec (  0.1%)
Fock Matrix Formation                  ...        2.132 sec (  0.5%)
Global overlap, Fock, MKN matrices     ...        0.199 sec (  0.0%)
Differential overlap integrals         ...        0.105 sec (  0.0%)
Organizing maps                        ...        0.034 sec (  0.0%)
RI 3-index integral generations        ...        4.422 sec (  1.0%)
RI-PNO integral transformation         ...      116.060 sec ( 26.3%)
Initial Guess                          ...       14.213 sec (  3.2%)
DIIS Solver                            ...        1.516 sec (  0.3%)
State Vector Update                    ...        0.029 sec (  0.0%)
Sigma-vector construction              ...      117.838 sec ( 26.7%)
  <D|H|D>(0-ext)                       ...        2.393 sec (  2.0% of sigma)
  <D|H|D>(2-ext Fock)                  ...        0.013 sec (  0.0% of sigma)
  <D|H|D>(2-ext)                       ...       11.491 sec (  9.8% of sigma)
  <D|H|D>(4-ext)                       ...       15.120 sec ( 12.8% of sigma)
  <D|H|D>(4-ext-corr)                  ...       66.974 sec ( 56.8% of sigma)
  CCSD doubles correction              ...        0.163 sec (  0.1% of sigma)
  <S|H|S>                              ...        0.509 sec (  0.4% of sigma)
  <S|H|D>(1-ext)                       ...        0.288 sec (  0.2% of sigma)
  <D|H|S>(1-ext)                       ...        0.010 sec (  0.0% of sigma)
  <S|H|D>(3-ext)                       ...        0.503 sec (  0.4% of sigma)
  Fock-dressing                        ...       14.500 sec ( 12.3% of sigma)
  Singles amplitudes                   ...        0.408 sec (  0.3% of sigma)
  (ik|jl)-dressing                     ...        1.875 sec (  1.6% of sigma)
  (ij|ab),(ia|jb)-dressing             ...        2.432 sec (  2.1% of sigma)
  Pair energies                        ...        0.007 sec (  0.0% of sigma)
Total Time for computing (T)           ...      159.993 sec ( 36.2% of ALL)


-------------------------   --------------------
FINAL SINGLE POINT ENERGY      -593.921120497931
-------------------------   --------------------


                            ***************************************
                            *     ORCA property calculations      *
                            ***************************************

                                    ---------------------
                                    Active property flags
                                    ---------------------
   (+) Dipole Moment


------------------------------------------------------------------------------
                       ORCA ELECTRIC PROPERTIES CALCULATION
------------------------------------------------------------------------------

Dipole Moment Calculation                       ... on
Quadrupole Moment Calculation                   ... off
Polarizability Calculation                      ... off
GBWName                                         ... thiacyclohexane_twb.gbw
Electron density file                           ... thiacyclohexane_twb.scfp.tmp
The origin for moment calculation is the CENTER OF MASS  = ( 0.133888, -0.000001  0.000000)

-------------
DIPOLE MOMENT
-------------
                                X             Y             Z
Electronic contribution:      6.65766      -0.00012      -0.00006
Nuclear contribution   :     -7.49753       0.00013       0.00008
                        -----------------------------------------
Total Dipole Moment    :     -0.83987       0.00000       0.00002
                        -----------------------------------------
Magnitude (a.u.)       :      0.83987
Magnitude (Debye)      :      2.13479



--------------------
Rotational spectrum 
--------------------
 
Rotational constants in cm-1:     0.134861     0.095491     0.063525 
Rotational constants in MHz :  4043.045814  2862.734924  1904.420616 

 Dipole components along the rotational axes: 
x,y,z [a.u.] :    -0.839875     0.000002     0.000020 
x,y,z [Debye]:    -2.134792     0.000006     0.000051 

 

Timings for individual modules:

Sum of individual times         ...      455.415 sec (=   7.590 min)
GTO integral calculation        ...        0.696 sec (=   0.012 min)   0.2 %
SCF iterations                  ...       12.726 sec (=   0.212 min)   2.8 %
MDCI module                     ...      441.993 sec (=   7.367 min)  97.1 %
                             ****ORCA TERMINATED NORMALLY****
TOTAL RUN TIME: 0 days 0 hours 7 minutes 35 seconds 740 msec
thiacyclohexane_twb.gbw -> /home1/pantazis/klk/xyz_1/Sulphur_compounds/thiacyclohexane_twb.gbw
thiacyclohexane_twb.job -> /home1/pantazis/klk/xyz_1/Sulphur_compounds/thiacyclohexane_twb.job
thiacyclohexane_twb.loc -> /home1/pantazis/klk/xyz_1/Sulphur_compounds/thiacyclohexane_twb.loc
thiacyclohexane_twb.nodes -> /home1/pantazis/klk/xyz_1/Sulphur_compounds/thiacyclohexane_twb.nodes
thiacyclohexane_twb.prop -> /home1/pantazis/klk/xyz_1/Sulphur_compounds/thiacyclohexane_twb.prop
thiacyclohexane_twb_property.txt -> /home1/pantazis/klk/xyz_1/Sulphur_compounds/thiacyclohexane_twb_property.txt
thiacyclohexane_twb.xyz -> /home1/pantazis/klk/xyz_1/Sulphur_compounds/thiacyclohexane_twb.xyz
cp: cannot stat thiacyclohexane_twb.asa.inp: No such file or directory
