! Job execution by suborca V 6.07 on ZEUS !
Job started from zeus1, running /scratch/pantazis/vinyl_alcohol_s_trans__ZIBgor/orca/orca copied from /opt/orca on zeussn124 in /scratch/pantazis/vinyl_alcohol_s_trans__ZIBgor
Job execution start: Thu Jun 27 14:23:15 CEST 2019
Shared library path: /scratch/pantazis/vinyl_alcohol_s_trans__ZIBgor/orca:/opt/openmpi_1.10.2/lib:/opt/intel/mkl/lib/intel64:/opt/intel/lib/intel64:
PBS Job ID is: 158159.icqc
izeussn124
izeussn124
izeussn124
izeussn124
izeussn124
izeussn124
izeussn124
izeussn124

                                 *****************
                                 * O   R   C   A *
                                 *****************

           --- An Ab Initio, DFT and Semiempirical electronic structure package ---

                  #######################################################
                  #                        -***-                        #
                  #          Department of theory and spectroscopy      #
                  #               Directorship: Frank Neese             #
                  #        Max Planck Institute fuer Kohlenforschung    #
                  #                Kaiser Wilhelm Platz 1               #
                  #                 D-45470 Muelheim/Ruhr               #
                  #                      Germany                        #
                  #                                                     #
                  #                  All rights reserved                #
                  #                        -***-                        #
                  #######################################################


                         Program Version 4.1.x  -  STABLE  -
                                (SVN: $Rev: 14094$)
                ($Date: 2019-06-14 15:01:15 +0200 (Fri, 14 Jun 2019) $)

                         (BUILD: $Sun Jun 23 06:18:31 CEST 2019$)


 With contributions from (in alphabetic order):
   Daniel Aravena         : Magnetic Properties
   Michael Atanasov       : Ab Initio Ligand Field Theory
   Alexander A. Auer      : GIAO ZORA
   Ute Becker             : Parallelization
   Giovanni Bistoni       : ED, Open-shell LED
   Martin Brehm           : Molecular dynamics
   Dmytro Bykov           : SCF Hessian
   Vijay G. Chilkuri      : MRCI spin determinant printing
   Dipayan Datta          : RHF DLPNO-CCSD density
   Achintya Kumar Dutta   : EOM-CC, STEOM-CC
   Dmitry Ganyushin       : Spin-Orbit,Spin-Spin,Magnetic field MRCI
   Miquel Garcia          : C-PCM Hessian
   Yang Guo               : DLPNO-NEVPT2, CIM, IAO-localization
   Andreas Hansen         : Spin unrestricted coupled pair/coupled cluster methods
   Benjamin Helmich-Paris : CASSCF linear response (MC-RPA)
   Lee Huntington         : MR-EOM, pCC
   Robert Izsak           : Overlap fitted RIJCOSX, COSX-SCS-MP3, EOM
   Christian Kollmar      : KDIIS, OOCD, Brueckner-CCSD(T), CCSD density
   Simone Kossmann        : Meta GGA functionals, TD-DFT gradient, OOMP2, MP2 Hessian
   Martin Krupicka        : AUTO-CI
   Lucas Lang             : DCDCAS
   Dagmar Lenk            : GEPOL surface, SMD
   Dimitrios Liakos       : Extrapolation schemes; parallel MDCI
   Dimitrios Manganas     : ROCIS; embedding schemes
   Dimitrios Pantazis     : SARC Basis sets
   Taras Petrenko         : DFT Hessian,TD-DFT gradient, ASA, ECA, R-Raman, ABS, FL, XAS/XES, NRVS
   Peter Pinski           : DLPNO-MP2, DLPNO-MP2 Gradient
   Christoph Reimann      : Effective Core Potentials
   Marius Retegan         : Local ZFS, SOC
   Christoph Riplinger    : Optimizer, TS searches, QM/MM, DLPNO-CCSD(T), (RO)-DLPNO pert. Triples
   Tobias Risthaus        : Range-separated hybrids, TD-DFT gradient, RPA, STAB
   Michael Roemelt        : Restricted open shell CIS
   Masaaki Saitow         : Open-shell DLPNO
   Barbara Sandhoefer     : DKH picture change effects
   Avijit Sen             : IP-ROCIS
   Kantharuban Sivalingam : CASSCF convergence, NEVPT2, FIC-MRCI
   Bernardo de Souza      : ESD, SOC TD-DFT
   Georgi Stoychev        : AutoAux, RI-MP2 NMR
   Willem Van den Heuvel  : Paramagnetic NMR
   Boris Wezisla          : Elementary symmetry handling
   Frank Wennmohs         : Technical directorship


 We gratefully acknowledge several colleagues who have allowed us to
 interface, adapt or use parts of their codes:
   Stefan Grimme, W. Hujo, H. Kruse,             : VdW corrections, initial TS optimization,
                  C. Bannwarth                     DFT functionals, gCP, sTDA/sTD-DF
   Ed Valeev                                     : LibInt (2-el integral package), F12 methods
   Garnet Chan, S. Sharma, J. Yang, R. Olivares  : DMRG
   Ulf Ekstrom                                   : XCFun DFT Library
   Mihaly Kallay                                 : mrcc  (arbitrary order and MRCC methods)
   Andreas Klamt, Michael Diedenhofen            : otool_cosmo (COSMO solvation model)
   Jiri Pittner, Ondrej Demel                    : Mk-CCSD
   Frank Weinhold                                : gennbo (NPA and NBO analysis)
   Christopher J. Cramer and Donald G. Truhlar   : smd solvation model
   Lars Goerigk                                  : TD-DFT with DH, B97 family of functionals
   V. Asgeirsson, H. Jonsson                     : NEB implementation
   FAccTs GmbH                                   : IRC, NEB, NEB-TS, Multilevel


 Your calculation uses the libint2 library for the computation of 2-el integrals
 For citations please refer to: http://libint.valeyev.net

 This ORCA versions uses:
   CBLAS   interface :  Fast vector & matrix operations
   LAPACKE interface :  Fast linear algebra routines
   SCALAPACK package :  Parallel linear algebra routines




***************************************
The coordinates will be read from file: vinyl_alcohol_s_trans.xyz
***************************************


----- Orbital basis set information -----
Your calculation utilizes the basis: cc-pVTZ 
       H, B-Ne : Obtained from the ccRepo (grant-hill.group.shef.ac.uk/ccrepo) Feb. 2017
                 T. H. Dunning, Jr., J. Chem. Phys. 90, 1007 (1989)
            He : Obtained from the ccRepo (grant-hill.group.shef.ac.uk/ccrepo) Feb. 2017
                 D. E. Woon, T. H. Dunning, Jr., J. Chem. Phys. 100, 2975 (1994)
  Li-Be, Na-Mg : Obtained from the ccRepo (grant-hill.group.shef.ac.uk/ccrepo) Feb. 2017
                 B. P. Prascher, D. E. Woon, K. A. Peterson, T. H. Dunning, Jr., A. K. Wilson, Theor. Chem. Acc. 128, 69 (2011)
         Al-Ar : Obtained from the ccRepo (grant-hill.group.shef.ac.uk/ccrepo) Feb. 2017
                 D. E. Woon, T. H. Dunning, Jr., J. Chem. Phys. 98, 1358 (1993)
            Ca : Obtained from the Peterson Research Group Website (tyr0.chem.wsu.edu/~kipeters) Feb. 2017
                 J. Koput, K. A. Peterson, J. Phys. Chem. 106, 9595 (2002)
         Sc-Zn : Obtained from the ccRepo (grant-hill.group.shef.ac.uk/ccrepo) Feb. 2017
                 N. B. Balabanov, K. A. Peterson, J. Chem. Phys. 123, 064107 (2005)
                 N. B. Balabanov, K. A. Peterson, J. Chem. Phys. 125, 074110 (2006)
         Ga-Kr : Obtained from the ccRepo (grant-hill.group.shef.ac.uk/ccrepo) Feb. 2017
                 A. K. Wilson, D. E. Woon, K. A. Peterson, T. H. Dunning, Jr., J. Chem. Phys. 110, 7667 (1999)
             Y : Obtained from the ccRepo (grant-hill.group.shef.ac.uk/ccrepo) Feb. 2017
                 K. A. Peterson, D. Figgen, M. Dolg, H. Stoll, J. Chem. Phys. 126, 124101 (2007)
        Ag, Au : Obtained from the Peterson Research Group Website (tyr0.chem.wsu.edu/~kipeters) Feb. 2017
                 K. A. Peterson, C. Puzzarini, Theor. Chem. Acc. 114, 283 (2005)

----- AuxC basis set information -----
Your calculation utilizes the auxiliary basis: cc-pVTZ/C 
  Obtained from the EMSL Basis Set Exchange (bse.pnl.gov) Feb. 2017
  H-He, B-F, Al-Ar, Ga-Kr : F. Weigend, A. Kohn, C. Hattig, J. Chem. Phys. 116, 3175 (2002)
             Li-Be, Na-Mg : C. Haettig, Phys. Chem. Chem. Phys. 7, 59 (2005)
                       Ne : C. Haettig, Phys. Chem. Chem. Phys. 7, 59 (2005)
                            F. Weigend, A. Kohn, C. Hattig, J. Chem. Phys. 116, 3175 (2002)
                    Sc-Zn : J. G. Hill, J. A. Platts, J. Chem. Phys. 128, 044104 (2008)

----- AuxJK basis set information -----
Your calculation utilizes the auxiliary basis: cc-pVTZ/JK 
  H, B-F, Al-Cl, Ga-Br : Obtained from the TURBOMOLE 7.0 basis set library

================================================================================
                                        WARNINGS
                       Please study these warnings very carefully!
================================================================================


WARNING: MDCI localization with Augmented Hessian Foster-Boys
  ===> : Switching off randomization!

WARNING: Post HF methods need fully converged wavefunctions
  ===> : Setting SCFConvForced true
         You can overwrite this default with %scf ConvForced false 


INFO   : the flag for use of LIBINT has been found!

================================================================================
                                       INPUT FILE
================================================================================
NAME = vinyl_alcohol_s_trans.inp
|  1> ! RHF DLPNO-CCSD(T) cc-pVTZ RIJK cc-pVTZ/JK cc-pVTZ/C
|  2> ! KDIIS SOSCF TightSCF TightPNO
|  3> 
|  4> %pal nprocs 8 end
|  5> 
|  6> %maxcore 8000
|  7> 
|  8> %scf maxiter 300
|  9>      shift shift 0.2 erroff 0.1 end
| 10> end
| 11> 
| 12> * xyzfile 0 1 vinyl_alcohol_s_trans.xyz 
| 13> 
| 14> 
| 15>                          ****END OF INPUT****
================================================================================

                       ****************************
                       * Single Point Calculation *
                       ****************************

---------------------------------
CARTESIAN COORDINATES (ANGSTROEM)
---------------------------------
  C     -1.229130   -0.180730    0.000000
  C     -0.036420    0.415720   -0.000050
  O      1.135800   -0.296530   -0.000000
  H      1.890100    0.303540    0.000140
  H     -2.129660    0.421000    0.000110
  H     -1.323920   -1.261290    0.000010
  H      0.070310    1.499110    0.000020

----------------------------
CARTESIAN COORDINATES (A.U.)
----------------------------
  NO LB      ZA    FRAG     MASS         X           Y           Z
   0 C     6.0000    0    12.011   -2.322719   -0.341530    0.000000
   1 C     6.0000    0    12.011   -0.068824    0.785597   -0.000094
   2 O     8.0000    0    15.999    2.146351   -0.560360   -0.000000
   3 H     1.0000    0     1.008    3.571771    0.573607    0.000265
   4 H     1.0000    0     1.008   -4.024474    0.795575    0.000208
   5 H     1.0000    0     1.008   -2.501846   -2.383493    0.000019
   6 H     1.0000    0     1.008    0.132867    2.832907    0.000038

--------------------------------
INTERNAL COORDINATES (ANGSTROEM)
--------------------------------
 C      0   0   0     0.000000000000     0.00000000     0.00000000
 C      1   0   0     1.333532807658     0.00000000     0.00000000
 O      2   1   0     1.371641277230   122.14810646     0.00000000
 H      3   2   1     0.963873702567   110.21342716   180.01194914
 H      1   2   3     1.083066611940   119.68063429   179.99070953
 H      1   2   3     1.084709665210   121.58202805     0.00000000
 H      2   1   3     1.088634552961   122.19503202   180.00952307

---------------------------
INTERNAL COORDINATES (A.U.)
---------------------------
 C      0   0   0     0.000000000000     0.00000000     0.00000000
 C      1   0   0     2.520011797073     0.00000000     0.00000000
 O      2   1   0     2.592026367946   122.14810646     0.00000000
 H      3   2   1     1.821457325540   110.21342716   180.01194914
 H      1   2   3     2.046699281361   119.68063429   179.99070953
 H      1   2   3     2.049804202064   121.58202805     0.00000000
 H      2   1   3     2.057221165020   122.19503202   180.00952307

---------------------
BASIS SET INFORMATION
---------------------
There are 3 groups of distinct atoms

 Group   1 Type C   : 18s5p2d1f contracted to 4s3p2d1f pattern {8811/311/11/1}
 Group   2 Type O   : 18s5p2d1f contracted to 4s3p2d1f pattern {8811/311/11/1}
 Group   3 Type H   : 5s2p1d contracted to 3s2p1d pattern {311/11/1}

Atom   0C    basis set group =>   1
Atom   1C    basis set group =>   1
Atom   2O    basis set group =>   2
Atom   3H    basis set group =>   3
Atom   4H    basis set group =>   3
Atom   5H    basis set group =>   3
Atom   6H    basis set group =>   3
-------------------------------
AUXILIARY BASIS SET INFORMATION
-------------------------------
There are 3 groups of distinct atoms

 Group   1 Type C   : 8s6p5d3f1g contracted to 8s6p5d3f1g pattern {11111111/111111/11111/111/1}
 Group   2 Type O   : 8s6p5d3f1g contracted to 8s6p5d3f1g pattern {11111111/111111/11111/111/1}
 Group   3 Type H   : 4s3p2d1f contracted to 4s3p2d1f pattern {1111/111/11/1}

Atom   0C    basis set group =>   1
Atom   1C    basis set group =>   1
Atom   2O    basis set group =>   2
Atom   3H    basis set group =>   3
Atom   4H    basis set group =>   3
Atom   5H    basis set group =>   3
Atom   6H    basis set group =>   3
-------------------------------
AUXILIARY BASIS SET INFORMATION
-------------------------------
There are 3 groups of distinct atoms

 Group   1 Type C   : 10s7p5d2f1g contracted to 10s7p5d2f1g pattern {1111111111/1111111/11111/11/1}
 Group   2 Type O   : 10s7p5d2f1g contracted to 10s7p5d2f1g pattern {1111111111/1111111/11111/11/1}
 Group   3 Type H   : 4s3p2d1f contracted to 4s3p2d1f pattern {1111/111/11/1}

Atom   0C    basis set group =>   1
Atom   1C    basis set group =>   1
Atom   2O    basis set group =>   2
Atom   3H    basis set group =>   3
Atom   4H    basis set group =>   3
Atom   5H    basis set group =>   3
Atom   6H    basis set group =>   3


           ************************************************************
           *        Program running with 8 parallel MPI-processes     *
           *              working on a common directory               *
           ************************************************************
------------------------------------------------------------------------------
                           ORCA GTO INTEGRAL CALCULATION
                           -- RI-GTO INTEGRALS CHOSEN --
------------------------------------------------------------------------------

                         BASIS SET STATISTICS AND STARTUP INFO

Gaussian basis set:
 # of primitive gaussian shells          ...  110
 # of primitive gaussian functions       ...  214
 # of contracted shells                  ...   54
 # of contracted basis functions         ...  146
 Highest angular momentum                ...    3
 Maximum contraction depth               ...    8
Auxiliary gaussian basis set:
 # of primitive gaussian shells          ...  115
 # of primitive gaussian functions       ...  357
 # of contracted shells                  ...  115
 # of contracted aux-basis functions     ...  357
 Highest angular momentum                ...    4
 Maximum contraction depth               ...    1
Ratio of auxiliary to basis functions    ...  2.45
Integral package used                  ... LIBINT
 One Electron integrals                  ... done
 Ordering auxiliary basis shells         ... done
 Integral threshhold             Thresh  ...  2.500e-11
 Primitive cut-off               TCut    ...  2.500e-12
 Pre-screening matrix                    ... done
 Shell pair data                         ... 
 Ordering of the shell pairs             ... done (   0.000 sec) 1470 of 1485 pairs
 Determination of significant pairs      ... done (   0.000 sec)
 Creation of shell pair data             ... done (   0.000 sec)
 Storage of shell pair data              ... done (   0.001 sec)
 Shell pair data done in (   0.001 sec)
 Computing two index integrals           ... done
 Cholesky decomposition of the V-matrix  ... done


Timings:
 Total evaluation time                   ...   0.246 sec (  0.004 min)
 One electron matrix time                ...   0.016 sec (  0.000 min) =  6.6%
 Schwartz matrix evaluation time         ...   0.154 sec (  0.003 min) = 62.6%
 Two index repulsion integral time       ...   0.024 sec (  0.000 min) =  9.7%
 Cholesky decomposition of V             ...   0.024 sec (  0.000 min) =  9.6%
 Three index repulsion integral time     ...   0.000 sec (  0.000 min) =  0.0%



           ************************************************************
           *        Program running with 8 parallel MPI-processes     *
           *              working on a common directory               *
           ************************************************************
-------------------------------------------------------------------------------
                                 ORCA SCF
-------------------------------------------------------------------------------

------------
SCF SETTINGS
------------
Hamiltonian:
 Ab initio Hamiltonian  Method          .... Hartree-Fock(GTOs)
 RI-approximation to the Coulomb term is turned on
   Number of auxiliary basis functions  .... 357
   RI-JK (J+K treated both via RI)      .... on


General Settings:
 Integral files         IntName         .... vinyl_alcohol_s_trans
 Hartree-Fock type      HFTyp           .... RHF
 Total Charge           Charge          ....    0
 Multiplicity           Mult            ....    1
 Number of Electrons    NEL             ....   24
 Basis Dimension        Dim             ....  146
 Nuclear Repulsion      ENuc            ....     69.9531058369 Eh

Convergence Acceleration:
 DIIS                   CNVDIIS         .... off
 Newton-Raphson         CNVNR           .... off
 SOSCF                  CNVSOSCF        .... on
   Start iteration      SOSCFMaxIt      ....   150
   Startup grad/error   SOSCFStart      ....  0.003300
 Level Shifting         CNVShift        .... on
   Level shift para.    LevelShift      ....    0.2000
   Turn off err/grad.   ShiftErr        ....    0.1000
 Zerner damping         CNVZerner       .... off
 Static damping         CNVDamp         .... off
 Fernandez-Rico         CNVRico         .... off

SCF Procedure:
 Maximum # iterations   MaxIter         ....   300
 SCF integral mode      SCFMode         .... Direct
   Integral package                     .... LIBINT
 Reset frequency        DirectResetFreq ....    20
 Integral Threshold     Thresh          ....  2.500e-11 Eh
 Primitive CutOff       TCut            ....  2.500e-12 Eh

Convergence Tolerance:
 Convergence Check Mode ConvCheckMode   .... Total+1el-Energy
 Convergence forced     ConvForced      .... 1
 Energy Change          TolE            ....  1.000e-08 Eh
 1-El. energy change                    ....  1.000e-05 Eh
 Orbital Gradient       TolG            ....  1.000e-05
 Orbital Rotation angle TolX            ....  1.000e-05


Diagonalization of the overlap matrix:
Smallest eigenvalue                        ... 5.938e-04
Time for diagonalization                   ...    0.007 sec
Threshold for overlap eigenvalues          ... 1.000e-08
Number of eigenvalues below threshold      ... 0
Time for construction of square roots      ...    0.006 sec
Total time needed                          ...    0.013 sec

-------------------
DFT GRID GENERATION
-------------------

General Integration Accuracy     IntAcc      ...  4.340
Radial Grid Type                 RadialGrid  ... Gauss-Chebyshev
Angular Grid (max. acc.)         AngularGrid ... Lebedev-110
Angular grid pruning method      GridPruning ... 3 (G Style)
Weight generation scheme         WeightScheme... Becke
Basis function cutoff            BFCut       ...    1.0000e-11
Integration weight cutoff        WCut        ...    1.0000e-14
Grids for H and He will be reduced by one unit

# of grid points (after initial pruning)     ...   8204 (   0.0 sec)
# of grid points (after weights+screening)   ...   7940 (   0.0 sec)
nearest neighbour list constructed           ...    0.0 sec
Grid point re-assignment to atoms done       ...    0.0 sec
Grid point division into batches done        ...    0.0 sec
Reduced shell lists constructed in    0.0 sec

Total number of grid points                  ...     7940
Total number of batches                      ...      127
Average number of points per batch           ...       62
Average number of grid points per atom       ...     1134
Average number of shells per batch           ...    48.00 (88.89%)
Average number of basis functions per batch  ...   129.18 (88.48%)
Average number of large shells per batch     ...    43.29 (90.20%)
Average number of large basis fcns per batch ...   115.41 (89.34%)
Average number of aux-shells per batch       ...    48.00 (41.74%)
Average number of aux functions per batch    ...   129.18 (36.18%)
Maximum spatial batch extension              ...   2.73,  2.97, 20.06 au
Average spatial batch extension              ...   0.21,  0.22,  0.66 au

Time for grid setup =    0.034 sec

------------------------------
INITIAL GUESS: MODEL POTENTIAL
------------------------------
Loading Hartree-Fock densities                     ... done
Calculating cut-offs                               ... done
Setting up the integral package                    ... done
Initializing the effective Hamiltonian             ... done
Starting the Coulomb interaction                   ... done (   0.0 sec)
Reading the grid                                   ... done
Mapping shells                                     ... done
Starting the XC term evaluation                    ... done (   0.0 sec)
Transforming the Hamiltonian                       ... done (   0.0 sec)
Diagonalizing the Hamiltonian                      ... done (   0.0 sec)
Back transforming the eigenvectors                 ... done (   0.0 sec)
Now organizing SCF variables                       ... done
                      ------------------
                      INITIAL GUESS DONE (   0.2 sec)
                      ------------------
--------------
SCF ITERATIONS
--------------
ITER       Energy         Delta-E        Max-DP      RMS-DP      [F,P]   Gradient Norm
                             ****Turning on KDIIS(Cayley)****
  0   -152.7784741297   0.000000000000 0.01208733  0.00040152  0.1470731   0.162020705
  1   -152.8277778222  -0.049303692468 0.01741982  0.00044138  0.1353272   0.139986817
  2   -152.8690268151  -0.041248992890 0.02822025  0.00073180  0.1087493   0.113658648
  3   -152.9191646605  -0.050137845423 0.04285851  0.00118871  0.0655245   0.070165302
                      *** Initiating the SOSCF procedure ***
                           *** Shutting down KDIIS ***
                      *** Re-Reading the Fockian *** 
                      *** Removing any level shift *** 
ITER      Energy       Delta-E        Grad      Rot      Max-DP    RMS-DP
  4   -152.95223026  -0.0330656021  0.003005  0.003005  0.004787  0.000113
  5   -152.95238245  -0.0001521832  0.000515  0.000537  0.000781  0.000025
  6   -152.95238620  -0.0000037507  0.000534  0.000549  0.000354  0.000010
  7   -152.95238958  -0.0000033847  0.000130  0.000283  0.000156  0.000005
  8   -152.95238979  -0.0000002135  0.000051  0.000201  0.000113  0.000003
  9   -152.95238984  -0.0000000424  0.000015  0.000016  0.000041  0.000001
 10   -152.95238984  -0.0000000038  0.000005  0.000007  0.000021  0.000000
                  ***Gradient check signals convergence***
              ***Rediagonalizing the Fockian in SOSCF/NRSCF***

               *****************************************************
               *                     SUCCESS                       *
               *           SCF CONVERGED AFTER  11 CYCLES          *
               *****************************************************


----------------
TOTAL SCF ENERGY
----------------

Total Energy       :         -152.95238984 Eh           -4162.04612 eV

Components:
Nuclear Repulsion  :           69.95310584 Eh            1903.52078 eV
Electronic Energy  :         -222.90549568 Eh           -6065.56690 eV
One Electron Energy:         -346.49465226 Eh           -9428.59883 eV
Two Electron Energy:          123.58915659 Eh            3363.03192 eV

Virial components:
Potential Energy   :         -305.63243847 Eh           -8316.68146 eV
Kinetic Energy     :          152.68004862 Eh            4154.63534 eV
Virial Ratio       :            2.00178374


---------------
SCF CONVERGENCE
---------------

  Last Energy change         ...   -4.4949e-10  Tolerance :   1.0000e-08
  Last MAX-Density change    ...    4.4775e-06  Tolerance :   1.0000e-07
  Last RMS-Density change    ...    9.6777e-08  Tolerance :   5.0000e-09
  Last Orbital Gradient      ...    1.1519e-06  Tolerance :   1.0000e-05
  Last Orbital Rotation      ...    2.6043e-06  Tolerance :   1.0000e-05

             **** THE GBW FILE WAS UPDATED (vinyl_alcohol_s_trans.gbw) ****
             **** DENSITY FILE WAS UPDATED (vinyl_alcohol_s_trans.scfp.tmp) ****
             **** ENERGY FILE WAS UPDATED (vinyl_alcohol_s_trans.en.tmp) ****
----------------
ORBITAL ENERGIES
----------------

  NO   OCC          E(Eh)            E(eV) 
   0   2.0000     -20.584850      -560.1423 
   1   2.0000     -11.295935      -307.3780 
   2   2.0000     -11.209997      -305.0395 
   3   2.0000      -1.394893       -37.9570 
   4   2.0000      -1.020424       -27.7672 
   5   2.0000      -0.793892       -21.6029 
   6   2.0000      -0.736123       -20.0309 
   7   2.0000      -0.618663       -16.8347 
   8   2.0000      -0.572928       -15.5902 
   9   2.0000      -0.569077       -15.4854 
  10   2.0000      -0.517097       -14.0709 
  11   2.0000      -0.344305        -9.3690 
  12   0.0000       0.133586         3.6351 
  13   0.0000       0.176141         4.7930 
  14   0.0000       0.179588         4.8868 
  15   0.0000       0.194224         5.2851 
  16   0.0000       0.224704         6.1145 
  17   0.0000       0.343400         9.3444 
  18   0.0000       0.356372         9.6974 
  19   0.0000       0.444865        12.1054 
  20   0.0000       0.446791        12.1578 
  21   0.0000       0.495809        13.4917 
  22   0.0000       0.532694        14.4953 
  23   0.0000       0.549399        14.9499 
  24   0.0000       0.562624        15.3098 
  25   0.0000       0.600656        16.3447 
  26   0.0000       0.626746        17.0546 
  27   0.0000       0.650887        17.7115 
  28   0.0000       0.690469        18.7886 
  29   0.0000       0.702479        19.1154 
  30   0.0000       0.744714        20.2647 
  31   0.0000       0.791220        21.5302 
  32   0.0000       0.818842        22.2818 
  33   0.0000       0.819973        22.3126 
  34   0.0000       0.835672        22.7398 
  35   0.0000       0.920368        25.0445 
  36   0.0000       0.957981        26.0680 
  37   0.0000       0.987962        26.8838 
  38   0.0000       1.034116        28.1397 
  39   0.0000       1.089489        29.6465 
  40   0.0000       1.100636        29.9498 
  41   0.0000       1.198135        32.6029 
  42   0.0000       1.213224        33.0135 
  43   0.0000       1.230830        33.4926 
  44   0.0000       1.303723        35.4761 
  45   0.0000       1.328121        36.1400 
  46   0.0000       1.374888        37.4126 
  47   0.0000       1.396223        37.9932 
  48   0.0000       1.511821        41.1387 
  49   0.0000       1.533950        41.7409 
  50   0.0000       1.543908        42.0119 
  51   0.0000       1.546640        42.0862 
  52   0.0000       1.622920        44.1619 
  53   0.0000       1.687764        45.9264 
  54   0.0000       1.736064        47.2407 
  55   0.0000       1.824659        49.6515 
  56   0.0000       2.036439        55.4143 
  57   0.0000       2.087796        56.8118 
  58   0.0000       2.143410        58.3252 
  59   0.0000       2.237464        60.8845 
  60   0.0000       2.312390        62.9233 
  61   0.0000       2.377548        64.6964 
  62   0.0000       2.404255        65.4231 
  63   0.0000       2.445532        66.5463 
  64   0.0000       2.563133        69.7464 
  65   0.0000       2.603861        70.8547 
  66   0.0000       2.670947        72.6802 
  67   0.0000       2.727707        74.2247 
  68   0.0000       2.776582        75.5546 
  69   0.0000       2.850448        77.5646 
  70   0.0000       2.923682        79.5574 
  71   0.0000       2.994902        81.4954 
  72   0.0000       3.070511        83.5529 
  73   0.0000       3.115410        84.7746 
  74   0.0000       3.135418        85.3191 
  75   0.0000       3.148220        85.6674 
  76   0.0000       3.206415        87.2510 
  77   0.0000       3.220817        87.6429 
  78   0.0000       3.228459        87.8508 
  79   0.0000       3.264271        88.8253 
  80   0.0000       3.279443        89.2382 
  81   0.0000       3.396154        92.4141 
  82   0.0000       3.420710        93.0823 
  83   0.0000       3.431220        93.3682 
  84   0.0000       3.490288        94.9756 
  85   0.0000       3.509222        95.4908 
  86   0.0000       3.550972        96.6269 
  87   0.0000       3.554001        96.7093 
  88   0.0000       3.592950        97.7691 
  89   0.0000       3.629712        98.7695 
  90   0.0000       3.654640        99.4478 
  91   0.0000       3.726330       101.3986 
  92   0.0000       3.787617       103.0663 
  93   0.0000       3.846054       104.6564 
  94   0.0000       3.887044       105.7718 
  95   0.0000       3.916097       106.5624 
  96   0.0000       3.952450       107.5516 
  97   0.0000       3.986233       108.4709 
  98   0.0000       4.022023       109.4448 
  99   0.0000       4.102199       111.6265 
 100   0.0000       4.134430       112.5036 
 101   0.0000       4.148514       112.8868 
 102   0.0000       4.218986       114.8045 
 103   0.0000       4.237804       115.3165 
 104   0.0000       4.269409       116.1765 
 105   0.0000       4.322854       117.6308 
 106   0.0000       4.354524       118.4926 
 107   0.0000       4.395774       119.6151 
 108   0.0000       4.424333       120.3922 
 109   0.0000       4.452459       121.1576 
 110   0.0000       4.458502       121.3220 
 111   0.0000       4.630435       126.0005 
 112   0.0000       4.631934       126.0413 
 113   0.0000       4.812714       130.9606 
 114   0.0000       4.882527       132.8603 
 115   0.0000       4.922543       133.9492 
 116   0.0000       4.997062       135.9770 
 117   0.0000       5.026394       136.7751 
 118   0.0000       5.044510       137.2681 
 119   0.0000       5.232852       142.3931 
 120   0.0000       5.287138       143.8703 
 121   0.0000       5.300631       144.2375 
 122   0.0000       5.337981       145.2538 
 123   0.0000       5.400946       146.9672 
 124   0.0000       5.461303       148.6096 
 125   0.0000       5.529116       150.4549 
 126   0.0000       5.703495       155.2000 
 127   0.0000       5.745021       156.3300 
 128   0.0000       5.990344       163.0056 
 129   0.0000       6.090103       165.7201 
 130   0.0000       6.243370       169.8907 
 131   0.0000       6.308695       171.6683 
 132   0.0000       6.313923       171.8106 
 133   0.0000       6.552548       178.3039 
 134   0.0000       6.938216       188.7985 
 135   0.0000       6.953535       189.2153 
 136   0.0000       7.073743       192.4863 
 137   0.0000       7.233006       196.8201 
 138   0.0000       7.258774       197.5213 
 139   0.0000       7.271535       197.8685 
 140   0.0000       7.563886       205.8238 
 141   0.0000       7.751282       210.9231 
 142   0.0000       7.910171       215.2467 
 143   0.0000      11.152775       303.4824 
 144   0.0000      12.647495       344.1558 
 145   0.0000      14.628320       398.0568 

                    ********************************
                    * MULLIKEN POPULATION ANALYSIS *
                    ********************************

-----------------------
MULLIKEN ATOMIC CHARGES
-----------------------
   0 C :   -0.386056
   1 C :    0.084713
   2 O :   -0.333987
   3 H :    0.229843
   4 H :    0.143679
   5 H :    0.144818
   6 H :    0.116990
Sum of atomic charges:    0.0000000

--------------------------------
MULLIKEN REDUCED ORBITAL CHARGES
--------------------------------
  0 C s       :     3.317814  s :     3.317814
      pz      :     1.082721  p :     2.995893
      px      :     0.915733
      py      :     0.997440
      dz2     :     0.007055  d :     0.065450
      dxz     :     0.014679
      dyz     :     0.005870
      dx2y2   :     0.018903
      dxy     :     0.018942
      f0      :     0.001117  f :     0.006900
      f+1     :     0.000682
      f-1     :     0.000669
      f+2     :     0.000365
      f-2     :     0.000636
      f+3     :     0.001185
      f-3     :     0.002245
  1 C s       :     3.187162  s :     3.187162
      pz      :     0.914060  p :     2.556118
      px      :     0.753264
      py      :     0.888795
      dz2     :     0.008809  d :     0.157068
      dxz     :     0.052156
      dyz     :     0.005768
      dx2y2   :     0.051008
      dxy     :     0.039328
      f0      :     0.002341  f :     0.014939
      f+1     :     0.001264
      f-1     :     0.000964
      f+2     :     0.000762
      f-2     :     0.002518
      f+3     :     0.003729
      f-3     :     0.003361
  2 O s       :     3.725696  s :     3.725696
      pz      :     1.836739  p :     4.577857
      px      :     1.188079
      py      :     1.553039
      dz2     :     0.004159  d :     0.028809
      dxz     :     0.002840
      dyz     :     0.002900
      dx2y2   :     0.002816
      dxy     :     0.016094
      f0      :     0.000200  f :     0.001625
      f+1     :     0.000435
      f-1     :     0.000210
      f+2     :     0.000047
      f-2     :     0.000079
      f+3     :     0.000181
      f-3     :     0.000474
  3 H s       :     0.679344  s :     0.679344
      pz      :     0.035908  p :     0.083313
      px      :     0.026142
      py      :     0.021263
      dz2     :     0.000524  d :     0.007500
      dxz     :     0.002026
      dyz     :     0.001206
      dx2y2   :     0.001825
      dxy     :     0.001919
  4 H s       :     0.828724  s :     0.828724
      pz      :     0.011813  p :     0.025504
      px      :     0.005226
      py      :     0.008465
      dz2     :     0.000165  d :     0.002093
      dxz     :     0.000565
      dyz     :     0.000122
      dx2y2   :     0.000625
      dxy     :     0.000617
  5 H s       :     0.828431  s :     0.828431
      pz      :     0.011045  p :     0.024501
      px      :     0.006184
      py      :     0.007272
      dz2     :     0.000170  d :     0.002250
      dxz     :     0.000028
      dyz     :     0.000738
      dx2y2   :     0.000579
      dxy     :     0.000736
  6 H s       :     0.854833  s :     0.854833
      pz      :     0.010244  p :     0.026067
      px      :     0.005544
      py      :     0.010278
      dz2     :     0.000207  d :     0.002110
      dxz     :     0.000061
      dyz     :     0.000447
      dx2y2   :     0.000705
      dxy     :     0.000691


                     *******************************
                     * LOEWDIN POPULATION ANALYSIS *
                     *******************************

----------------------
LOEWDIN ATOMIC CHARGES
----------------------
   0 C :    0.037848
   1 C :   -0.111432
   2 O :    0.373636
   3 H :   -0.171879
   4 H :   -0.042996
   5 H :   -0.042431
   6 H :   -0.042746

-------------------------------
LOEWDIN REDUCED ORBITAL CHARGES
-------------------------------
  0 C s       :     2.728130  s :     2.728130
      pz      :     0.939096  p :     2.947884
      px      :     1.017229
      py      :     0.991559
      dz2     :     0.019304  d :     0.259595
      dxz     :     0.034261
      dyz     :     0.010095
      dx2y2   :     0.100022
      dxy     :     0.095914
      f0      :     0.000906  f :     0.026542
      f+1     :     0.003198
      f-1     :     0.002346
      f+2     :     0.001850
      f-2     :     0.003271
      f+3     :     0.007225
      f-3     :     0.007748
  1 C s       :     2.737009  s :     2.737009
      pz      :     0.840262  p :     2.709428
      px      :     0.911594
      py      :     0.957572
      dz2     :     0.036517  d :     0.584883
      dxz     :     0.153553
      dyz     :     0.022669
      dx2y2   :     0.196511
      dxy     :     0.175634
      f0      :     0.006077  f :     0.080113
      f+1     :     0.006823
      f-1     :     0.004568
      f+2     :     0.004024
      f-2     :     0.016145
      f+3     :     0.026237
      f-3     :     0.016238
  2 O s       :     3.185389  s :     3.185389
      pz      :     1.640799  p :     4.362765
      px      :     1.202697
      py      :     1.519270
      dz2     :     0.008129  d :     0.073539
      dxz     :     0.009806
      dyz     :     0.003404
      dx2y2   :     0.016922
      dxy     :     0.035278
      f0      :     0.000504  f :     0.004671
      f+1     :     0.000574
      f-1     :     0.000181
      f+2     :     0.000184
      f-2     :     0.000506
      f+3     :     0.001370
      f-3     :     0.001352
  3 H s       :     0.713269  s :     0.713269
      pz      :     0.110978  p :     0.358082
      px      :     0.115385
      py      :     0.131719
      dz2     :     0.008008  d :     0.100528
      dxz     :     0.023264
      dyz     :     0.014117
      dx2y2   :     0.028372
      dxy     :     0.026767
  4 H s       :     0.853270  s :     0.853270
      pz      :     0.051173  p :     0.162136
      px      :     0.061365
      py      :     0.049598
      dz2     :     0.002358  d :     0.027590
      dxz     :     0.006774
      dyz     :     0.002242
      dx2y2   :     0.008515
      dxy     :     0.007703
  5 H s       :     0.855649  s :     0.855649
      pz      :     0.047570  p :     0.159412
      px      :     0.032974
      py      :     0.078868
      dz2     :     0.002376  d :     0.027370
      dxz     :     0.000168
      dyz     :     0.008564
      dx2y2   :     0.007523
      dxy     :     0.008740
  6 H s       :     0.867614  s :     0.867614
      pz      :     0.039917  p :     0.148937
      px      :     0.026345
      py      :     0.082675
      dz2     :     0.002558  d :     0.026195
      dxz     :     0.000263
      dyz     :     0.007562
      dx2y2   :     0.008293
      dxy     :     0.007519


                      *****************************
                      * MAYER POPULATION ANALYSIS *
                      *****************************

  NA   - Mulliken gross atomic population
  ZA   - Total nuclear charge
  QA   - Mulliken gross atomic charge
  VA   - Mayer's total valence
  BVA  - Mayer's bonded valence
  FA   - Mayer's free valence

  ATOM       NA         ZA         QA         VA         BVA        FA
  0 C      6.3861     6.0000    -0.3861     3.7778     3.7778     0.0000
  1 C      5.9153     6.0000     0.0847     3.9250     3.9250     0.0000
  2 O      8.3340     8.0000    -0.3340     2.0957     2.0957     0.0000
  3 H      0.7702     1.0000     0.2298     1.0155     1.0155     0.0000
  4 H      0.8563     1.0000     0.1437     0.9753     0.9753     0.0000
  5 H      0.8552     1.0000     0.1448     0.9828     0.9828     0.0000
  6 H      0.8830     1.0000     0.1170     0.9768     0.9768     0.0000

  Mayer bond orders larger than 0.1
B(  0-C ,  1-C ) :   1.8436 B(  0-C ,  4-H ) :   0.9697 B(  0-C ,  5-H ) :   0.9586 
B(  1-C ,  2-O ) :   1.0898 B(  1-C ,  6-H ) :   0.9714 B(  2-O ,  3-H ) :   0.9913 


-------
TIMINGS
-------

Total SCF time: 0 days 0 hours 0 min 2 sec 

Total time                  ....       2.761 sec
Sum of individual times     ....       2.601 sec  ( 94.2%)

Fock matrix formation       ....       2.388 sec  ( 86.5%)
Diagonalization             ....       0.014 sec  (  0.5%)
Density matrix formation    ....       0.003 sec  (  0.1%)
Population analysis         ....       0.007 sec  (  0.2%)
Initial guess               ....       0.140 sec  (  5.1%)
Orbital Transformation      ....       0.000 sec  (  0.0%)
Orbital Orthonormalization  ....       0.000 sec  (  0.0%)
DIIS solution               ....       0.000 sec  (  0.0%)
SOSCF solution              ....       0.015 sec  (  0.5%)


           ************************************************************
           *        Program running with 8 parallel MPI-processes     *
           *              working on a common directory               *
           ************************************************************


------------------------------------------------------------------------------- 
                              ORCA-MATRIX DRIVEN CI                            
------------------------------------------------------------------------------- 


Wavefunction type
-----------------
Correlation treatment                      ...      CCSD     
Single excitations                         ... ON
Orbital optimization                       ... OFF
Calculation of Z vector                    ... OFF
Calculation of Brueckner orbitals          ... OFF
Perturbative triple excitations            ... ON
Calculation of F12 correction              ... OFF
Frozen core treatment                      ... chemical core (6 el)
Reference Wavefunction                     ... RHF
  Internal Orbitals:     3 ...   11 (  9 MO's/ 18 electrons)
  Virtual  Orbitals:    12 ...  145 (134 MO's              )
Number of AO's                             ...    146
Number of electrons                        ...     24
Number of correlated electrons             ...     18

Algorithmic settings
--------------------
Integral transformation                    ... All integrals via the RI transformation
K(C) Formation                             ... RI-DLPNO
   PNO-Integral Storage                    ... ON DISK
   PNO occupation number cut-off           ... 1.000e-07
   Singles PNO occupation number cut-off   ... 3.000e-09
   PNO Mulliken prescreening cut-off       ... 1.000e-03
   Domain cut-off (Mulliken population)    ... 1.000e-03
   PNO Normalization                       ...    1
Maximum number of iterations               ...        50
Convergence tolerance (max. residuum)      ... 1.000e-05
Level shift for amplitude update           ... 2.000e-01
Maximum number of DIIS vectors             ...         7
DIIS turned on at iteration                ...         0
Damping before turning on DIIS             ...     0.500
Damping after turning on DIIS              ...     0.000
Pair specific amplitude update             ... OFF
Natural orbital iterations                 ... OFF
Perturbative natural orbital generation    ... OFF
Printlevel                                 ... 2

Singles Fock matrix elements calculated using PNOs.

Memory handling:
----------------
Maximum memory for working arrays          ...   8000 MB
Data storage in matrix containers          ... UNCOMPRESSED
Data type for integral storage             ... DOUBLE
In-Core Storage of quantities:
   Amplitudes+Sigma Vector      ... NO
   J+K operators                ... NO
   DIIS vectors                 ... NO
   3-external integrals         ... NO
   4-external integrals         ... NO

Localization treatment:
-----------------------
Localization option                        ...    6
Localization threshhold                    ... -1.0e+00
Using relative localization threshhold     ... 1.0e-08
Neglect threshold for strong pairs         ... 1.000e-05 Eh
Prescreening threshold for very weak pairs ... 1.000e-07 Eh

Initializing the integral package          ... done
Localizing the valence orbitals
------------------------------------------------------------------------------
                           ORCA ORBITAL LOCALIZATION
------------------------------------------------------------------------------

Input orbitals are from                  ... vinyl_alcohol_s_trans.proc0.gbw
Output orbitals are to                   ... vinyl_alcohol_s_trans.proc0.loc
Max. number of iterations                ... 128
Localizations seeded randomly            ... off
Convergence tolerance                    ... 1.000e-06
Using relative localization threshhold   ... 1.000e-08
Treshold for strong local MOs            ... 9.500e-01
Treshold for bond MOs                    ... 8.500e-01
Operator                                 ... 0
Orbital range for localization           ... 3 to 11
Localization criterion                   ... FOSTER-BOYS (AUGMENTED HESSIAN)
Doing the dipole integrals     ... o.k.
Initial value of the localization sum :    32.726772
ITERATION   0 : L=   48.5705928566 DL=  1.58e+01 (AVERGE_DL)=    0.6634049562 
ITERATION   1 : L=   50.8497077223 DL=  2.28e+00 (AVERGE_DL)=    0.2516122936 
ITERATION   2 : L=   50.8740481526 DL=  2.43e-02 (AVERGE_DL)=    0.0260023665 
ITERATION   3 : L=   50.8754443241 DL=  1.40e-03 (AVERGE_DL)=    0.0062275632 
ITERATION   4 : L=   50.8756893306 DL=  2.45e-04 (AVERGE_DL)=    0.0026087803 
ITERATION   5 : L=   50.8757511149 DL=  6.18e-05 (AVERGE_DL)=    0.0013100498 
ITERATION   6 : L=   50.8757658216 DL=  1.47e-05 (AVERGE_DL)=    0.0006391561 
ITERATION   7 : L=   50.8757693048 DL=  3.48e-06 (AVERGE_DL)=    0.0003110556 
ITERATION   8 : L=   50.8757701226 DL=  8.18e-07 (AVERGE_DL)=    0.0001507185 
LOCALIZATION SUM CONVERGED

------------------------------------------------------
AUGMENTED HESSIAN OPTIMIZATION OF FOSTER-BOYS ORBITALS
------------------------------------------------------

Spin operator:           0
Orbital window:          3 to 11
Number of iterations:    128
Gradient tolerance:      1.000e-06
Number of pairs:         36
Davidson threshold:      2000
Diagonalization method:  LAPACK
Iter:    0   L: 50.8757701226   Grad. norm: 7.931104e-04
   *** Likely close to a maximum now. ***
       Augmented Hessian eigenvalues:  5.02e-07 -7.47e-01 -3.07e+00 -4.80e+00 ... 
Iter:    1   L: 50.8757703737   Grad. norm: 6.401504e-07
LOCALIZATION HAS CONVERGED.

Eigenvalues of the Hessian:
  0 -7.473e-01
  1 -3.073e+00
  2 -4.796e+00
  3 -4.952e+00
  4 -5.551e+00
  5 -7.013e+00
  6 -1.008e+01
  7 -1.803e+01
  8 -1.805e+01
  9 -2.108e+01
    ...


------------------------------------------------------------------------------- 
                    LOCALIZED MOLECULAR ORBITAL COMPOSITIONS                   
------------------------------------------------------------------------------- 

The Mulliken populations for each LMO on each atom are computed
The LMO`s will be ordered according to atom index and type
  (A) Strongly localized MO`s have populations of >=0.950 on one atom
  (B) Two center bond orbitals have populations of >=0.850 on two atoms
  (C) Other MO`s are considered to be `delocalized`

FOUND  -   2 strongly local MO`s
       -   7 two center bond MO`s
       -   0 significantly delocalized MO`s

Rather strongly localized orbitals:
MO   4:   2O  -   0.965932
MO   3:   2O  -   0.965930
Bond-like localized orbitals:
MO  11:   6H  -   0.457101  and   1C  -   0.576099
MO  10:   5H  -   0.438934  and   0C  -   0.579861
MO   9:   4H  -   0.442270  and   0C  -   0.582252
MO   8:   3H  -   0.383902  and   2O  -   0.621548
MO   7:   2O  -   0.649516  and   1C  -   0.364140
MO   6:   1C  -   0.491727  and   0C  -   0.528992
MO   5:   1C  -   0.491756  and   0C  -   0.528960
Localized MO's were stored in: vinyl_alcohol_s_trans.proc0.loc

Localizing the core orbitals
------------------------------------------------------------------------------
                           ORCA ORBITAL LOCALIZATION
------------------------------------------------------------------------------

Input orbitals are from                  ... vinyl_alcohol_s_trans.proc0.loc
Output orbitals are to                   ... vinyl_alcohol_s_trans.proc0.loc
Max. number of iterations                ... 128
Localizations seeded randomly            ... off
Convergence tolerance                    ... 1.000e-06
Using relative localization threshhold   ... 1.000e-08
Treshold for strong local MOs            ... 9.500e-01
Treshold for bond MOs                    ... 8.500e-01
Operator                                 ... 0
Orbital range for localization           ... 0 to 2
Localization criterion                   ... FOSTER-BOYS (AUGMENTED HESSIAN)
Doing the dipole integrals     ... o.k.
Initial value of the localization sum :    11.053797
ITERATION   0 : L=   11.0538037403 DL=  6.31e-06 (AVERGE_DL)=    0.0014502091 
ITERATION   1 : L=   11.0538037403 DL=  0.00e+00 (AVERGE_DL)=    0.0000000000 
LOCALIZATION SUM CONVERGED

------------------------------------------------------
AUGMENTED HESSIAN OPTIMIZATION OF FOSTER-BOYS ORBITALS
------------------------------------------------------

Spin operator:           0
Orbital window:          0 to 2
Number of iterations:    128
Gradient tolerance:      1.000e-06
Number of pairs:         3
Davidson threshold:      2000
Diagonalization method:  LAPACK
Iter:    0   L: 11.0538037403   Grad. norm: 1.933169e-06
   *** Likely close to a maximum now. ***
       Augmented Hessian eigenvalues:  1.47e-13 -2.54e+01 -2.69e+01 -8.01e+01
Iter:    1   L: 11.0538037403   Grad. norm: 7.296416e-20
LOCALIZATION HAS CONVERGED.

Eigenvalues of the Hessian:
  0 -2.541e+01
  1 -2.686e+01
  2 -8.008e+01


------------------------------------------------------------------------------- 
                    LOCALIZED MOLECULAR ORBITAL COMPOSITIONS                   
------------------------------------------------------------------------------- 

The Mulliken populations for each LMO on each atom are computed
The LMO`s will be ordered according to atom index and type
  (A) Strongly localized MO`s have populations of >=0.950 on one atom
  (B) Two center bond orbitals have populations of >=0.850 on two atoms
  (C) Other MO`s are considered to be `delocalized`

FOUND  -   3 strongly local MO`s
       -   0 two center bond MO`s
       -   0 significantly delocalized MO`s

Rather strongly localized orbitals:
MO   2:   2O  -   0.999644
MO   1:   1C  -   1.000527
MO   0:   0C  -   1.000675
Localized MO's were stored in: vinyl_alcohol_s_trans.proc0.loc

Warning: internal orbitals are localized - no re-canonicalization of internal orbitals

--------------------------
CLOSED-SHELL FOCK OPERATOR
--------------------------

RI-JK section for the Fock operator:
  RHF full Fock operator         ... done
  RHF frozen core Fock operator  ... done
Time needed for Fock operator              ...            0.501 sec
Reference energy                           ...   -152.952389841

--------------
DLPNO SETTINGS (2015 fully linear scaling implementation)
--------------

TCutMKN:           1.000e-03
TCutPAO:           1.000e-03
TCutPNO:           1.000e-07
TCutPNOSingles:    3.000e-09
TCutEN:            9.700e-01
TCutPAOExt:        1.000e-01
TCutPairs:         1.000e-05
TCutPre:           1.000e-07
TCutOSV:           1.000e-06
TCutDOij:          1.000e-05
TCutDO:            5.000e-03
TCutC:             1.000e-04
TCutCPAO:          1.000e-03
TCutCMO:           1.000e-03
TScaleDOMP2PreScr: 2.000e+00
TScaleMKNMP2PreScr:1.000e+01
TScalePNOMP2PreScr:1.000e+00
PAO overlap thresh 1.000e-08
Using PNOs for Singles Fock computation
Use new domains
Use fully linear algorithm
TCutTNO:           1.000e-09
TCutMP2Pairs:      1.000e-06
TCutDOStrong:      2.000e-03
TCutMKNStrong:     1.000e-02
TCutMKNWeak:       1.000e-01
TCutDOWeak:        4.000e-03
NTCutTNO:          1

--------------------------
Calculating differential overlap integrals ... ok
--------------------------
ELECTRON PAIR PRESCREENING
--------------------------

Dipole-based pair screening          .... used

   TCutDOij = 1.000000e-05
   TCutPre  = 1.000000e-07
   .... Finished loop over pairs
Total time spent in the prescreening                  ...     0.000 sec
sum of pair energies estimated for screened out pairs ...       0.000000000000 Eh
Thresholds for map construction and integral transformation for crude MP2:
   TCutMKN                    ...     1.0e-02
   TCutDO                     ...     1.0e-02
   TCutPairs                  ...     1.0e-05
   TCutPNO_CrudeMP2           ...     1.0e-07
   TCutPNOSingles_CrudeMP2    ...     3.0e-09
--------------------------------
LOCAL RI TRANSFORMATION (IAVPAO)
--------------------------------

Orbital window:       3 to 11
Number of PAOs:     146
Basis functions:    146 (54 shells)
Aux. functions:     363 (109 shells)

Processing maps (0.0 sec)
Average map sizes:
   Aux shells -> MOs               9.0
   Aux shells -> PAOs            146.0
   MOs        -> AO shells        54.0
   PAOs       -> AO shells        54.0

Calculating integrals (0.3 sec, 3.643 MB)
Sorting integrals (0.0 sec, 3.639 MB)
Total time for the integral transformation: 0.3 sec
--------------------------------
INITIAL GUESS AND PNO GENERATION
--------------------------------

PNO truncation parameters                   .... 
    PAOOverlapThresh   =        1.000e-08

    TCutPairs          =        1.000e-05
    TCutPNO            =        1.000e-07
    TCutPNOSingles     =        3.000e-09
    TCutMP2Pairs       =        1.000e-06
    TCutMKN            =        1.000e-02
    TCutDO             =        1.000e-02

Pair selection                          .... not used
Type of local MP2 treatment                 .... semi-local MP2
Strategy for PNO selection                  .... occupation number selection
Pair density normalization                  .... MP2 norm
Spin component scaling                      .... not used

   .... Finished loop over pairs
Making pair pair interaction lists          ... done

                       ===========================
                         45 OF   45 PAIRS ARE KEPT CCSD PAIRS
                          0 OF   45 PAIRS ARE KEPT MP2 PAIRS FOR (T)
                          0 OF   45 PAIRS ARE SKIPPED
                       ===========================

Total time spent in the initial guess                 ...     0.096 sec
SL-MP2 correlation energy (all non-screened pairs)    ...      -0.550269922482 Eh

Initial PNO correlation energy                        ...      -0.549987208251 Eh
sum of pair energies prescreened and skipped MP2 pairs...       0.000000000000 Eh
sum of pair energies of crude MP2 skipped pairs only  ...       0.000000000000 Eh
sum of MP2 pair energies for pairs that were not kept ...       0.000000000000 Eh
sum of PNO error estimates for the kept pairs         ...      -0.000282714231 Eh
                                                          --------------------
sum of all corrections                                         -0.000282714231
Initial total correlation energy                               -0.550269922482
Thresholds for map construction and integral transformation for fine MP2 and CCSD(T) calculation:
   TCutMKN   ...     1.0e-03
   TCutDO    ...     5.0e-03
   TCutPairs ...     1.0e-05
   TCutCMO   ...     1.0e-03
   TCutCPAO  ...     1.0e-03

Thresholds for map construction and integral transformation for strong Triples:
   TCutMKN   ...     1.0e-02
   TCutDO    ...     1.0e-02
   TCutCMO   ...     1.0e-03
   TCutCPAO  ...     1.0e-03

Thresholds for map construction and integral transformation for weak Triples:
   TCutMKN   ...     1.0e-01
   TCutDO    ...     2.0e-02
   TCutCMO   ...     1.0e-03
   TCutCPAO  ...     1.0e-03

--------------------------------
LOCAL RI TRANSFORMATION (IAVPAO)
--------------------------------

Orbital window:       3 to 11
Number of PAOs:     146
Basis functions:    146 (54 shells)
Aux. functions:     363 (109 shells)

Processing maps (0.0 sec)
Average map sizes:
   Aux shells -> MOs               9.0
   Aux shells -> PAOs            146.0
   MOs        -> AO shells        54.0
   PAOs       -> AO shells        54.0

Calculating integrals (0.3 sec, 3.643 MB)
Sorting integrals (0.0 sec, 3.639 MB)
Total time for the integral transformation: 0.3 sec
--------------------------------
INITIAL GUESS AND PNO GENERATION
--------------------------------

PNO truncation parameters                   .... 
    ScaleTCutPNO       =        1.000e-02
    PAOOverlapThresh   =        1.000e-08

    TCutPairs          =        1.000e-05
    TCutPNO            =        1.000e-07
    TCutPNOSingles     =        3.000e-09
    TCutMP2Pairs       =        1.000e-06
    TCutMKN            =        1.000e-03
    TCutDO             =        5.000e-03

Pair selection                          .... not used
Type of local MP2 treatment                 .... full local PMP2
Strategy for PNO selection                  .... occupation number selection
Pair density normalization                  .... MP2 norm
Spin component scaling                      .... not used

PASS-1: Formation of initial guess LMP2 amplitudes
Initial amplitudes guess done. Entering LMP2 iteration loop:
   Max. no of iterations          ...  50
   Energy convergence tolerance   ...    1.0e-07
   Residual convergence tolerance ...    5.0e-07
   Fock matrix cutoff             ...    1.0e-05 Eh
   DIIS convergence acceleration parameters:
        Max # vectors in DIIS     ... 7
        Start iteration of DIIS   ... 0
        Levelshift                ... 2.000e-01
        Damping factor 1          ... 5.000e-01
        Damping factor 2          ... 1.000e+00
   L-MP2 PNO cut-off              ...   1.0e-09
   L-MP2 PNO cut-off (core)       ...   1.0e-11
                           *** Turning on DIIS ***
LMP2-Iter=   0:  ELMP2= -0.562197179463  DE=   1.2e-02 RMAX=   1.6e-02
LMP2-Iter=   1:  ELMP2= -0.568705081259  DE=   6.5e-03 RMAX=   6.6e-03
LMP2-Iter=   2:  ELMP2= -0.569976326339  DE=   1.3e-03 RMAX=   2.6e-03
LMP2-Iter=   3:  ELMP2= -0.570159303769  DE=   1.8e-04 RMAX=   8.1e-04
LMP2-Iter=   4:  ELMP2= -0.570157765324  DE=   1.5e-06 RMAX=   2.1e-04
LMP2-Iter=   5:  ELMP2= -0.570153313412  DE=   4.5e-06 RMAX=   3.4e-05
LMP2-Iter=   6:  ELMP2= -0.570153032007  DE=   2.8e-07 RMAX=   5.2e-06
LMP2-Iter=   7:  ELMP2= -0.570153110379  DE=   7.8e-08 RMAX=   8.2e-07
LMP2-Iter=   8:  ELMP2= -0.570153143490  DE=   3.3e-08 RMAX=   1.8e-07
LMP2-Iter=   9:  ELMP2= -0.570153144824  DE=   1.3e-09 RMAX=   3.6e-08 => CONVERGED
PASS-2: Formation of Pair natural orbitals
   .... Finished loop over pairs

 PNO Occupation Number Statistics: 
  | Av. % of trace(Dij) retained        ...  99.903969504849
  | sigma^2 in % of trace(Dij) retained ...   1.93e-02
  | Av. % of trace(Di) retained         ...  99.999807128505
  | sigma^2 in % of trace(Di) retained  ...   3.93e-09
 Distributions of % trace(Dij) recovered:
  |       >= 99.9  ...    32 ( 71.1 % of all pairs)
  |   [99.0, 99.9) ...    13 ( 28.9 % of all pairs)
 Distributions of % trace(Di) recovered :
  |       >= 99.9  ...     9 (100.0 % of all I-pairs )

Making pair pair interaction lists          ... done

                       ===========================
                         45 OF   45 PAIRS ARE KEPT
                       ===========================

Total time spent in the initial guess                 ...     1.034 sec
L-MP2 correlation energy (all non-screened pairs)     ...      -0.570153144824 Eh
L-MP2 PNO error correction                            ...      -0.000002768404 Eh
                                                          --------------------
Initial total L-MP2 energy (non-screened pairs)       ...      -0.570155913229 Eh

Initial PNO correlation energy                        ...      -0.569883674704 Eh
sum of pair energies estimated for screened out pairs ...       0.000000000000 Eh
sum of MP2 pair energies for pairs that were not kept ...       0.000000000000 Eh
sum of PNO error estimates for the kept pairs         ...      -0.000272238525 Eh
                                                          --------------------
sum of all corrections                                         -0.000272238525
Initial total correlation energy                               -0.570155913229
Thresholds for map construction and integral transformation for fine MP2 and CCSD(T) calculation:
   TCutMKN   ...     1.0e-03
   TCutDO    ...     5.0e-03
   TCutPairs ...     1.0e-05
   TCutCMO   ...     1.0e-03
   TCutCPAO  ...     1.0e-03

Time for aux screen maps:            0.001
Time for maps after fine MP2:            0.002
-----------------------------
LOCAL RI TRANSFORMATION (IJV)
-----------------------------

Orbital window:       3 to 11
Basis functions:    146 (54 shells)
Aux. functions:     363 (109 shells)

Processing maps (0.0 sec)
Average map sizes:
   Aux shells -> MOs(i)            9.0
   Aux shells -> MOs(j)            9.0
   MOs        -> AO shells        54.0

Calculating integrals (0.3 sec, 0.228 MB)
Sorting integrals (0.0 sec, 0.224 MB)
Total time for the integral transformation: 0.3 sec
--------------------------------
LOCAL RI TRANSFORMATION (VABPAO)
--------------------------------

Number of PAOs:     146
Basis functions:    146 (54 shells)
Aux. functions:     363 (109 shells)

Processing maps (0.0 sec)
Average map sizes:
   Aux shells -> PAOs            146.0
   PAOs       -> AO shells        54.0

Calculating integrals (0.4 sec, 110.920 MB)
Finished


-------------------------------------
Pair Pair Term precalculation with     
RI-(ij|mn) and (im|jn) transformation  
ON THE FLY                             
-------------------------------------

   IBatch   1 (of   1)              ... done (    2.727 sec)
Total EXT                           ...           2.727 sec

---------------------
RI-PNO TRANSFORMATION
---------------------

Total Number of PNOs                   ...  2389
Average number of PNOs per pair        ...    53
Maximal number of PNOs per pair        ...    71
   #pairs with  1 -  5 PNOs   :    0
   #pairs with  6 - 10 PNOs   :    0
   #pairs with 11 - 15 PNOs   :    0
   #pairs with 16 - 20 PNOs   :    0
   #pairs with 21 - 25 PNOs   :    0
   #pairs with 26 - 30 PNOs   :    1
   #pairs with 31 - 35 PNOs   :    1
   #pairs with 36 - 40 PNOs   :    3
   #pairs with 41 - 45 PNOs   :    2
   #pairs with 46 - 50 PNOs   :   11
   #pairs with 51 - 55 PNOs   :    8
   #pairs with 56 - 60 PNOs   :    8
   #pairs with 61 - 65 PNOs   :   10
   #pairs with 71 - 75 PNOs   :    1

Generation of (ij|ab)[P] integrals            ... on
Generation of (ia|bc)[P],(ja|bc)[P] integrals ... on
Storage of 3 and 4 external integrals         ... on
Generation of ALL (ka|bc)[P] integrals        ... on
Keep RI integrals in memory                   ... off

Ibatch:  1 (of  1)
Starting 2-4 index PNO integral generation ... done

Timings:
Total PNO integral transformation time     ...          2.637 sec
Size of the 3-external file                ...        56 MB
Size of the 4-external file                ...       411 MB
Size of the IKJL file                      ...         0 MB
Size of the all 3-external file            ...       255 MB
Size of the 1-external file                ...         0 MB

Making pair/pair overlap matrices          ... done (    0.087 sec)
Size of the pair overlap file              ... 36 MB
Redoing the guess amplitudes               ... done (    0.001 sec)

-------------------------
FINAL STARTUP INFORMATION
-------------------------

E(0)                                       ...   -152.952389841
E(L-MP2)                                   ...     -0.570155913
E(L-MP2) including corrections             ...     -0.570155913
Initial E(tot)                             ...   -153.522545755
<T|T>                                      ...      0.146485602
Number of pairs included                   ... 45
Total number of pairs                      ... 45

------------------------------------------------
                  RHF COUPLED CLUSTER ITERATIONS
------------------------------------------------

Number of PNO amplitudes to be optimized   ...       130517
Number of non-PNO amplitudes               ...       808020
Untruncated number of regular amplitudes   ...       808020

Iter       E(tot)           E(Corr)          Delta-E          Residual     Time
  0   -153.502664113     -0.550002034      0.020153880      0.017186911    3.29
                           *** Turning on DIIS ***
  1   -153.523293606     -0.570631526     -0.020629493      0.011302282    3.30
  2   -153.538286458     -0.585624378     -0.014992852      0.006889086    3.27
  3   -153.541870197     -0.589208117     -0.003583739      0.003709295    3.30
  4   -153.543059527     -0.590397447     -0.001189330      0.001898150    3.30
  5   -153.543454989     -0.590792909     -0.000395461      0.000733868   12.28
  6   -153.543565218     -0.590903138     -0.000110229      0.000206240    3.29
  7   -153.543582346     -0.590920266     -0.000017128      0.000054295    5.30
  8   -153.543582911     -0.590920831     -0.000000565      0.000014022    3.27
  9   -153.543581977     -0.590919897      0.000000933      0.000008395    3.30
               --- The Coupled-Cluster iterations have converged ---

----------------------
COUPLED CLUSTER ENERGY
----------------------

E(0)                                       ...   -152.952389841
E(CORR)(strong-pairs)                      ...     -0.590919897
E(CORR)(weak-pairs)                        ...     -0.000272239
E(CORR)(corrected)                         ...     -0.591192136
E(TOT)                                     ...   -153.543581977
Singles Norm <S|S>**1/2                    ...      0.050389159  
T1 diagnostic                              ...      0.011876839  

------------------
LARGEST AMPLITUDES
------------------
   5-> 12   5-> 12       0.058417
   6-> 12   6-> 12       0.058408
   6-> 12   5-> 12       0.052418
  10-> 19  10-> 19       0.031917
   9-> 19   9-> 19       0.030236
   5-> 12   5-> 19       0.028637
   5-> 19   5-> 12       0.028637
   6-> 12   6-> 19       0.028632
   6-> 19   6-> 12       0.028632
  11-> 12  11-> 12       0.025813
  10-> 13  10-> 13       0.024768
   8-> 12   8-> 12       0.024652
   9-> 12   9-> 12       0.024622
  10-> 19  10-> 13       0.024519
  10-> 13  10-> 19       0.024519
  11-> 15  11-> 15       0.023571


-------------------------------------------
DLPNO BASED TRIPLES CORRECTION
-------------------------------------------

Singles multiplier          ...  1.000000
TCutTNO                     ... 1.000e-09
TCutMP2Pairs                ... 1.000e-06
TCutDOStrong                ... 1.000e-02
TCutMKNStrong               ... 1.000e-02
TCutDOWeak                  ... 2.000e-02
TCutMKNWeak                 ... 1.000e-01

Fragment selection                          .... not used
Number of Triples that are to be computed   ...       156

 . . . . . . . . .
10% done  
20% done  
30% done  
40% done  
50% done  
60% done  
70% done  
80% done  
90% done               (      5.787 sec)
Triples timings:
Total time for T0               ...     6.018 sec
Total time for Iterative (T)    ...     0.000 sec
Total time of overall (T)       ...     6.018 sec

Triples List generation         ...     0.000 sec
TNO generation                  ...     0.229 sec
Pair density generation         ...     0.001 sec
Look up tables                  ...     0.000 sec
Generating 3-index integrals    ...     1.803 sec
  Make 4-ind.int. from 3-ind.int...     1.430 sec
  Projecting amplitudes (D + S) ...     0.211 sec
  Downprojecting integrals      ...     0.000 sec
  Energy contr. (sum over a,b,c)...     0.633 sec
Fitting ET(->0)                 ...     0.000 sec

Everything after 3-index        ...     3.984 sec

Timing details:
 TNO integrals                  ...     3.136 sec
   Reading 3-index integrals    ...     0.020 sec
   Sorting integrals            ...     0.791 sec
       Sorting integrals 1      ...     0.000 sec
       Sorting integrals 2      ...     0.097 sec
       Sorting integrals 3      ...     0.031 sec
       Sorting integrals 4      ...     0.001 sec
       Sorting integrals 5      ...     0.004 sec
       Sorting integrals 6      ...     0.658 sec
   Calculating local VM**-1/2   ...     0.014 sec
   Orthogonal. integrals        ...     0.042 sec
   Multipl. 3-index integrals   ...     2.270 sec
   All concerning IRIab (w/TNO) ...     0.674 sec

 Calculate W0/W1                ...     1.709 sec
 W 3-ext contribution           ...     0.950 sec
 W 3-int contribution           ...     0.206 sec
 Sorting W                      ...     0.521 sec

 V exchange contribution        ...     0.222 sec

 Timings for Triples without generation
     of 3-index integrals       ...     3.984 sec
       0 weak pairs             ...     3.984 sec
       1 weak pair              ...     0.000 sec
       2 weak pairs             ...     0.000 sec
       3 weak pairs             ...     0.000 sec
  Extra time for extrapolation  ...     0.000 sec

Number of Triples   (0, 1, 2, 3 weak pairs; overall):    156       0       0       0  (   156)
Number of Atoms     (0, 1, 2, 3 weak pairs; overall):    7.0     0.0     0.0     0.0  (     7)
Number of PAOs      (0, 1, 2, 3 weak pairs; overall):  146.0     0.0     0.0     0.0  (   146)
Number of AuxFcns   (0, 1, 2, 3 weak pairs; overall):  260.2     0.0     0.0     0.0  (   363)
Number of TNOs      (0, 1, 2, 3 weak pairs         ):   97.6     0.0     0.0     0.0
Aver. Number of NTNO, Atoms, PAOs, AuxFcns / Triples:    156    97.6     7.0   146.0   260.2

Triples Correction (T)                     ...     -0.023292614
Final correlation energy                   ...     -0.614484750
E(CCSD)                                    ...   -153.543581977
E(CCSD(T))                                 ...   -153.566874591


Maximum memory used throughout the entire calculation: 941.2 MB


------------------------------------------------------------------------------- 
                                     TIMINGS                                   
------------------------------------------------------------------------------- 


Total execution time                   ...       59.109 sec

Localization of occupied MO's          ...        0.398 sec (  0.7%)
Fock Matrix Formation                  ...        0.501 sec (  0.8%)
Global overlap, Fock, MKN matrices     ...        0.118 sec (  0.2%)
Differential overlap integrals         ...        0.027 sec (  0.0%)
Organizing maps                        ...        0.007 sec (  0.0%)
RI 3-index integral generations        ...        1.188 sec (  2.0%)
RI-PNO integral transformation         ...        5.539 sec (  9.4%)
Initial Guess                          ...        1.146 sec (  1.9%)
DIIS Solver                            ...        0.366 sec (  0.6%)
State Vector Update                    ...        0.009 sec (  0.0%)
Sigma-vector construction              ...       43.809 sec ( 74.1%)
  <D|H|D>(0-ext)                       ...        0.243 sec (  0.6% of sigma)
  <D|H|D>(2-ext Fock)                  ...        0.004 sec (  0.0% of sigma)
  <D|H|D>(2-ext)                       ...        0.781 sec (  1.8% of sigma)
  <D|H|D>(4-ext)                       ...        6.142 sec ( 14.0% of sigma)
  <D|H|D>(4-ext-corr)                  ...       21.815 sec ( 49.8% of sigma)
  CCSD doubles correction              ...        0.027 sec (  0.1% of sigma)
  <S|H|S>                              ...        0.119 sec (  0.3% of sigma)
  <S|H|D>(1-ext)                       ...        0.043 sec (  0.1% of sigma)
  <D|H|S>(1-ext)                       ...        0.002 sec (  0.0% of sigma)
  <S|H|D>(3-ext)                       ...        0.188 sec (  0.4% of sigma)
  Fock-dressing                        ...       13.398 sec ( 30.6% of sigma)
  Singles amplitudes                   ...        0.056 sec (  0.1% of sigma)
  (ik|jl)-dressing                     ...        0.191 sec (  0.4% of sigma)
  (ij|ab),(ia|jb)-dressing             ...        0.687 sec (  1.6% of sigma)
  Pair energies                        ...        0.003 sec (  0.0% of sigma)
Total Time for computing (T)           ...        6.025 sec ( 10.2% of ALL)


-------------------------   --------------------
FINAL SINGLE POINT ENERGY      -153.566874591484
-------------------------   --------------------


                            ***************************************
                            *     ORCA property calculations      *
                            ***************************************

                                    ---------------------
                                    Active property flags
                                    ---------------------
   (+) Dipole Moment


------------------------------------------------------------------------------
                       ORCA ELECTRIC PROPERTIES CALCULATION
------------------------------------------------------------------------------

Dipole Moment Calculation                       ... on
Quadrupole Moment Calculation                   ... off
Polarizability Calculation                      ... off
GBWName                                         ... vinyl_alcohol_s_trans.gbw
Electron density file                           ... vinyl_alcohol_s_trans.scfp.tmp
The origin for moment calculation is the CENTER OF MASS  = ( 0.062888, -0.040823 -0.000014)

-------------
DIPOLE MOMENT
-------------
                                X             Y             Z
Electronic contribution:      1.83093      -0.26893      -0.00015
Nuclear contribution   :     -1.50944       0.97987       0.00029
                        -----------------------------------------
Total Dipole Moment    :      0.32150       0.71093       0.00014
                        -----------------------------------------
Magnitude (a.u.)       :      0.78025
Magnitude (Debye)      :      1.98323



--------------------
Rotational spectrum 
--------------------
 
Rotational constants in cm-1:     2.121470     0.345831     0.297357 
Rotational constants in MHz : 63600.074335 10367.742720  8914.541962 

 Dipole components along the rotational axes: 
x,y,z [a.u.] :     0.296783     0.721601     0.000154 
x,y,z [Debye]:     0.754362     1.834163     0.000393 

 

Timings for individual modules:

Sum of individual times         ...       62.520 sec (=   1.042 min)
GTO integral calculation        ...        0.379 sec (=   0.006 min)   0.6 %
SCF iterations                  ...        2.878 sec (=   0.048 min)   4.6 %
MDCI module                     ...       59.264 sec (=   0.988 min)  94.8 %
                             ****ORCA TERMINATED NORMALLY****
TOTAL RUN TIME: 0 days 0 hours 1 minutes 2 seconds 772 msec
vinyl_alcohol_s_trans.gbw -> /home1/pantazis/klk/xyz_1/Oxygen_compounds/vinyl_alcohol_s_trans.gbw
vinyl_alcohol_s_trans.job -> /home1/pantazis/klk/xyz_1/Oxygen_compounds/vinyl_alcohol_s_trans.job
vinyl_alcohol_s_trans.loc -> /home1/pantazis/klk/xyz_1/Oxygen_compounds/vinyl_alcohol_s_trans.loc
vinyl_alcohol_s_trans.nodes -> /home1/pantazis/klk/xyz_1/Oxygen_compounds/vinyl_alcohol_s_trans.nodes
vinyl_alcohol_s_trans.prop -> /home1/pantazis/klk/xyz_1/Oxygen_compounds/vinyl_alcohol_s_trans.prop
vinyl_alcohol_s_trans_property.txt -> /home1/pantazis/klk/xyz_1/Oxygen_compounds/vinyl_alcohol_s_trans_property.txt
vinyl_alcohol_s_trans.xyz -> /home1/pantazis/klk/xyz_1/Oxygen_compounds/vinyl_alcohol_s_trans.xyz
cp: cannot stat vinyl_alcohol_s_trans.asa.inp: No such file or directory
