 Entering Link 1 = C:\G03W\l1.exe PID=      2824.
  
 Copyright (c) 1988,1990,1992,1993,1995,1998,2003,2004, Gaussian, Inc.
                  All Rights Reserved.
  
 This is the Gaussian(R) 03 program.  It is based on the
 the Gaussian(R) 98 system (copyright 1998, Gaussian, Inc.),
 the Gaussian(R) 94 system (copyright 1995, Gaussian, Inc.),
 the Gaussian 92(TM) system (copyright 1992, Gaussian, Inc.),
 the Gaussian 90(TM) system (copyright 1990, Gaussian, Inc.),
 the Gaussian 88(TM) system (copyright 1988, Gaussian, Inc.),
 the Gaussian 86(TM) system (copyright 1986, Carnegie Mellon
 University), and the Gaussian 82(TM) system (copyright 1983,
 Carnegie Mellon University). Gaussian is a federally registered
 trademark of Gaussian, Inc.
  
 This software contains proprietary and confidential information,
 including trade secrets, belonging to Gaussian, Inc.
  
 This software is provided under written license and may be
 used, copied, transmitted, or stored only in accord with that
 written license.
  
 The following legend is applicable only to US Government
 contracts under FAR:
  
                    RESTRICTED RIGHTS LEGEND
  
 Use, reproduction and disclosure by the US Government is
 subject to restrictions as set forth in subparagraphs (a)
 and (c) of the Commercial Computer Software - Restricted
 Rights clause in FAR 52.227-19.
  
 Gaussian, Inc.
 340 Quinnipiac St., Bldg. 40, Wallingford CT 06492
  
  
 ---------------------------------------------------------------
 Warning -- This program may not be used in any manner that
 competes with the business of Gaussian, Inc. or will provide
 assistance to any competitor of Gaussian, Inc.  The licensee
 of this program is prohibited from giving any competitor of
 Gaussian, Inc. access to this program.  By using this program,
 the user acknowledges that Gaussian, Inc. is engaged in the
 business of creating and licensing software in the field of
 computational chemistry and represents and warrants to the
 licensee that it is not a competitor of Gaussian, Inc. and that
 it will not use this program in any manner prohibited above.
 ---------------------------------------------------------------
  

 Cite this work as:
 Gaussian 03, Revision D.01,
 M. J. Frisch, G. W. Trucks, H. B. Schlegel, G. E. Scuseria, 
 M. A. Robb, J. R. Cheeseman, J. A. Montgomery, Jr., T. Vreven, 
 K. N. Kudin, J. C. Burant, J. M. Millam, S. S. Iyengar, J. Tomasi, 
 V. Barone, B. Mennucci, M. Cossi, G. Scalmani, N. Rega, 
 G. A. Petersson, H. Nakatsuji, M. Hada, M. Ehara, K. Toyota, 
 R. Fukuda, J. Hasegawa, M. Ishida, T. Nakajima, Y. Honda, O. Kitao, 
 H. Nakai, M. Klene, X. Li, J. E. Knox, H. P. Hratchian, J. B. Cross, 
 V. Bakken, C. Adamo, J. Jaramillo, R. Gomperts, R. E. Stratmann, 
 O. Yazyev, A. J. Austin, R. Cammi, C. Pomelli, J. W. Ochterski, 
 P. Y. Ayala, K. Morokuma, G. A. Voth, P. Salvador, J. J. Dannenberg, 
 V. G. Zakrzewski, S. Dapprich, A. D. Daniels, M. C. Strain, 
 O. Farkas, D. K. Malick, A. D. Rabuck, K. Raghavachari, 
 J. B. Foresman, J. V. Ortiz, Q. Cui, A. G. Baboul, S. Clifford, 
 J. Cioslowski, B. B. Stefanov, G. Liu, A. Liashenko, P. Piskorz, 
 I. Komaromi, R. L. Martin, D. J. Fox, T. Keith, M. A. Al-Laham, 
 C. Y. Peng, A. Nanayakkara, M. Challacombe, P. M. W. Gill, 
 B. Johnson, W. Chen, M. W. Wong, C. Gonzalez, and J. A. Pople, 
 Gaussian, Inc., Wallingford CT, 2004.
 
 ******************************************
 Gaussian 03:  IA32W-G03RevD.01 13-Oct-2005
                13-Dec-2007 
 ******************************************
 ---------
 # opt uff
 ---------
 1/6=10,10=10,14=-1,18=4000020,38=1,56=1,64=2/1,3;
 2/9=110,17=6,18=5,40=1/2;
 3/5=30,11=9,16=1,25=1,30=1/1;
 4/20=10,22=1001,24=3/2;
 7/44=-1/16;
 1/6=10,10=10,14=-1,18=4000020,64=2/3(2);
 2/9=110/2;
 99//99;
 2/9=110/2;
 3/5=30,11=9,16=1,25=1,30=1/1;
 4/16=2,20=10,22=1001,24=3/2;
 7/44=-1/16;
 1/6=10,10=10,14=-1,18=4000020,64=2/3(-4);
 2/9=110/2;
 99//99;
 -----------
 Carbachol-C
 -----------
 Symbolic Z-matrix:
 Charge =  1 Multiplicity = 1
 C                    -0.46359  -0.82165  -0.67714 
 C                    -0.38659   0.58535  -1.30314 
 H                    -0.41359   0.45035  -2.41114 
 H                    -1.33659   1.11035  -1.04214 
 N                     0.76341   1.43935  -0.96014 
 H                    -1.24759  -1.41765  -1.20314 
 O                    -0.86859  -0.71265   0.66886 
 H                     0.50441  -1.36965  -0.73614 
 C                    -0.92859  -1.83665   1.40586 
 O                    -0.66059  -2.92565   0.95686 
 N                    -1.30959  -1.70765   2.71786 
 C                     2.01841   0.84735  -1.43314 
 C                     0.58741   2.74035  -1.62014 
 C                     0.84941   1.65635   0.48486 
 H                    -1.53459  -0.78665   3.09586 
 H                    -1.35359  -2.55865   3.28086 
 H                     2.88341   1.52535  -1.24214 
 H                     2.25241  -0.11065  -0.91814 
 H                     1.98641   0.64735  -2.52914 
 H                     1.43541   3.43035  -1.40114 
 H                     0.52841   2.63135  -2.72814 
 H                    -0.34459   3.24835  -1.28014 
 H                     1.66741   2.36835   0.74086 
 H                    -0.10059   2.07735   0.88886 
 H                     1.07141   0.71235   1.03186 
 
 I=    5 IAn=  7 Valence= 4.
          JB=  1 J=    2 IAn=  6 IBT= 1 Dist= 1.47D+00
          JB=  2 J=   12 IAn=  6 IBT= 1 Dist= 1.47D+00
          JB=  3 J=   13 IAn=  6 IBT= 1 Dist= 1.47D+00
          JB=  4 J=   14 IAn=  6 IBT= 1 Dist= 1.46D+00
 I=    9 IAn=  6 Valence=36.
          JB=  1 J=    7 IAn=  8 IBT=12 Dist= 1.35D+00
          JB=  2 J=   10 IAn=  8 IBT= 2 Dist= 1.21D+00
          JB=  3 J=   11 IAn=  7 IBT=21 Dist= 1.37D+00
 I=   11 IAn=  7 Valence=33.
          JB=  1 J=    9 IAn=  6 IBT=11 Dist= 1.37D+00
          JB=  2 J=   15 IAn=  1 IBT= 1 Dist= 1.02D+00
          JB=  3 J=   16 IAn=  1 IBT= 1 Dist= 1.02D+00
 Include all MM classes
 MMInit generated parameter data with length LenPar=  2604.

 GradGradGradGradGradGradGradGradGradGradGradGradGradGradGradGradGradGrad
 Berny optimization.
 Initialization pass.
 No Z-matrix variables, so optimization will use Cartesian coordinates.
 Trust Radius=1.00D-01 FncErr=1.00D-07 GrdErr=1.00D-07
 Number of steps in this run=   2 maximum allowed number of steps=   2.
 GradGradGradGradGradGradGradGradGradGradGradGradGradGradGradGradGradGrad

                          Input orientation:                          
 ---------------------------------------------------------------------
 Center     Atomic     Atomic              Coordinates (Angstroms)
 Number     Number      Type              X           Y           Z
 ---------------------------------------------------------------------
    1          6      10061003       -0.463593   -0.821654   -0.677136
    2          6      10061003       -0.386593    0.585346   -1.303136
    3          1      10011000       -0.413593    0.450346   -2.411136
    4          1      10011000       -1.336593    1.110346   -1.042136
    5          7      10071000        0.763407    1.439346   -0.960136
    6          1      10011000       -1.247593   -1.417654   -1.203136
    7          8      10081000       -0.868593   -0.712654    0.668864
    8          1      10011000        0.504407   -1.369654   -0.736136
    9          6      10061000       -0.928593   -1.836654    1.405864
   10          8      10081002       -0.660593   -2.925654    0.956864
   11          7      10071000       -1.309593   -1.707654    2.717864
   12          6      10061003        2.018407    0.847346   -1.433136
   13          6      10061003        0.587407    2.740346   -1.620136
   14          6      10061003        0.849407    1.656346    0.484864
   15          1      10011000       -1.534593   -0.786654    3.095864
   16          1      10011000       -1.353593   -2.558654    3.280864
   17          1      10011000        2.883407    1.525346   -1.242136
   18          1      10011000        2.252407   -0.110654   -0.918136
   19          1      10011000        1.986407    0.647346   -2.529136
   20          1      10011000        1.435407    3.430346   -1.401136
   21          1      10011000        0.528407    2.631346   -2.728136
   22          1      10011000       -0.344593    3.248346   -1.280136
   23          1      10011000        1.667407    2.368346    0.740864
   24          1      10011000       -0.100593    2.077346    0.888864
   25          1      10011000        1.071407    0.712346    1.031864
 ---------------------------------------------------------------------
                    Distance matrix (angstroms):
                    1          2          3          4          5
     1  C    0.000000
     2  C    1.541899   0.000000
     3  H    2.151102   1.116520   0.000000
     4  H    2.151274   1.116354   1.778114   0.000000
     5  N    2.587999   1.472910   2.113966   2.127197   0.000000
     6  H    1.116489   2.182505   2.375762   2.534685   3.502231
     7  O    1.409830   2.409546   3.323551   2.543595   3.154072
     8  H    1.113916   2.222025   2.638323   3.103759   2.829795
     9  C    2.363332   3.674034   4.479407   3.852788   4.380981
    10  O    2.671251   4.184471   4.775124   4.554369   4.975529
    11  N    3.609257   4.719981   5.636171   4.698878   5.265797
    12  C    3.085032   2.422719   2.651173   3.387931   1.466021
    13  C    3.831670   2.386041   2.621408   2.587037   1.469414
    14  C    3.035572   2.423155   3.381778   2.721845   1.463732
    15  H    3.922218   4.748841   5.754464   4.556408   5.165948
    16  H    4.413053   5.642064   6.506654   5.670113   6.200949
    17  H    4.126747   3.402972   3.659562   4.245071   2.140402
    18  H    2.817846   2.756259   3.106658   3.793038   2.149741
    19  H    3.404463   2.671713   2.410961   3.669859   2.141204
    20  H    4.712736   3.379839   3.649562   3.632529   2.147125
    21  H    4.136892   2.655930   2.396792   2.938411   2.145207
    22  H    4.116147   2.663430   3.018729   2.368914   2.145354
    23  H    4.089986   3.402343   4.236082   3.712906   2.138611
    24  H    3.314864   2.666969   3.692573   2.488282   2.138303
    25  H    2.762257   2.755743   3.758739   3.202865   2.142769
                    6          7          8          9         10
     6  H    0.000000
     7  O    2.035940   0.000000
     8  H    1.813807   2.071425   0.000000
     9  C    2.661617   1.345416   2.619111   0.000000
    10  O    2.698932   2.241334   2.577714   1.208034   0.000000
    11  N    3.932198   2.320109   3.915987   1.372278   2.237375
    12  C    3.981191   3.897021   2.773643   4.893729   5.208135
    13  C    4.563998   4.391203   4.204812   5.692439   6.348385
    14  C    4.086102   2.932156   3.281241   4.026236   4.847433
    15  H    4.354530   2.517809   4.379684   2.079864   3.148733
    16  H    4.628107   3.235040   4.582813   2.053664   2.452736
    17  H    5.072271   4.768445   3.781098   5.731168   6.099749
    18  H    3.746929   3.552691   2.161876   4.301025   4.463790
    19  H    4.059711   4.497536   3.078873   5.491057   5.650233
    20  H    5.544438   5.172791   4.934469   6.419426   7.095922
    21  H    4.676986   4.967248   4.469524   6.259060   6.772975
    22  H    4.753198   4.445526   4.726802   5.780387   6.574367
    23  H    5.158503   3.991120   4.184106   4.986328   5.787286
    24  H    4.231678   2.902124   3.858557   4.033890   5.034703
    25  H    3.861332   2.434336   2.789630   3.261484   4.029950
                   11         12         13         14         15
    11  N    0.000000
    12  C    5.902068   0.000000
    13  C    6.496273   2.380374   0.000000
    14  C    4.578653   2.387418   2.382168   0.000000
    15  H    1.020662   5.983779   6.259654   4.297560   0.000000
    16  H    1.021326   6.722575   7.474402   5.516978   1.790801
    17  H    6.611742   1.115522   2.625019   2.671488   6.609260
    18  H    5.334674   1.112540   3.375386   2.656898   5.559725
    19  H    6.628774   1.114558   2.676589   3.375655   6.789287
    20  H    7.134440   2.648170   1.114973   2.654707   6.843026
    21  H    7.201672   2.660786   1.114911   3.372986   7.060996
    22  H    6.440277   3.372236   1.114580   2.659948   6.070148
    23  H    5.420778   2.676363   2.622805   1.114273   5.074727
    24  H    4.374145   3.375610   2.684771   1.114880   3.889692
    25  H    3.790535   2.644099   3.373447   1.113386   3.646688
                   16         17         18         19         20
    16  H    0.000000
    17  H    7.422180   0.000000
    18  H    6.052069   1.783153   0.000000
    19  H    7.429006   1.797738   1.800178   0.000000
    20  H    8.097393   2.398126   3.665987   3.053043   0.000000
    21  H    8.160031   2.996240   3.710369   2.470146   1.794987
    22  H    7.452654   3.659256   4.261260   3.709281   1.793367
    23  H    6.312953   2.474186   3.039728   3.708976   2.402047
    24  H    5.365088   3.708116   3.686353   4.252434   3.071483
    25  H    4.651674   3.019170   2.423755   3.677250   3.665994
                   21         22         23         24         25
    21  H    0.000000
    22  H    1.799867   0.000000
    23  H    3.660663   2.984457   0.000000
    24  H    3.712849   2.476961   1.797890   0.000000
    25  H    4.256173   3.712371   1.783881   1.804788   0.000000
 Stoichiometry    C6H15N2O2(1+)
 Framework group  C1[X(C6H15N2O2)]
 Deg. of freedom    69
 Full point group                 C1
 Largest Abelian subgroup         C1      NOp   1
 Largest concise Abelian subgroup C1      NOp   1
                         Standard orientation:                         
 ---------------------------------------------------------------------
 Center     Atomic     Atomic              Coordinates (Angstroms)
 Number     Number      Type              X           Y           Z
 ---------------------------------------------------------------------
    1          6      10061003       -0.402410   -1.005778   -0.418359
    2          6      10061003        1.014039   -0.614727   -0.885485
    3          1      10011000        1.524301   -1.556559   -1.200448
    4          1      10011000        0.894791   -0.012467   -1.817853
    5          7      10071000        1.887465    0.101156    0.060086
    6          1      10011000       -0.844542   -1.729029   -1.144977
    7          8      10081000       -1.228776    0.136451   -0.425674
    8          1      10011000       -0.406321   -1.467157    0.595506
    9          6      10061000       -2.492318    0.007655    0.018194
   10          8      10081002       -2.942083   -1.043280    0.408826
   11          7      10071000       -3.275821    1.134274    0.018023
   12          6      10061003        2.191582   -0.730202    1.228664
   13          6      10061003        3.148907    0.418203   -0.623598
   14          6      10061003        1.271431    1.351338    0.507361
   15          1      10011000       -2.893843    2.021614   -0.311326
   16          1      10011000       -4.234729    1.040534    0.356864
   17          1      10011000        2.912308   -0.221336    1.911306
   18          1      10011000        1.286058   -0.948938    1.836880
   19          1      10011000        2.645329   -1.703113    0.929001
   20          1      10011000        3.856365    0.957570    0.048526
   21          1      10011000        3.666201   -0.504946   -0.974638
   22          1      10011000        2.979748    1.069724   -1.511964
   23          1      10011000        1.963027    1.935423    1.157086
   24          1      10011000        0.995517    1.999277   -0.356933
   25          1      10011000        0.353770    1.167088    1.110336
 ---------------------------------------------------------------------
 Rotational constants (GHZ):      2.8923521      0.6316217      0.5962300
 Standard basis: Dummy (5D, 7F)
 There are    25 symmetry adapted basis functions of A   symmetry.
 Integral buffers will be    262144 words long.
 Raffenetti 1 integral format.
 Two-electron integral symmetry is turned on.
    25 basis functions,    25 primitive gaussians,    25 cartesian basis functions
    16 alpha electrons       16 beta electrons
       nuclear repulsion energy        97.3116314922 Hartrees.
 NAtoms=   25 NActive=   25 NUniq=   25 SFac= 7.50D-01 NAtFMM=   80 NAOKFM=F Big=F
 UFF calculation of energy and first derivatives.
 MO and density RWFs will be updated without deorthogonalization.
 NRF= 0 NRA=   0 NVA=  25 HaveQM=F
 Convergence limit is  0.750E-04 MaxStp=  5000 StMxLn= 1.00D-04 StpMin= 1.00D-06.
 Convergence criteria           0.00011250 0.00007500 0.00045000 0.00030000
  Step  NS  ND Rises OKQ   Scale  Max. Force  RMS Force Max. Disp.  RMS Disp.     Energy   Flag
     1   0   0   F    T  1.00D+00 0.05751789 0.01283625 0.05751789 0.01283625    0.0835514 ----
     2   0   0   F    F -3.91D-01 0.05751789 0.01283625 0.05751789 0.01283625    0.0813404 ----
     3   0   0   F    T  1.37D+00 0.02353494 0.00526534 0.01976613 0.00569109    0.0797834 ----
     4   0   0   F    F -3.50D-01 0.02353494 0.00526534 0.02715697 0.00781908    0.0791246 ----
     5   0   0   F    T  1.97D+00 0.00802025 0.00232516 0.00672662 0.00257524    0.0788548 ----
     6   0   0   F    F  3.39D-01 0.00802025 0.00232516 0.01327289 0.00508144    0.0783527 ----
     7   0   0   F    T  1.54D+00 0.00899270 0.00271291 0.01363013 0.00443147    0.0783182 ----
     8   0   0   F    F -4.19D-02 0.00899270 0.00271291 0.02093353 0.00680597    0.0779127 ----
     9   0   0   F    T  2.19D+00 0.00802082 0.00194108 0.00819278 0.00297928    0.0779120 ----
    10   0   0   T    F  4.48D-01 0.00802082 0.00194108 0.01793223 0.00652101    0.0779835 ----
    11   0   0   F    T  1.65D+00 0.00388427 0.00125690 0.00524177 0.00177192    0.0777733 ----
    12   0   0   F    F  2.59D-01 0.00388427 0.00125690 0.00864654 0.00292287    0.0776556 ----
    13   0   0   F    T  2.00D+00 0.00482973 0.00113621 0.00701911 0.00184068    0.0776504 ----
    14   0   0   F    F -3.22D-01 0.00482973 0.00113621 0.01403387 0.00368022    0.0775995 ----
    15   0   0   F    T  2.13D+00 0.00210852 0.00078215 0.00492907 0.00117315    0.0775847 ----
    16   0   0   F    F -7.69D-02 0.00210852 0.00078215 0.01048805 0.00249623    0.0775400 ----
    17   0   0   F    T  1.73D+00 0.00219179 0.00075436 0.00535963 0.00132848    0.0775397 ----
    18   0   0   F    F  2.11D-01 0.00219179 0.00075436 0.00929595 0.00230417    0.0774962 ----
    19   0   0   F    T  1.11D+00 0.00483856 0.00099375 0.00961306 0.00251128    0.0774949 ----
    20   0   0   F    F  1.20D-01 0.00483856 0.00099375 0.01068356 0.00279094    0.0774493 ----
    21   0   0   F    T  2.09D+00 0.00229565 0.00071913 0.00533155 0.00149896    0.0774488 ----
    22   0   0   F    F -1.98D-01 0.00229565 0.00071913 0.01111824 0.00312588    0.0774183 ----
    23   0   0   F    T  1.86D+00 0.00261605 0.00064025 0.00348556 0.00135082    0.0774163 ----
    24   0   0   F    F  8.70D-01 0.00261605 0.00064025 0.00647108 0.00250785    0.0773744 ----
    25   0   0   F    T  3.25D+00 0.00179366 0.00062933 0.00367997 0.00144296    0.0773629 ----
    26   0   0   F    F -2.29D-01 0.00179366 0.00062933 0.01195968 0.00468954    0.0773289 ----
    27   0   0   F    T  1.97D+00 0.00216995 0.00068580 0.00476555 0.00183776    0.0773256 ----
    28   0   0   F    F -3.10D-01 0.00216995 0.00068580 0.00938138 0.00361779    0.0773064 ----
    29   0   0   F    T  1.35D+00 0.00227870 0.00066474 0.00451400 0.00184566    0.0773016 ----
    30   0   0   F    F  6.28D-01 0.00227870 0.00066474 0.00610684 0.00249692    0.0772706 ----
    31   0   0   F    T  1.67D+00 0.00296620 0.00074494 0.00557743 0.00243662    0.0772651 ----
    32   0   0   F    F -1.63D-01 0.00296620 0.00074494 0.00930539 0.00406527    0.0772372 ----
    33   0   0   F    T  2.11D+00 0.00231449 0.00058336 0.00364689 0.00161181    0.0772361 ----
    34   0   0   F    F -2.86D-01 0.00231449 0.00058336 0.00770107 0.00340364    0.0772199 ----
    35   0   0   F    T  2.29D+00 0.00188723 0.00044985 0.00260798 0.00105949    0.0772168 ----
    36   0   0   T    F  4.75D-01 0.00188723 0.00044985 0.00598195 0.00243016    0.0772187 ----
    37   0   0   F    T  1.47D+00 0.00109847 0.00036509 0.00211014 0.00078741    0.0772086 ----
    38   0   0   F    F  1.59D-01 0.00109847 0.00036509 0.00309522 0.00115500    0.0772002 ----
    39   0   0   F    T  2.28D+00 0.00070177 0.00029353 0.00161966 0.00058737    0.0772001 ----
    40   0   0   F    F  5.46D-01 0.00070177 0.00029353 0.00369167 0.00133879    0.0771901 ----
    41   0   0   F    T  3.30D+00 0.00071388 0.00028629 0.00166657 0.00062750    0.0771887 ----
    42   0   0   F    F -3.27D-01 0.00071388 0.00028629 0.00549756 0.00206995    0.0771835 ----
    43   0   0   F    T  3.57D+00 0.00075453 0.00020757 0.00105979 0.00038973    0.0771819 ----
    44   0   0   T    F  4.69D-01 0.00075453 0.00020757 0.00378726 0.00139273    0.0771826 ----
    45   0   0   F    T  1.00D+00 0.00137334 0.00027383 0.00196452 0.00073143    0.0771792 ----
    46   0   0   F    F  7.41D-01 0.00137334 0.00027383 0.00196452 0.00073143    0.0771752 ----
    47   0   0   F    T  2.63D+00 0.00070843 0.00021130 0.00119716 0.00048419    0.0771743 ----
    48   0   0   F    F -2.52D-01 0.00070843 0.00021130 0.00314793 0.00127317    0.0771713 ----
    49   0   0   F    T  1.29D+00 0.00100458 0.00025267 0.00171946 0.00073724    0.0771710 ----
    50   0   0   F    F  5.74D-01 0.00100458 0.00025267 0.00222209 0.00095276    0.0771668 ----
    51   0   0   F    T  1.64D+00 0.00120671 0.00027494 0.00210218 0.00091691    0.0771661 ----
    52   0   0   F    F -1.10D-01 0.00120671 0.00027494 0.00343713 0.00149917    0.0771621 ----
    53   0   0   F    T  1.48D+00 0.00104112 0.00026656 0.00220003 0.00090372    0.0771620 ----
    54   0   0   F    F  9.20D-01 0.00104112 0.00026656 0.00324736 0.00133394    0.0771562 ----
    55   0   0   F    T  2.23D+00 0.00097469 0.00029533 0.00287283 0.00114840    0.0771544 ----
    56   0   0   F    F -3.05D-01 0.00097469 0.00029533 0.00640539 0.00256052    0.0771503 ----
    57   0   0   F    T  2.11D+00 0.00065327 0.00024812 0.00255729 0.00084478    0.0771494 ----
    58   0   0   F    F  3.02D-01 0.00065327 0.00024812 0.00538329 0.00177833    0.0771434 ----
    59   0   0   F    T  2.99D+00 0.00069380 0.00023233 0.00248301 0.00077452    0.0771430 ----
    60   0   0   F    F -4.49D-01 0.00069380 0.00023233 0.00742288 0.00231539    0.0771419 ----
    61   0   0   F    T  1.75D+00 0.00096913 0.00021975 0.00250775 0.00072757    0.0771397 ----
    62   0   0   F    F -3.21D-01 0.00096913 0.00021975 0.00439332 0.00127462    0.0771380 ----
    63   0   0   F    T  1.26D+00 0.00089515 0.00020876 0.00248255 0.00068914    0.0771376 ----
    64   0   0   F    F  9.78D-01 0.00089515 0.00020876 0.00311876 0.00086575    0.0771345 ----
    65   0   0   F    T  2.33D+00 0.00056813 0.00021075 0.00260588 0.00073437    0.0771335 ----
    66   0   0   F    F -2.35D-01 0.00056813 0.00021075 0.00607597 0.00171228    0.0771308 ----
    67   0   0   F    T  2.71D+00 0.00042488 0.00016563 0.00179423 0.00048309    0.0771305 ----
    68   0   0   F    F -4.11D-02 0.00042488 0.00016563 0.00486451 0.00130975    0.0771279 ----
    69   0   0   F    T  1.21D+00 0.00084532 0.00023925 0.00409388 0.00103486    0.0771278 ----
    70   0   0   F    F  3.15D-01 0.00084532 0.00023925 0.00496824 0.00125588    0.0771246 ----
    71   0   0   F    T  2.54D+00 0.00067800 0.00018578 0.00269861 0.00065006    0.0771244 ----
    72   0   0   F    F -4.07D-01 0.00067800 0.00018578 0.00685494 0.00165127    0.0771234 ----
    73   0   0   F    T  1.49D+00 0.00072242 0.00018330 0.00280602 0.00065923    0.0771225 ----
    74   0   0   F    F  2.51D-01 0.00072242 0.00018330 0.00417051 0.00097979    0.0771202 ----
    75   0   0   F    T  3.12D+00 0.00044120 0.00013680 0.00165554 0.00039265    0.0771201 ----
    76   0   0   F    F -3.00D-01 0.00044120 0.00013680 0.00516723 0.00122553    0.0771189 ----
    77   0   0   F    T  1.79D+00 0.00056028 0.00014755 0.00196801 0.00048013    0.0771186 ----
    78   0   0   F    F -1.66D-01 0.00056028 0.00014755 0.00351751 0.00085816    0.0771174 ----
    79   0   0   F    T  1.00D+00 0.00075503 0.00019420 0.00348321 0.00085407    0.0771174 ----
    80   0   0   F    F  3.03D+00 0.00075503 0.00019420 0.00348321 0.00085407    0.0771149 ----
    81   0   0   F    T  1.06D+01 0.00029691 0.00011603 0.00126104 0.00032501    0.0771117 ----
    82   0   0   T    F  3.02D-01 0.00029691 0.00011603 0.01335462 0.00344191    0.0771187 ----
    83   0   0   F    T  1.74D+00 0.00059118 0.00015484 0.00235808 0.00059875    0.0771101 ----
    84   0   0   F    F  6.95D-01 0.00059118 0.00015484 0.00409563 0.00103993    0.0771079 ----
    85   0   0   F    T  1.02D+00 0.00115436 0.00026100 0.00662327 0.00172190    0.0771074 ----
    86   0   0   F    F  5.10D-01 0.00115436 0.00026100 0.00678060 0.00176280    0.0771039 ----
    87   0   0   F    T  3.07D+00 0.00052843 0.00018261 0.00307857 0.00086822    0.0771035 ----
    88   0   0   T    F  4.75D-01 0.00052843 0.00018261 0.00943710 0.00266145    0.0771039 ----
    89   0   0   F    T  1.91D+00 0.00044545 0.00015710 0.00218527 0.00066160    0.0771016 ----
    90   0   0   F    F  1.99D-01 0.00044545 0.00015710 0.00417796 0.00126490    0.0770996 ----
    91   0   0   F    T  1.75D+00 0.00072600 0.00017786 0.00267638 0.00086509    0.0770995 ----
    92   0   0   F    F -4.53D-01 0.00072600 0.00017786 0.00469168 0.00151649    0.0770992 ----
    93   0   0   F    T  2.02D+00 0.00047118 0.00011989 0.00112440 0.00041107    0.0770984 ----
    94   0   0   F    F  1.80D-01 0.00047118 0.00011989 0.00226798 0.00082914    0.0770971 ----
    95   0   0   F    T  1.69D+00 0.00049557 0.00014009 0.00155993 0.00057862    0.0770971 ----
    96   0   0   F    F  2.52D-01 0.00049557 0.00014009 0.00263778 0.00097843    0.0770956 ----
    97   0   0   F    T  2.11D+00 0.00042976 0.00013835 0.00154182 0.00058141    0.0770955 ----
    98   0   0   F    F -8.71D-02 0.00042976 0.00013835 0.00324878 0.00122510    0.0770942 ----
    99   0   0   F    T  3.02D+00 0.00027629 0.00010797 0.00094359 0.00037047    0.0770942 ----
   100   0   0   F    F -2.01D-01 0.00027629 0.00010797 0.00284848 0.00111837    0.0770932 ----
   101   0   0   F    T  2.05D+00 0.00033722 0.00011505 0.00110740 0.00043596    0.0770931 ----
   102   0   0   F    F  1.03D-01 0.00033722 0.00011505 0.00226984 0.00089359    0.0770920 ----
   103   0   0   F    T  1.28D+00 0.00076353 0.00015160 0.00197935 0.00077185    0.0770920 ----
   104   0   0   F    F -7.97D-02 0.00076353 0.00015160 0.00252859 0.00098603    0.0770910 ----
   105   0   0   F    T  2.50D+00 0.00029758 0.00010179 0.00093057 0.00036262    0.0770910 ----
   106   0   0   F    F -2.89D-01 0.00029758 0.00010179 0.00232866 0.00090741    0.0770904 ----
   107   0   0   F    T  2.40D+00 0.00030539 0.00008531 0.00064577 0.00026873    0.0770903 ---+
   108   0   0   T    F  4.93D-01 0.00030539 0.00008531 0.00155108 0.00064546    0.0770903 ----
   109   0   0   F    T  1.62D+00 0.00033127 0.00007051 0.00048463 0.00019661    0.0770900 -+-+
   110   0   0   F    T  1.69D+00 0.00029349 0.00006900 0.00048084 0.00018774    0.0770896 -+-+
   111   0   0   F    F  3.25D-01 0.00029349 0.00006900 0.00081495 0.00031820    0.0770892 -+--
   112   0   0   F    T  1.52D+00 0.00029509 0.00007735 0.00074985 0.00027742    0.0770892 ---+
   113   0   0   F    F  1.68D-01 0.00029509 0.00007735 0.00113963 0.00042162    0.0770888 ----
   114   0   0   F    T  3.18D+00 0.00021152 0.00006029 0.00049407 0.00015510    0.0770888 -+-+
   115   0   0   F    F -3.66D-01 0.00021152 0.00006029 0.00156894 0.00049253    0.0770886 -+--
   116   0   0   F    T  2.09D+00 0.00016397 0.00005693 0.00051366 0.00014955    0.0770885 -+-+
   117   0   0   F    F  8.11D-01 0.00016397 0.00005693 0.00107255 0.00031227    0.0770882 -+--
   118   0   0   F    T  1.62D+00 0.00037656 0.00008574 0.00122589 0.00034987    0.0770881 ----
   119   0   0   F    F -3.79D-01 0.00037656 0.00008574 0.00198155 0.00056554    0.0770879 ----
   120   0   0   F    T  2.34D+00 0.00016691 0.00005418 0.00056215 0.00014974    0.0770878 -+-+
   121   0   0   F    F -1.66D-01 0.00016691 0.00005418 0.00131815 0.00035112    0.0770876 -+--
   122   0   0   F    T  1.21D+00 0.00028846 0.00006754 0.00091315 0.00024229    0.0770876 -+-+
   123   0   0   F    F  6.80D-01 0.00028846 0.00006754 0.00110331 0.00029275    0.0770873 -+-+
   124   0   0   F    T  1.53D+00 0.00025901 0.00007671 0.00122302 0.00032169    0.0770872 ----
   125   0   0   F    F  3.34D-01 0.00025901 0.00007671 0.00187031 0.00049195    0.0770868 ----
   126   0   0   F    T  2.00D+00 0.00029203 0.00007647 0.00128064 0.00032880    0.0770868 ----
   127   0   0   F    F -3.35D-01 0.00029203 0.00007647 0.00255666 0.00065642    0.0770866 ----
   128   0   0   F    T  1.47D+00 0.00028132 0.00007148 0.00119126 0.00029626    0.0770865 -+-+
   129   0   0   F    F  3.66D-01 0.00028132 0.00007148 0.00175413 0.00043625    0.0770861 -+--
   130   0   0   F    T  2.67D+00 0.00022665 0.00006088 0.00088686 0.00022352    0.0770861 -+-+
   131   0   0   F    T  1.77D+00 0.00023626 0.00007421 0.00135091 0.00033626    0.0770857 -+--
   132   0   0   F    F  6.91D-01 0.00023626 0.00007421 0.00239426 0.00059597    0.0770852 -+--
   133   0   0   F    T  1.85D+00 0.00045930 0.00009209 0.00217404 0.00054395    0.0770851 ----
   134   0   0   F    F -2.47D-01 0.00045930 0.00009209 0.00402672 0.00100750    0.0770847 ----
   135   0   0   F    T  2.35D+00 0.00022441 0.00007102 0.00122722 0.00032211    0.0770847 -+--
   136   0   0   F    F -1.00D-01 0.00022441 0.00007102 0.00289010 0.00075856    0.0770843 -+--
   137   0   0   F    T  1.45D+00 0.00037355 0.00008527 0.00179920 0.00047239    0.0770843 ----
   138   0   0   F    F -1.73D-01 0.00037355 0.00008527 0.00260006 0.00068266    0.0770839 ----
   139   0   0   F    T  1.70D+00 0.00026040 0.00007056 0.00128233 0.00033166    0.0770839 -+--
   140   0   0   F    F  8.04D-01 0.00026040 0.00007056 0.00218398 0.00056487    0.0770835 -+--
   141   0   0   F    T  1.63D+00 0.00031649 0.00009640 0.00244397 0.00062699    0.0770834 ----
   142   0   0   F    T  1.62D+00 0.00034336 0.00009621 0.00245764 0.00063020    0.0770828 ----
   143   0   0   F    F -1.12D-01 0.00034336 0.00009621 0.00397383 0.00101898    0.0770823 ----
   144   0   0   F    T  2.14D+00 0.00024278 0.00007798 0.00170450 0.00042359    0.0770823 ----
   145   0   0   F    F  5.23D-02 0.00024278 0.00007798 0.00364271 0.00090526    0.0770818 ----
   146   0   0   F    T  1.58D+00 0.00027953 0.00009267 0.00248898 0.00060334    0.0770818 ----
   147   0   0   F    F  1.69D-01 0.00027953 0.00009267 0.00392983 0.00095260    0.0770812 ----
   148   0   0   F    T  2.05D+00 0.00030903 0.00008730 0.00227619 0.00054265    0.0770812 ----
   149   0   0   F    F  5.17D-01 0.00030903 0.00008730 0.00467192 0.00111379    0.0770804 ----
   150   0   0   F    T  1.82D+00 0.00039497 0.00011361 0.00395095 0.00092682    0.0770803 ----
   151   0   0   F    F  4.10D-01 0.00039497 0.00011361 0.00720485 0.00169013    0.0770791 ----
   152   0   0   F    T  2.43D+00 0.00035041 0.00011660 0.00431993 0.00098260    0.0770790 ----
   153   0   0   F    F -3.92D-01 0.00035041 0.00011660 0.01047985 0.00238371    0.0770786 ----
   154   0   0   F    T  1.51D+00 0.00042981 0.00011497 0.00432504 0.00096179    0.0770783 ----
   155   0   0   F    F  4.66D-01 0.00042981 0.00011497 0.00652234 0.00145042    0.0770773 ----
   156   0   0   F    T  1.23D+00 0.00051345 0.00015382 0.00777222 0.00172758    0.0770772 ----
   157   0   0   F    F  5.35D-01 0.00051345 0.00015382 0.00956425 0.00212591    0.0770757 ----
   158   0   0   F    T  2.55D+00 0.00048202 0.00013171 0.00581080 0.00127836    0.0770755 ----
   159   0   0   T    F  4.03D-01 0.00048202 0.00013171 0.01483505 0.00326367    0.0770763 ----
   160   0   0   F    T  2.88D+00 0.00025434 0.00007823 0.00208923 0.00045712    0.0770749 ----
   161   0   0   F    F -4.89D-01 0.00025434 0.00007823 0.00601710 0.00131653    0.0770748 ----
   162   0   0   F    T  1.72D+00 0.00032530 0.00007173 0.00175026 0.00039065    0.0770745 -+--
   163   0   0   F    F -1.69D-01 0.00032530 0.00007173 0.00301161 0.00067217    0.0770742 -+--
   164   0   0   F    T  1.88D+00 0.00025541 0.00006193 0.00128321 0.00029744    0.0770742 -+-+
   165   0   0   F    T  2.04D+00 0.00015680 0.00005838 0.00119430 0.00027368    0.0770740 -+-+
   166   0   0   F    F  8.47D-01 0.00015680 0.00005838 0.00243668 0.00055839    0.0770736 -+--
   167   0   0   F    T  2.07D+00 0.00021332 0.00007890 0.00209854 0.00049790    0.0770735 ----
   168   0   0   F    F -1.48D-01 0.00021332 0.00007890 0.00434623 0.00103118    0.0770731 ----
   169   0   0   F    T  2.54D+00 0.00025259 0.00006476 0.00139996 0.00034586    0.0770731 -+--
   170   0   0   F    F -3.49D-01 0.00025259 0.00006476 0.00355690 0.00087874    0.0770729 -+--
   171   0   0   F    T  1.59D+00 0.00022108 0.00006553 0.00142841 0.00036037    0.0770728 -+--
   172   0   0   F    F  7.65D-01 0.00022108 0.00006553 0.00226805 0.00057221    0.0770725 -+--
   173   0   0   F    T  1.93D+00 0.00026434 0.00007844 0.00197389 0.00052239    0.0770724 ----
   174   0   0   F    F -2.39D-01 0.00026434 0.00007844 0.00381720 0.00101022    0.0770721 ----
   175   0   0   F    T  1.23D+00 0.00026894 0.00008543 0.00223676 0.00062542    0.0770720 ----
   176   0   0   F    F  1.48D+00 0.00026894 0.00008543 0.00274913 0.00076868    0.0770715 ----
   177   0   0   F    T  2.85D+00 0.00025146 0.00008797 0.00233476 0.00066891    0.0770712 ----
   178   0   0   F    F -3.52D-01 0.00025146 0.00008797 0.00664618 0.00190414    0.0770708 ----
   179   0   0   F    T  2.90D+00 0.00022058 0.00006976 0.00137497 0.00042626    0.0770707 -+--
   180   0   0   T    F  4.11D-01 0.00022058 0.00006976 0.00398149 0.00123430    0.0770709 -+--
   181   0   0   F    T  1.97D+00 0.00015884 0.00005363 0.00073577 0.00025751    0.0770704 -+-+
   182   0   0   F    F -1.29D-01 0.00015884 0.00005363 0.00144951 0.00050731    0.0770703 -+--
   183   0   0   F    T  1.47D+00 0.00023328 0.00005733 0.00078540 0.00029991    0.0770703 -+-+
   184   0   0   F    T  1.54D+00 0.00016795 0.00005477 0.00070924 0.00028711    0.0770701 -+-+
   185   0   0   F    F  1.94D-01 0.00016795 0.00005477 0.00109202 0.00044207    0.0770699 -+--
   186   0   0   F    T  2.88D+00 0.00015808 0.00004520 0.00038610 0.00018326    0.0770699 -+++
   187   0   0   F    T  1.48D+00 0.00020491 0.00006311 0.00075790 0.00035561    0.0770696 -+--
   188   0   0   F    F  7.49D-01 0.00020491 0.00006311 0.00112491 0.00052781    0.0770693 -+--
   189   0   0   F    T  1.21D+00 0.00033787 0.00008811 0.00166922 0.00076346    0.0770692 ----
   190   0   0   F    F  3.70D-01 0.00033787 0.00008811 0.00201860 0.00092326    0.0770688 ----
   191   0   0   F    T  2.78D+00 0.00030543 0.00007321 0.00104679 0.00045403    0.0770688 -+--
   192   0   0   F    F -4.80D-01 0.00030543 0.00007321 0.00291518 0.00126441    0.0770687 -+--
   193   0   0   F    T  1.57D+00 0.00024514 0.00006984 0.00102811 0.00041886    0.0770685 -+--
   194   0   0   F    F  2.52D-01 0.00024514 0.00006984 0.00161239 0.00065691    0.0770681 -+--
   195   0   0   F    T  2.22D+00 0.00023032 0.00006513 0.00096208 0.00037033    0.0770681 -+--
   196   0   0   F    T  1.34D+00 0.00035384 0.00008394 0.00159211 0.00061553    0.0770677 ----
   197   0   0   F    F -5.00D-02 0.00035384 0.00008394 0.00212784 0.00082266    0.0770674 ----
   198   0   0   F    T  1.85D+00 0.00025984 0.00006756 0.00105111 0.00042161    0.0770674 -+--
   199   0   0   F    F -2.08D-01 0.00025984 0.00006756 0.00194836 0.00078150    0.0770672 -+--
   200   0   0   F    T  3.75D+00 0.00014352 0.00004221 0.00038476 0.00016495    0.0770671 -+++
   201   0   0   F    F -4.75D-01 0.00014352 0.00004221 0.00144426 0.00061917    0.0770671 -+--
   202   0   0   F    T  1.54D+00 0.00027716 0.00004708 0.00052090 0.00021049    0.0770670 -+-+
   203   0   0   F    F  2.18D-01 0.00027716 0.00004708 0.00080413 0.00032495    0.0770669 -+--
   204   0   0   F    T  1.84D+00 0.00016774 0.00004707 0.00057714 0.00021563    0.0770669 -+-+
   205   0   0   F    F  4.72D-01 0.00016774 0.00004707 0.00105970 0.00039593    0.0770667 -+--
   206   0   0   F    T  1.52D+00 0.00021278 0.00006231 0.00104810 0.00038298    0.0770666 -+--
   207   0   0   F    F -1.83D-01 0.00021278 0.00006231 0.00159469 0.00058272    0.0770665 -+--
   208   0   0   F    T  2.01D+00 0.00013149 0.00004846 0.00064887 0.00023667    0.0770665 -+-+
   209   0   0   F    F -8.40D-02 0.00013149 0.00004846 0.00130586 0.00047630    0.0770663 -+--
   210   0   0   F    T  2.56D+00 0.00015225 0.00004054 0.00047441 0.00017048    0.0770663 -+-+
   211   0   0   F    T  1.47D+00 0.00017932 0.00005288 0.00085208 0.00029668    0.0770661 -+-+
   212   0   0   F    F -1.07D-01 0.00017932 0.00005288 0.00125301 0.00043628    0.0770660 -+--
   213   0   0   F    T  1.72D+00 0.00017467 0.00004640 0.00067936 0.00022669    0.0770660 -+-+
   214   0   0   F    T  1.42D+00 0.00020489 0.00005032 0.00084592 0.00027522    0.0770659 -+-+
   215   0   0   F    F  6.26D-01 0.00020489 0.00005032 0.00119733 0.00038955    0.0770657 -+--
   216   0   0   F    T  1.59D+00 0.00026073 0.00006046 0.00123881 0.00039732    0.0770656 -+--
   217   0   0   F    F  1.00D-01 0.00026073 0.00006046 0.00197494 0.00063341    0.0770654 -+--
   218   0   0   F    T  3.14D+00 0.00018916 0.00004445 0.00070030 0.00022201    0.0770654 -+-+
   219   0   0   F    F  1.52D-01 0.00018916 0.00004445 0.00219775 0.00069673    0.0770651 -+--
   220   0   0   F    T  1.33D+00 0.00026441 0.00007295 0.00191452 0.00060226    0.0770651 -+--
   221   0   0   F    T  2.01D+00 0.00024317 0.00005927 0.00130615 0.00039995    0.0770649 -+--
   222   0   0   F    F -1.23D-01 0.00024317 0.00005927 0.00262138 0.00080268    0.0770646 -+--
   223   0   0   F    T  2.70D+00 0.00012784 0.00004718 0.00089507 0.00026057    0.0770646 -+-+
   224   0   0   F    F -4.64D-01 0.00012784 0.00004718 0.00241804 0.00070393    0.0770646 -+--
   225   0   0   F    T  1.73D+00 0.00018408 0.00004284 0.00078263 0.00021858    0.0770645 -+-+
   226   0   0   F    F  4.28D-01 0.00018408 0.00004284 0.00135045 0.00037716    0.0770644 -+--
   227   0   0   F    T  2.41D+00 0.00018241 0.00004293 0.00081796 0.00022355    0.0770643 -+-+
   228   0   0   F    F -1.70D-01 0.00018241 0.00004293 0.00197052 0.00053855    0.0770642 -+--
   229   0   0   F    T  3.00D+00 0.00012384 0.00003454 0.00054451 0.00014879    0.0770642 -+-+
   230   0   0   T    F  4.30D-01 0.00012384 0.00003454 0.00163621 0.00044711    0.0770643 -+--
   231   0   0   F    T  1.63D+00 0.00011178 0.00003019 0.00042704 0.00011764    0.0770642 ====
 Energy=    0.077064152532 NIter=   0.
 Dipole moment=       0.000000       0.000000       0.000000
 ***** Axes restored to original set *****
 -------------------------------------------------------------------
 Center     Atomic                   Forces (Hartrees/Bohr)
 Number     Number              X              Y              Z
 -------------------------------------------------------------------
    1          6           0.000023212   -0.000044113   -0.000035379
    2          6           0.000008361   -0.000026772    0.000011386
    3          1          -0.000015688   -0.000007562   -0.000017937
    4          1           0.000006975    0.000004654    0.000020018
    5          7          -0.000026197    0.000069017    0.000020133
    6          1          -0.000038641    0.000026173    0.000035492
    7          8          -0.000023553   -0.000012267    0.000025805
    8          1          -0.000001180    0.000000943   -0.000002395
    9          6           0.000014290    0.000120747   -0.000031047
   10          8          -0.000005978   -0.000056712    0.000037856
   11          7          -0.000005701   -0.000096797   -0.000002326
   12          6           0.000032303   -0.000012636   -0.000041857
   13          6           0.000017687   -0.000003562   -0.000024363
   14          6           0.000006318   -0.000001347   -0.000071516
   15          1           0.000008447    0.000042079   -0.000041400
   16          1          -0.000008533   -0.000005457    0.000019492
   17          1          -0.000031884    0.000008402    0.000021177
   18          1           0.000005486    0.000007766   -0.000002007
   19          1           0.000035328    0.000018207    0.000028359
   20          1          -0.000005706   -0.000020491   -0.000007388
   21          1          -0.000014306    0.000009342    0.000034021
   22          1           0.000007993   -0.000006994    0.000001524
   23          1           0.000027123    0.000029578    0.000014608
   24          1          -0.000012090   -0.000016402    0.000001890
   25          1          -0.000004066   -0.000025795    0.000005854
 -------------------------------------------------------------------
 Cartesian Forces:  Max     0.000120747 RMS     0.000030194

 GradGradGradGradGradGradGradGradGradGradGradGradGradGradGradGradGradGrad
 Berny optimization.
 Search for a local minimum.
 Step number   1 out of a maximum of   2
 All quantities printed in internal units (Hartrees-Bohrs-Radians)
 Second derivative matrix not updated -- unit matrix used.
 RFO step:  Lambda=-6.83744248D-08.
 Linear search not attempted -- first point.
 TrRot=  0.000000  0.000000  0.000000  0.000000  0.000000  0.000000
 Variable       Old X    -DE/DX   Delta X   Delta X   Delta X     New X
                                 (Linear)    (Quad)   (Total)
    X1       -0.79985   0.00002   0.00000   0.00002   0.00002  -0.79983
    Y1       -1.53853  -0.00004   0.00000  -0.00004  -0.00004  -1.53857
    Z1       -1.18688  -0.00004   0.00000  -0.00004  -0.00004  -1.18692
    X2       -0.73608   0.00001   0.00000   0.00001   0.00001  -0.73607
    Y2        1.07945  -0.00003   0.00000  -0.00003  -0.00003   1.07942
    Z2       -2.47399   0.00001   0.00000   0.00001   0.00001  -2.47398
    X3       -0.80201  -0.00002   0.00000  -0.00002  -0.00002  -0.80202
    Y3        0.76284  -0.00001   0.00000  -0.00001  -0.00001   0.76283
    Z3       -4.55504  -0.00002   0.00000  -0.00002  -0.00002  -4.55505
    X4       -2.53582   0.00001   0.00000   0.00001   0.00001  -2.53581
    Y4        2.05919   0.00000   0.00000   0.00000   0.00000   2.05920
    Z4       -1.98670   0.00002   0.00000   0.00002   0.00002  -1.98668
    X5        1.47541  -0.00003   0.00000  -0.00003  -0.00003   1.47538
    Y5        2.72254   0.00007   0.00000   0.00007   0.00007   2.72261
    Z5       -1.83720   0.00002   0.00000   0.00002   0.00002  -1.83718
    X6       -2.15793  -0.00004   0.00000  -0.00004  -0.00004  -2.15797
    Y6       -2.73893   0.00003   0.00000   0.00003   0.00003  -2.73891
    Z6       -2.25620   0.00004   0.00000   0.00004   0.00004  -2.25616
    X7       -1.65717  -0.00002   0.00000  -0.00002  -0.00002  -1.65719
    Y7       -1.30342  -0.00001   0.00000  -0.00001  -0.00001  -1.30343
    Z7        1.37391   0.00003   0.00000   0.00003   0.00003   1.37393
    X8        1.07074   0.00000   0.00000   0.00000   0.00000   1.07074
    Y8       -2.47902   0.00000   0.00000   0.00000   0.00000  -2.47901
    Z8       -1.26514   0.00000   0.00000   0.00000   0.00000  -1.26514
    X9       -1.85102   0.00001   0.00000   0.00001   0.00001  -1.85100
    Y9       -3.42749   0.00012   0.00000   0.00012   0.00012  -3.42737
    Z9        2.70778  -0.00003   0.00000  -0.00003  -0.00003   2.70775
   X10       -1.33133  -0.00001   0.00000  -0.00001  -0.00001  -1.33133
   Y10       -5.48661  -0.00006   0.00000  -0.00006  -0.00006  -5.48666
   Z10        1.79627   0.00004   0.00000   0.00004   0.00004   1.79630
   X11       -2.64088  -0.00001   0.00000  -0.00001  -0.00001  -2.64089
   Y11       -3.29963  -0.00010   0.00000  -0.00010  -0.00010  -3.29972
   Z11        5.12930   0.00000   0.00000   0.00000   0.00000   5.12930
   X12        3.86043   0.00003   0.00000   0.00003   0.00003   3.86046
   Y12        1.63312  -0.00001   0.00000  -0.00001  -0.00001   1.63311
   Z12       -2.82569  -0.00004   0.00000  -0.00004  -0.00004  -2.82573
   X13        1.07543   0.00002   0.00000   0.00002   0.00002   1.07545
   Y13        5.21431   0.00000   0.00000   0.00000   0.00000   5.21431
   Z13       -3.05348  -0.00002   0.00000  -0.00002  -0.00002  -3.05351
   X14        1.70510   0.00001   0.00000   0.00001   0.00001   1.70511
   Y14        3.11107   0.00000   0.00000   0.00000   0.00000   3.11107
   Z14        0.92526  -0.00007   0.00000  -0.00007  -0.00007   0.92519
   X15       -3.09160   0.00001   0.00000   0.00001   0.00001  -3.09159
   Y15       -1.55888   0.00004   0.00000   0.00004   0.00004  -1.55884
   Z15        5.94300  -0.00004   0.00000  -0.00004  -0.00004   5.94296
   X16       -2.81134  -0.00001   0.00000  -0.00001  -0.00001  -2.81135
   Y16       -4.93336  -0.00001   0.00000  -0.00001  -0.00001  -4.93336
   Z16        6.22501   0.00002   0.00000   0.00002   0.00002   6.22503
   X17        5.45839  -0.00003   0.00000  -0.00003  -0.00003   5.45836
   Y17        2.98185   0.00001   0.00000   0.00001   0.00001   2.98186
   Z17       -2.59215   0.00002   0.00000   0.00002   0.00002  -2.59213
   X18        4.41092   0.00001   0.00000   0.00001   0.00001   4.41093
   Y18       -0.11361   0.00001   0.00000   0.00001   0.00001  -0.11360
   Z18       -1.80428   0.00000   0.00000   0.00000   0.00000  -1.80428
   X19        3.69564   0.00004   0.00000   0.00004   0.00004   3.69567
   Y19        1.18131   0.00002   0.00000   0.00002   0.00002   1.18133
   Z19       -4.87300   0.00003   0.00000   0.00003   0.00003  -4.87297
   X20        2.67776  -0.00001   0.00000  -0.00001  -0.00001   2.67776
   Y20        6.52256  -0.00002   0.00000  -0.00002  -0.00002   6.52253
   Z20       -2.66714  -0.00001   0.00000  -0.00001  -0.00001  -2.66715
   X21        0.90201  -0.00001   0.00000  -0.00001  -0.00001   0.90199
   Y21        5.01771   0.00001   0.00000   0.00001   0.00001   5.01772
   Z21       -5.14140   0.00003   0.00000   0.00003   0.00003  -5.14136
   X22       -0.67750   0.00001   0.00000   0.00001   0.00001  -0.67749
   Y22        6.13424  -0.00001   0.00000  -0.00001  -0.00001   6.13423
   Z22       -2.34051   0.00000   0.00000   0.00000   0.00000  -2.34051
   X23        3.19353   0.00003   0.00000   0.00003   0.00003   3.19356
   Y23        4.53076   0.00003   0.00000   0.00003   0.00003   4.53079
   Z23        1.36672   0.00001   0.00000   0.00001   0.00001   1.36674
   X24       -0.10740  -0.00001   0.00000  -0.00001  -0.00001  -0.10741
   Y24        3.79701  -0.00002   0.00000  -0.00002  -0.00002   3.79699
   Z24        1.74226   0.00000   0.00000   0.00000   0.00000   1.74226
   X25        2.25549   0.00000   0.00000   0.00000   0.00000   2.25548
   Y25        1.33925  -0.00003   0.00000  -0.00003  -0.00003   1.33922
   Z25        1.90957   0.00001   0.00000   0.00001   0.00001   1.90957
         Item               Value     Threshold  Converged?
 Maximum Force            0.000121     0.000450     YES
 RMS     Force            0.000030     0.000300     YES
 Maximum Displacement     0.000121     0.001800     YES
 RMS     Displacement     0.000030     0.001200     YES
 Predicted change in Energy=-3.418721D-08
 Optimization completed.
    -- Stationary point found.
 GradGradGradGradGradGradGradGradGradGradGradGradGradGradGradGradGradGrad

                          Input orientation:                          
 ---------------------------------------------------------------------
 Center     Atomic     Atomic              Coordinates (Angstroms)
 Number     Number      Type              X           Y           Z
 ---------------------------------------------------------------------
    1          6      10061003       -0.423262   -0.814155   -0.628072
    2          6      10061003       -0.389516    0.571220   -1.309181
    3          1      10011000       -0.424403    0.403675   -2.410421
    4          1      10011000       -1.341897    1.089679   -1.051318
    5          7      10071000        0.780751    1.440704   -0.972203
    6          1      10011000       -1.141925   -1.449381   -1.193927
    7          8      10081000       -0.876936   -0.689741    0.727040
    8          1      10011000        0.566610   -1.311838   -0.669483
    9          6      10061000       -0.979517   -1.813752    1.432894
   10          8      10081002       -0.704508   -2.903388    0.950543
   11          7      10071000       -1.397496   -1.746088    2.714311
   12          6      10061003        2.042852    0.864211   -1.495290
   13          6      10061003        0.569094    2.759295   -1.615833
   14          6      10061003        0.902302    1.646309    0.489627
   15          1      10011000       -1.636005   -0.824926    3.144899
   16          1      10011000       -1.487700   -2.610621    3.294132
   17          1      10011000        2.888457    1.577927   -1.371705
   18          1      10011000        2.334158   -0.060121   -0.954782
   19          1      10011000        1.955646    0.625122   -2.578682
   20          1      10011000        1.417010    3.451588   -1.411391
   21          1      10011000        0.477321    2.655257   -2.720710
   22          1      10011000       -0.358515    3.246100   -1.238545
   23          1      10011000        1.689944    2.397576    0.723239
   24          1      10011000       -0.056833    2.009289    0.921964
   25          1      10011000        1.193552    0.708701    1.010499
 ---------------------------------------------------------------------
                    Distance matrix (angstroms):
                    1          2          3          4          5
     1  C    0.000000
     2  C    1.544122   0.000000
     3  H    2.158675   1.114458   0.000000
     4  H    2.155832   1.114595   1.777514   0.000000
     5  N    2.579237   1.496356   2.143898   2.152932   0.000000
     6  H    1.113635   2.159221   2.329917   2.550912   3.478281
     7  O    1.434443   2.444136   3.353208   2.558336   3.189694
     8  H    1.108716   2.206649   2.637415   3.091194   2.777406
     9  C    2.357158   3.681735   4.471711   3.838299   4.412994
    10  O    2.633632   4.156738   4.723473   4.512016   4.977357
    11  N    3.604047   4.751256   5.641921   4.714300   5.337677
    12  C    3.106558   2.457010   2.671499   3.421181   1.482857
    13  C    3.837967   2.408452   2.677191   2.599651   1.482478
    14  C    3.010025   2.461772   3.422654   2.778629   1.481213
    15  H    3.963101   4.831334   5.817131   4.621736   5.284346
    16  H    4.443422   5.702685   6.538999   5.709327   6.305610
    17  H    4.152412   3.429647   3.665084   4.270472   2.149618
    18  H    2.877269   2.818261   3.153356   3.852888   2.160059
    19  H    3.396411   2.667269   2.396244   3.663666   2.150890
    20  H    4.711343   3.401544   3.698464   3.649635   2.154383
    21  H    4.150543   2.662148   2.445201   2.923604   2.150462
    22  H    4.106402   2.675992   3.075226   2.377446   2.151353
    23  H    4.075156   3.433725   4.273866   3.748561   2.148664
    24  H    3.241715   2.675207   3.717243   2.528026   2.147720
    25  H    2.760089   2.811747   3.796513   3.290097   2.153449
                    6          7          8          9         10
     6  H    0.000000
     7  O    2.082640   0.000000
     8  H    1.792499   2.102643   0.000000
     9  C    2.656940   1.331222   2.657520   0.000000
    10  O    2.627588   2.231573   2.602547   1.222947   0.000000
    11  N    3.927808   2.310000   3.936540   1.349561   2.220463
    12  C    3.947954   3.984807   2.756164   4.988032   5.265442
    13  C    4.562735   4.413152   4.179678   5.710139   6.346205
    14  C    4.073883   2.946046   3.194818   4.050064   4.847063
    15  H    4.411289   2.537814   4.431490   2.083199   3.162735
    16  H    4.648733   3.263859   4.649438   2.087453   2.488275
    17  H    5.043826   4.870856   3.772908   5.859222   6.195515
    18  H    3.751052   3.679141   2.184587   4.444847   4.576890
    19  H    3.976942   4.547548   3.053896   5.536789   5.655283
    20  H    5.533077   5.194774   4.895287   6.446480   7.103892
    21  H    4.669163   4.990992   4.466917   6.272706   6.765600
    22  H    4.760596   4.429800   4.685562   5.755374   6.536667
    23  H    5.147241   4.015024   4.118411   5.036359   5.821106
    24  H    4.197240   2.827601   3.735140   3.965859   4.955269
    25  H    3.869272   2.514539   2.701476   3.356101   4.080858
                   11         12         13         14         15
    11  N    0.000000
    12  C    6.030788   0.000000
    13  C    6.551039   2.403713   0.000000
    14  C    4.663331   2.419179   2.404730   0.000000
    15  H    1.044429   6.157802   6.354028   4.427243   0.000000
    16  H    1.044867   6.890415   7.561360   5.630170   1.798047
    17  H    6.790729   1.113423   2.614321   2.722874   6.829654
    18  H    5.498179   1.109683   3.391393   2.654889   5.757995
    19  H    6.699401   1.112882   2.721084   3.401011   6.911004
    20  H    7.208238   2.663313   1.113565   2.671670   6.954800
    21  H    7.240596   2.675890   1.113552   3.391879   7.140251
    22  H    6.451860   3.392032   1.113457   2.671248   6.117174
    23  H    5.537744   2.719858   2.618856   1.113264   5.225982
    24  H    4.371813   3.400441   2.719321   1.112928   3.932938
    25  H    3.955059   2.650373   3.390060   1.111416   3.861873
                   16         17         18         19         20
    16  H    0.000000
    17  H    7.646223   0.000000
    18  H    6.258189   1.778840   0.000000
    19  H    7.537680   1.798545   1.802742   0.000000
    20  H    8.205465   2.382716   3.658107   3.105093   0.000000
    21  H    8.232199   2.965473   3.733580   2.515365   1.797630
    22  H    7.491422   3.652857   4.273419   3.744441   1.795715
    23  H    6.464437   2.548931   3.044839   3.756977   2.396264
    24  H    5.386848   3.757888   3.677156   4.268549   3.113998
    25  H    4.839627   3.050108   2.398833   3.670149   3.665912
                   21         22         23         24         25
    21  H    0.000000
    22  H    1.801259   0.000000
    23  H    3.660279   2.960537   0.000000
    24  H    3.737869   2.507691   1.800413   0.000000
    25  H    4.268956   3.729009   1.783598   1.806330   0.000000
 Stoichiometry    C6H15N2O2(1+)
 Framework group  C1[X(C6H15N2O2)]
 Deg. of freedom    69
 Full point group                 C1
 Largest Abelian subgroup         C1      NOp   1
 Largest concise Abelian subgroup C1      NOp   1
                         Standard orientation:                         
 ---------------------------------------------------------------------
 Center     Atomic     Atomic              Coordinates (Angstroms)
 Number     Number      Type              X           Y           Z
 ---------------------------------------------------------------------
    1          6      10061003       -0.403653   -0.962026   -0.392247
    2          6      10061003        1.001699   -0.593728   -0.915365
    3          1      10011000        1.484719   -1.534221   -1.267760
    4          1      10011000        0.861591    0.034292   -1.825466
    5          7      10071000        1.904219    0.098306    0.057071
    6          1      10011000       -0.830017   -1.724673   -1.082729
    7          8      10081000       -1.252085    0.194603   -0.393070
    8          1      10011000       -0.355344   -1.416187    0.618028
    9          6      10061000       -2.507859    0.020045    0.012778
   10          8      10081002       -2.923082   -1.074486    0.366601
   11          7      10071000       -3.342254    1.080540    0.034018
   12          6      10061003        2.272363   -0.800756    1.177349
   13          6      10061003        3.143742    0.477806   -0.662166
   14          6      10061003        1.280264    1.328122    0.597651
   15          1      10011000       -3.006408    2.023801   -0.263133
   16          1      10011000       -4.333301    0.975501    0.347928
   17          1      10011000        3.054134   -0.336953    1.820335
   18          1      10011000        1.409247   -1.013838    1.841446
   19          1      10011000        2.672735   -1.768155    0.800061
   20          1      10011000        3.865377    0.989042    0.014523
   21          1      10011000        3.652800   -0.418752   -1.082928
   22          1      10011000        2.923169    1.173649   -1.502961
   23          1      10011000        2.004874    1.905659    1.214699
   24          1      10011000        0.926190    1.989591   -0.224357
   25          1      10011000        0.418485    1.091607    1.258440
 ---------------------------------------------------------------------
 Rotational constants (GHZ):      2.9028607      0.6213479      0.5873138
 1|1|UNPC-UNK|FOpt|UFF|ZDO|C6H15N2O2(1+)|PCUSER|13-Dec-2007|0||# opt uf
 f||Carbachol-C||1,1|C,-0.42326216,-0.8141547414,-0.6280715838|C,-0.389
 5162152,0.5712200924,-1.3091814097|H,-0.4244032052,0.40367497,-2.41042
 09092|H,-1.3418974485,1.0896787064,-1.0513179145|N,0.7807509634,1.4407
 042724,-0.9722028267|H,-1.1419254743,-1.4493814337,-1.1939271245|O,-0.
 8769362258,-0.6897410178,0.7270401521|H,0.5666100376,-1.3118382539,-0.
 6694827987|C,-0.9795169211,-1.8137519586,1.4328938404|O,-0.7045076565,
 -2.9033875796,0.9505429517|N,-1.3974961206,-1.7460880011,2.7143111939|
 C,2.0428524716,0.864210583,-1.4952902348|C,0.5690944983,2.7592948139,-
 1.6158334386|C,0.9023020207,1.6463094028,0.4896266059|H,-1.6360051978,
 -0.82492558,3.1448989867|H,-1.4876996786,-2.610620879,3.2941324233|H,2
 .8884571275,1.5779266408,-1.3717053492|H,2.3341584222,-0.0601210197,-0
 .9547821702|H,1.955646486,0.6251223,-2.5786819735|H,1.417010345,3.4515
 876343,-1.4113909814|H,0.4773214195,2.6552568853,-2.7207099482|H,-0.35
 8515282,3.246100385,-1.2385448748|H,1.6899441068,2.3975758135,0.723239
 2005|H,-0.0568325979,2.0092891678,0.9219639767|H,1.1935515349,0.708700
 7972,1.0104992068||Version=IA32W-G03RevD.01|HF=0.0770642|RMSD=0.000e+0
 00|RMSF=3.019e-005|Thermal=0.|Dipole=0.,0.,0.|PG=C01 [X(C6H15N2O2)]||@


 DEMOCRATS BUY MOST OF THE BOOKS THAT HAVE BEEN
 BANNED; REPUBLICANS FORM CENSORSHIP COMMITTEES AND
 READ THEM AS A GROUP.
 Job cpu time:  0 days  0 hours  0 minutes  4.0 seconds.
 File lengths (MBytes):  RWF=     11 Int=      0 D2E=      0 Chk=      4 Scr=      1
 Normal termination of Gaussian 03 at Thu Dec 13 11:51:32 2007.
