 Entering Link 1 = C:\G03W\l1.exe PID=      4012.
  
 Copyright (c) 1988,1990,1992,1993,1995,1998,2003,2004, Gaussian, Inc.
                  All Rights Reserved.
  
 This is the Gaussian(R) 03 program.  It is based on the
 the Gaussian(R) 98 system (copyright 1998, Gaussian, Inc.),
 the Gaussian(R) 94 system (copyright 1995, Gaussian, Inc.),
 the Gaussian 92(TM) system (copyright 1992, Gaussian, Inc.),
 the Gaussian 90(TM) system (copyright 1990, Gaussian, Inc.),
 the Gaussian 88(TM) system (copyright 1988, Gaussian, Inc.),
 the Gaussian 86(TM) system (copyright 1986, Carnegie Mellon
 University), and the Gaussian 82(TM) system (copyright 1983,
 Carnegie Mellon University). Gaussian is a federally registered
 trademark of Gaussian, Inc.
  
 This software contains proprietary and confidential information,
 including trade secrets, belonging to Gaussian, Inc.
  
 This software is provided under written license and may be
 used, copied, transmitted, or stored only in accord with that
 written license.
  
 The following legend is applicable only to US Government
 contracts under FAR:
  
                    RESTRICTED RIGHTS LEGEND
  
 Use, reproduction and disclosure by the US Government is
 subject to restrictions as set forth in subparagraphs (a)
 and (c) of the Commercial Computer Software - Restricted
 Rights clause in FAR 52.227-19.
  
 Gaussian, Inc.
 340 Quinnipiac St., Bldg. 40, Wallingford CT 06492
  
  
 ---------------------------------------------------------------
 Warning -- This program may not be used in any manner that
 competes with the business of Gaussian, Inc. or will provide
 assistance to any competitor of Gaussian, Inc.  The licensee
 of this program is prohibited from giving any competitor of
 Gaussian, Inc. access to this program.  By using this program,
 the user acknowledges that Gaussian, Inc. is engaged in the
 business of creating and licensing software in the field of
 computational chemistry and represents and warrants to the
 licensee that it is not a competitor of Gaussian, Inc. and that
 it will not use this program in any manner prohibited above.
 ---------------------------------------------------------------
  

 Cite this work as:
 Gaussian 03, Revision D.01,
 M. J. Frisch, G. W. Trucks, H. B. Schlegel, G. E. Scuseria, 
 M. A. Robb, J. R. Cheeseman, J. A. Montgomery, Jr., T. Vreven, 
 K. N. Kudin, J. C. Burant, J. M. Millam, S. S. Iyengar, J. Tomasi, 
 V. Barone, B. Mennucci, M. Cossi, G. Scalmani, N. Rega, 
 G. A. Petersson, H. Nakatsuji, M. Hada, M. Ehara, K. Toyota, 
 R. Fukuda, J. Hasegawa, M. Ishida, T. Nakajima, Y. Honda, O. Kitao, 
 H. Nakai, M. Klene, X. Li, J. E. Knox, H. P. Hratchian, J. B. Cross, 
 V. Bakken, C. Adamo, J. Jaramillo, R. Gomperts, R. E. Stratmann, 
 O. Yazyev, A. J. Austin, R. Cammi, C. Pomelli, J. W. Ochterski, 
 P. Y. Ayala, K. Morokuma, G. A. Voth, P. Salvador, J. J. Dannenberg, 
 V. G. Zakrzewski, S. Dapprich, A. D. Daniels, M. C. Strain, 
 O. Farkas, D. K. Malick, A. D. Rabuck, K. Raghavachari, 
 J. B. Foresman, J. V. Ortiz, Q. Cui, A. G. Baboul, S. Clifford, 
 J. Cioslowski, B. B. Stefanov, G. Liu, A. Liashenko, P. Piskorz, 
 I. Komaromi, R. L. Martin, D. J. Fox, T. Keith, M. A. Al-Laham, 
 C. Y. Peng, A. Nanayakkara, M. Challacombe, P. M. W. Gill, 
 B. Johnson, W. Chen, M. W. Wong, C. Gonzalez, and J. A. Pople, 
 Gaussian, Inc., Wallingford CT, 2004.
 
 ******************************************
 Gaussian 03:  IA32W-G03RevD.01 13-Oct-2005
                13-Dec-2007 
 ******************************************
 ---------
 # opt uff
 ---------
 1/6=10,10=10,14=-1,18=4000020,38=1,56=1,64=2/1,3;
 2/9=110,17=6,18=5,40=1/2;
 3/5=30,11=9,16=1,25=1,30=1/1;
 4/20=10,22=1001,24=3/2;
 7/44=-1/16;
 1/6=10,10=10,14=-1,18=4000020,64=2/3(2);
 2/9=110/2;
 99//99;
 2/9=110/2;
 3/5=30,11=9,16=1,25=1,30=1/1;
 4/16=2,20=10,22=1001,24=3/2;
 7/44=-1/16;
 1/6=10,10=10,14=-1,18=4000020,64=2/3(-4);
 2/9=110/2;
 99//99;
 -----------
 muscarine-C
 -----------
 Symbolic Z-matrix:
 Charge =  1 Multiplicity = 1
 O                    -0.31385   0.46595   1.00075 
 C                     0.89815   0.18195   0.33075 
 C                     0.93015   1.10795  -0.89325 
 C                    -0.70785   1.79495   0.68275 
 C                     0.35715   2.37595  -0.25825 
 O                    -0.21185   3.22995  -1.22125 
 C                    -0.90585   2.61395   1.96375 
 C                     1.11815  -1.32005   0.03975 
 N                     0.00715  -2.23505  -0.28525 
 C                     0.58915  -3.52005  -0.70725 
 C                    -0.83985  -2.50205   0.88175 
 C                    -0.81385  -1.72305  -1.38125 
 H                     0.49215   3.61095  -1.71725 
 H                     0.03515   2.66395   2.55875 
 H                    -1.69485   2.16195   2.60775 
 H                    -0.19885  -4.26805  -0.95725 
 H                     1.22515  -3.40605  -1.61625 
 H                     1.22515  -3.96505   0.09375 
 H                    -1.61485  -3.27005   0.65275 
 H                    -0.24185  -2.88205   1.74275 
 H                    -1.39785  -1.60805   1.23075 
 H                    -1.60485  -2.45305  -1.67125 
 H                    -1.34285  -0.78605  -1.09825 
 H                    -0.19885  -1.52305  -2.28825 
 H                     0.27015   0.74295  -1.71225 
 H                     1.96015   1.25595  -1.29525 
 H                    -1.68385   1.71895   0.13875 
 H                     1.14515   2.93795   0.30075 
 H                     1.86315  -1.33905  -0.79025 
 H                     1.66215  -1.73405   0.92175 
 H                    -1.21585   3.65595   1.72075 
 H                     1.71915   0.50695   0.98575 
 
 I=    9 IAn=  7 Valence= 4.
          JB=  1 J=    8 IAn=  6 IBT= 1 Dist= 1.48D+00
          JB=  2 J=   10 IAn=  6 IBT= 1 Dist= 1.47D+00
          JB=  3 J=   11 IAn=  6 IBT= 1 Dist= 1.47D+00
          JB=  4 J=   12 IAn=  6 IBT= 1 Dist= 1.46D+00
 Include all MM classes
 MMInit generated parameter data with length LenPar=  3719.

 GradGradGradGradGradGradGradGradGradGradGradGradGradGradGradGradGradGrad
 Berny optimization.
 Initialization pass.
 No Z-matrix variables, so optimization will use Cartesian coordinates.
 Trust Radius=1.00D-01 FncErr=1.00D-07 GrdErr=1.00D-07
 Number of steps in this run=   2 maximum allowed number of steps=   2.
 GradGradGradGradGradGradGradGradGradGradGradGradGradGradGradGradGradGrad

                          Input orientation:                          
 ---------------------------------------------------------------------
 Center     Atomic     Atomic              Coordinates (Angstroms)
 Number     Number      Type              X           Y           Z
 ---------------------------------------------------------------------
    1          8      10081003       -0.313845    0.465948    1.000753
    2          6      10061003        0.898155    0.181948    0.330753
    3          6      10061003        0.930155    1.107948   -0.893247
    4          6      10061003       -0.707845    1.794948    0.682753
    5          6      10061003        0.357155    2.375948   -0.258247
    6          8      10081003       -0.211845    3.229948   -1.221247
    7          6      10061003       -0.905845    2.613948    1.963753
    8          6      10061003        1.118155   -1.320052    0.039753
    9          7      10071000        0.007155   -2.235052   -0.285247
   10          6      10061003        0.589155   -3.520052   -0.707247
   11          6      10061003       -0.839845   -2.502052    0.881753
   12          6      10061003       -0.813845   -1.723052   -1.381247
   13          1      10011000        0.492155    3.610948   -1.717247
   14          1      10011000        0.035155    2.663948    2.558753
   15          1      10011000       -1.694845    2.161948    2.607753
   16          1      10011000       -0.198845   -4.268052   -0.957247
   17          1      10011000        1.225155   -3.406052   -1.616247
   18          1      10011000        1.225155   -3.965052    0.093753
   19          1      10011000       -1.614845   -3.270052    0.652753
   20          1      10011000       -0.241845   -2.882052    1.742753
   21          1      10011000       -1.397845   -1.608052    1.230753
   22          1      10011000       -1.604845   -2.453052   -1.671247
   23          1      10011000       -1.342845   -0.786052   -1.098247
   24          1      10011000       -0.198845   -1.523052   -2.288247
   25          1      10011000        0.270155    0.742948   -1.712247
   26          1      10011000        1.960155    1.255948   -1.295247
   27          1      10011000       -1.683845    1.718948    0.138753
   28          1      10011000        1.145155    2.937948    0.300753
   29          1      10011000        1.863155   -1.339052   -0.790247
   30          1      10011000        1.662155   -1.734052    0.921753
   31          1      10011000       -1.215845    3.655948    1.720753
   32          1      10011000        1.719155    0.506948    0.985753
 ---------------------------------------------------------------------
                    Distance matrix (angstroms):
                    1          2          3          4          5
     1  O    0.000000
     2  C    1.413683   0.000000
     3  C    2.355193   1.535147   0.000000
     4  C    1.422182   2.303239   2.374613   0.000000
     5  C    2.383993   2.335217   1.529503   1.535339   0.000000
     6  O    3.547870   3.595985   2.432002   2.435253   1.407283
     7  C    2.427290   3.440309   3.715021   1.533273   2.566924
     8  C    2.482729   1.545667   2.607876   3.667554   3.785280
     9  N    3.008694   2.648627   3.520972   4.205847   4.624343
    10  C    4.429545   3.857166   4.644272   5.644779   5.917621
    11  C    3.016598   3.244704   4.394954   4.303630   5.150465
    12  C    3.273476   3.080733   3.360691   4.080154   4.408420
    13  H    4.234169   4.014621   2.671297   3.240040   1.916281
    14  H    2.716683   3.445153   3.890818   2.196949   2.849933
    15  H    2.714042   3.978540   4.500949   2.194193   3.531353
    16  H    5.124231   4.760762   5.493643   6.301480   6.703766
    17  H    4.920325   4.095300   4.581042   6.006021   6.002426
    18  H    4.777544   4.166618   5.176536   6.104180   6.409806
    19  H    3.971322   4.281957   5.294717   5.145656   6.049465
    20  H    3.429993   3.561101   4.923635   4.818204   5.657682
    21  H    2.351474   3.047247   4.160242   3.515226   4.601022
    22  H    4.162550   4.149245   4.439846   4.938768   5.400486
    23  H    2.651819   2.828630   2.965770   3.199492   3.686983
    24  H    3.845370   3.312038   3.184781   4.482750   4.430828
    25  H    2.788934   2.209741   1.113367   2.792707   2.188235
    26  H    3.326679   2.219278   1.115530   3.364703   2.213454
    27  H    2.046937   3.010973   2.875994   1.119950   2.180582
    28  H    2.954567   2.767209   2.195623   2.210426   1.117707
    29  H    3.347392   2.121628   2.620860   4.312972   4.043796
    30  H    2.958178   2.145701   3.450654   4.257683   4.470741
    31  H    3.392360   4.297647   4.234456   2.190623   2.833579
    32  H    2.033469   1.099405   2.124703   2.764251   2.625974
                    6          7          8          9         10
     6  O    0.000000
     7  C    3.317426   0.000000
     8  C    4.905254   4.824387   0.000000
     9  N    5.548899   5.422580   1.475524   0.000000
    10  C    6.816766   6.855306   2.382824   1.472424   0.000000
    11  C    6.137819   5.229583   2.437181   1.466488   2.367126
    12  C    4.992015   5.477870   2.431928   1.461985   2.377371
    13  H    0.941697   4.061794   5.271972   6.038341   7.202824
    14  H    3.830113   1.114453   4.836373   5.664744   7.015378
    15  H    4.242777   1.114254   5.160612   5.531714   6.963548
    16  H    7.502657   7.509595   3.379231   2.151072   1.114876
    17  H    6.801286   7.321063   2.665555   2.150890   1.115246
    18  H    7.454007   7.163889   2.647714   2.149434   1.115402
    19  H    6.908711   6.069832   3.412852   2.140550   2.601868
    20  H    6.792845   5.540375   2.681353   2.143220   2.664602
    21  H    5.552040   4.313309   2.798514   2.159956   3.370424
    22  H    5.868512   6.275055   3.409683   2.137069   2.623246
    23  H    4.174032   4.596391   2.763462   2.140811   3.370499
    24  H    4.871311   5.974456   2.682402   2.135741   2.666180
    25  H    2.580421   4.289125   2.836296   3.312700   4.391464
    26  H    2.935939   4.547439   3.021087   4.125699   5.003555
    27  H    2.509881   2.176450   4.134795   4.321270   5.773159
    28  H    2.059902   2.660291   4.266077   5.329012   6.559799
    29  H    5.036581   5.556805   1.115476   2.121928   2.527197
    30  H    5.722379   5.156112   1.115910   2.108761   2.644762
    31  H    3.137651   1.113963   5.747512   6.342211   7.787694
    32  H    4.001792   3.505219   2.143373   3.473464   4.512192
                   11         12         13         14         15
    11  C    0.000000
    12  C    2.393467   0.000000
    13  H    6.774791   5.501826   0.000000
    14  H    5.501410   5.957363   4.403389   0.000000
    15  H    5.046087   5.637509   5.058478   1.802028   0.000000
    16  H    2.628984   2.652362   7.945673   7.776222   7.502809
    17  H    3.364736   2.654286   7.055904   7.462682   7.574378
    18  H    2.650573   3.370417   7.823860   7.171887   7.237867
    19  H    1.114850   2.678053   7.576576   6.447301   5.773651
    20  H    1.115045   3.380805   7.393876   5.612549   5.319903
    21  H    1.110136   2.678960   6.284963   4.697559   4.024579
    22  H    2.665602   1.114756   6.416512   6.838581   6.294137
    23  H    2.667970   1.112609   4.804581   5.212968   4.748583
    24  H    3.379086   1.113945   5.211667   6.409301   6.307778
    25  H    4.300112   2.713996   2.876584   4.689020   4.953502
    26  H    5.167387   4.071476   2.806979   4.532263   5.423400
    27  H    4.368206   3.861951   3.429195   3.115186   2.508452
    28  H    5.819913   5.328389   2.225233   2.530956   3.740324
    29  H    3.384429   2.768224   5.219336   5.530045   6.038441
    30  H    2.617523   3.381495   6.074722   4.966820   5.412103
    31  H    6.226256   6.222351   3.839158   1.803139   1.802289
    32  H    3.951377   4.122096   4.294945   3.156396   4.126173
                   16         17         18         19         20
    16  H    0.000000
    17  H    1.790280   0.000000
    18  H    1.795602   1.799050   0.000000
    19  H    2.364986   3.637644   2.976761   0.000000
    20  H    3.035267   3.702640   2.458491   1.795487   0.000000
    21  H    3.646991   4.268295   3.705178   1.772968   1.794869
    22  H    2.404341   2.986659   3.662003   2.463446   3.700974
    23  H    3.667825   3.705044   4.256939   3.051269   3.698202
    24  H    3.050670   2.454598   3.696629   3.702235   4.254138
    25  H    5.089215   4.258573   5.132146   5.024999   5.033865
    26  H    5.940547   4.730487   5.452374   6.087693   5.585812
    27  H    6.265031   6.148815   6.385308   5.015883   5.081474
    28  H    7.437428   6.627792   6.906566   6.802997   6.154310
    29  H    3.585913   2.315558   2.843304   4.231725   3.637027
    30  H    3.662665   3.070504   2.419486   3.629103   2.370055
    31  H    8.425898   8.183269   8.166104   7.019209   6.610189
    32  H    5.500418   4.725041   4.586773   5.048978   3.987968
                   21         22         23         24         25
    21  H    0.000000
    22  H    3.029600   0.000000
    23  H    2.470415   1.782095   0.000000
    24  H    3.718627   1.795111   1.807762   0.000000
    25  H    4.119548   3.705634   2.305777   2.384637   0.000000
    26  H    5.085208   5.158225   3.888236   3.656524   1.814706
    27  H    3.513287   4.548398   2.814512   4.313481   2.863022
    28  H    5.291301   6.365074   4.692070   5.330082   3.104162
    29  H    3.845897   3.747557   3.267891   2.555329   2.778931
    30  H    3.078142   4.232481   3.742877   3.716442   3.874422
    31  H    5.289888   6.998347   5.262533   6.627851   4.741229
    32  H    3.774777   5.183650   3.923105   4.303336   3.071563
                   26         27         28         29         30
    26  H    0.000000
    27  H    3.943280   0.000000
    28  H    2.457756   3.084712   0.000000
    29  H    2.645460   4.774475   4.471972   0.000000
    30  H    3.734166   4.871551   4.741362   1.768437   0.000000
    31  H    4.994320   2.544350   2.847147   6.382428   6.162255
    32  H    2.412891   3.710359   2.590070   2.565663   2.242638
                   31         32
    31  H    0.000000
    32  H    4.366996   0.000000
 Stoichiometry    C9H20NO2(1+)
 Framework group  C1[X(C9H20NO2)]
 Deg. of freedom    90
 Full point group                 C1
 Largest Abelian subgroup         C1      NOp   1
 Largest concise Abelian subgroup C1      NOp   1
                         Standard orientation:                         
 ---------------------------------------------------------------------
 Center     Atomic     Atomic              Coordinates (Angstroms)
 Number     Number      Type              X           Y           Z
 ---------------------------------------------------------------------
    1          8      10081003       -0.586325    0.976578   -0.140109
    2          6      10061003       -0.171099   -0.102432   -0.953634
    3          6      10061003       -0.956956   -1.326688   -0.463426
    4          6      10061003       -1.891437    0.698416    0.351735
    5          6      10061003       -2.313251   -0.665293   -0.213628
    6          8      10081003       -3.086012   -1.393227    0.710168
    7          6      10061003       -2.852686    1.836204   -0.012087
    8          6      10061003        1.362679   -0.278024   -1.029658
    9          7      10071000        2.250287    0.006424    0.114201
   10          6      10061003        3.600951   -0.465211   -0.234078
   11          6      10061003        2.346942    1.444195    0.386336
   12          6      10061003        1.818748   -0.694299    1.322573
   13          1      10011000       -3.375394   -2.180994    0.282997
   14          1      10011000       -2.919104    1.969038   -1.116601
   15          1      10011000       -2.513043    2.801289    0.429289
   16          1      10011000        4.330920   -0.269201    0.585479
   17          1      10011000        3.617774   -1.563941   -0.424557
   18          1      10011000        3.988455    0.040179   -1.149799
   19          1      10011000        3.095159    1.655993    1.185212
   20          1      10011000        2.661526    2.011804   -0.520406
   21          1      10011000        1.393577    1.886604    0.743788
   22          1      10011000        2.535006   -0.535136    2.161812
   23          1      10011000        0.831264   -0.328564    1.681756
   24          1      10011000        1.748908   -1.792621    1.150275
   25          1      10011000       -0.539481   -1.741783    0.481558
   26          1      10011000       -1.008715   -2.139479   -1.225725
   27          1      10011000       -1.806464    0.629272    1.466314
   28          1      10011000       -2.891853   -0.561324   -1.164248
   29          1      10011000        1.508527   -1.335792   -1.352369
   30          1      10011000        1.706039    0.335251   -1.896407
   31          1      10011000       -3.876693    1.624258    0.371841
   32          1      10011000       -0.523072    0.102162   -1.974881
 ---------------------------------------------------------------------
 Rotational constants (GHZ):      1.7478249      0.5291464      0.4744322
 Standard basis: Dummy (5D, 7F)
 There are    32 symmetry adapted basis functions of A   symmetry.
 Integral buffers will be    262144 words long.
 Raffenetti 1 integral format.
 Two-electron integral symmetry is turned on.
    32 basis functions,    32 primitive gaussians,    32 cartesian basis functions
    21 alpha electrons       21 beta electrons
       nuclear repulsion energy       155.3070886018 Hartrees.
 NAtoms=   32 NActive=   32 NUniq=   32 SFac= 7.50D-01 NAtFMM=   80 NAOKFM=F Big=F
 UFF calculation of energy and first derivatives.
 MO and density RWFs will be updated without deorthogonalization.
 NRF= 0 NRA=   0 NVA=  32 HaveQM=F
 Convergence limit is  0.750E-04 MaxStp=  5000 StMxLn= 1.00D-04 StpMin= 1.00D-06.
 Convergence criteria           0.00011250 0.00007500 0.00045000 0.00030000
  Step  NS  ND Rises OKQ   Scale  Max. Force  RMS Force Max. Disp.  RMS Disp.     Energy   Flag
     1   0   0   F    T  1.00D+00 0.04458062 0.01072254 0.04458062 0.01072254    0.1058267 ----
     2   0   0   F    F -3.29D-02 0.04458062 0.01072254 0.04458062 0.01072254    0.1004978 ----
     3   0   0   F    T  3.38D+00 0.00973800 0.00295883 0.01069746 0.00306942    0.1004916 ----
     4   0   0   T    F  4.72D-01 0.00973800 0.00295883 0.03613922 0.01036942    0.1006588 ----
     5   0   0   F    T  1.44D+00 0.01031692 0.00253774 0.00937037 0.00339548    0.0998213 ----
     6   0   0   F    F  4.87D-01 0.01031692 0.00253774 0.01351242 0.00489641    0.0992297 ----
     7   0   0   F    T  2.22D+00 0.00990521 0.00216156 0.00892347 0.00327708    0.0991586 ----
     8   0   0   F    F -2.73D-01 0.00990521 0.00216156 0.01982900 0.00728206    0.0988476 ----
     9   0   0   F    T  2.00D+00 0.00498878 0.00169751 0.00787123 0.00264110    0.0987963 ----
    10   0   0   F    F  9.80D-02 0.00498878 0.00169751 0.01577099 0.00529177    0.0984943 ----
    11   0   0   F    T  2.87D+00 0.00375247 0.00130299 0.00761260 0.00202534    0.0984918 ----
    12   0   0   F    F -1.83D-01 0.00375247 0.00130299 0.02184007 0.00581056    0.0983106 ----
    13   0   0   F    T  1.99D+00 0.00534215 0.00129707 0.00896514 0.00239017    0.0983010 ----
    14   0   0   F    F  3.24D-01 0.00534215 0.00129707 0.01780100 0.00474587    0.0981015 ----
    15   0   0   F    T  2.37D+00 0.00578674 0.00127679 0.00806530 0.00265317    0.0980888 ----
    16   0   0   F    F -2.19D-01 0.00578674 0.00127679 0.01910045 0.00628330    0.0979555 ----
    17   0   0   F    T  1.99D+00 0.00309049 0.00115649 0.00818636 0.00246398    0.0979441 ----
    18   0   0   F    F  5.27D-01 0.00309049 0.00115649 0.01629811 0.00490551    0.0977722 ----
    19   0   0   F    T  1.84D+00 0.00462082 0.00143737 0.01359930 0.00406574    0.0977489 ----
    20   0   0   F    F  3.61D-01 0.00462082 0.00143737 0.02505534 0.00749072    0.0975169 ----
    21   0   0   F    T  2.43D+00 0.00616436 0.00142439 0.01395770 0.00419637    0.0974993 ----
    22   0   0   F    F -1.04D-02 0.00616436 0.00142439 0.03390396 0.01019321    0.0972651 ----
    23   0   0   F    T  1.78D+00 0.00485038 0.00163022 0.02222330 0.00568138    0.0972651 ----
    24   0   0   F    F  4.73D-01 0.00485038 0.00163022 0.03945883 0.01008764    0.0969663 ----
    25   0   0   F    T  2.95D+00 0.00443624 0.00149498 0.02021445 0.00503358    0.0969321 ----
    26   0   0   F    F -2.00D-01 0.00443624 0.00149498 0.05968503 0.01486210    0.0966951 ----
    27   0   0   F    T  3.08D+00 0.00417136 0.00126383 0.01511662 0.00386596    0.0966793 ----
    28   0   0   F    F -1.34D-01 0.00417136 0.00126383 0.04648637 0.01188853    0.0964805 ----
    29   0   0   F    T  2.84D+00 0.00400902 0.00118297 0.01290065 0.00362102    0.0964756 ----
    30   0   0   F    F -1.53D-02 0.00400902 0.00118297 0.03666398 0.01029104    0.0962876 ----
    31   0   0   F    T  2.66D+00 0.00328612 0.00117917 0.01331243 0.00380503    0.0962876 ----
    32   0   0   F    F -1.72D-02 0.00328612 0.00117917 0.03545312 0.01013341    0.0961125 ----
    33   0   0   F    T  2.80D+00 0.00528333 0.00111584 0.01182893 0.00356237    0.0961124 ----
    34   0   0   F    F -2.18D-01 0.00528333 0.00111584 0.03306807 0.00995868    0.0959920 ----
    35   0   0   F    T  1.84D+00 0.00449410 0.00119295 0.01409024 0.00422604    0.0959819 ----
    36   0   0   F    F  3.17D-01 0.00449410 0.00119295 0.02596100 0.00778639    0.0958259 ----
    37   0   0   F    T  2.60D+00 0.00482381 0.00112508 0.01310224 0.00394840    0.0958164 ----
    38   0   0   F    F -2.98D-01 0.00482381 0.00112508 0.03402701 0.01025414    0.0957254 ----
    39   0   0   F    T  2.17D+00 0.00292096 0.00100733 0.01096633 0.00332612    0.0957055 ----
    40   0   0   F    F  2.16D-01 0.00292096 0.00100733 0.02374967 0.00720334    0.0955814 ----
    41   0   0   F    T  2.77D+00 0.00275045 0.00095885 0.00979410 0.00316733    0.0955773 ----
    42   0   0   F    F -1.41D-01 0.00275045 0.00095885 0.02708773 0.00875995    0.0954755 ----
    43   0   0   F    T  2.78D+00 0.00371181 0.00085863 0.00780547 0.00271132    0.0954727 ----
    44   0   0   F    F -1.89D-01 0.00371181 0.00085863 0.02166788 0.00752659    0.0953974 ----
    45   0   0   F    T  2.45D+00 0.00316167 0.00079702 0.00706795 0.00248796    0.0953931 ----
    46   0   0   F    F -4.08D-01 0.00316167 0.00079702 0.01734518 0.00610562    0.0953697 ----
    47   0   0   F    T  2.53D+00 0.00247057 0.00057815 0.00426084 0.00142989    0.0953487 ----
    48   0   0   F    F -1.20D-01 0.00247057 0.00057815 0.01077799 0.00361697    0.0953136 ----
    49   0   0   F    T  3.09D+00 0.00159119 0.00046454 0.00373406 0.00103109    0.0953130 ----
    50   0   0   F    F  2.19D-01 0.00159119 0.00046454 0.01153213 0.00318438    0.0952753 ----
    51   0   0   F    T  2.18D+00 0.00173346 0.00059240 0.00601096 0.00177759    0.0952740 ----
    52   0   0   F    F -3.64D-02 0.00173346 0.00059240 0.01312344 0.00388093    0.0952386 ----
    53   0   0   F    T  2.56D+00 0.00153130 0.00051930 0.00433290 0.00146034    0.0952386 ----
    54   0   0   F    F -2.87D-01 0.00153130 0.00051930 0.01109568 0.00373964    0.0952188 ----
    55   0   0   F    T  2.68D+00 0.00168248 0.00040950 0.00311478 0.00099370    0.0952149 ----
    56   0   0   F    F  3.85D-01 0.00168248 0.00040950 0.00835521 0.00266553    0.0951873 ----
    57   0   0   F    T  2.96D+00 0.00126024 0.00044354 0.00437938 0.00124661    0.0951850 ----
    58   0   0   F    F  5.73D-02 0.00126024 0.00044354 0.01297233 0.00369263    0.0951555 ----
    59   0   0   F    T  1.70D+00 0.00214575 0.00059158 0.00853793 0.00229855    0.0951555 ----
    60   0   0   F    F  9.30D-02 0.00214575 0.00059158 0.01450150 0.00390404    0.0951245 ----
    61   0   0   F    T  2.04D+00 0.00152474 0.00055418 0.00856725 0.00209001    0.0951243 ----
    62   0   0   F    F  2.66D-01 0.00152474 0.00055418 0.01749129 0.00426707    0.0950879 ----
    63   0   0   F    T  3.50D+00 0.00152325 0.00046602 0.00656312 0.00154476    0.0950862 ----
    64   0   0   F    F -2.28D-01 0.00152325 0.00046602 0.02295018 0.00540179    0.0950605 ----
    65   0   0   F    T  2.01D+00 0.00210154 0.00052959 0.00835349 0.00207143    0.0950581 ----
    66   0   0   F    F  6.76D-02 0.00210154 0.00052959 0.01682114 0.00417118    0.0950292 ----
    67   0   0   F    T  2.87D+00 0.00122194 0.00044913 0.00653330 0.00155021    0.0950290 ----
    68   0   0   F    F -2.68D-01 0.00122194 0.00044913 0.01876840 0.00445332    0.0950114 ----
    69   0   0   F    T  1.86D+00 0.00155647 0.00047014 0.00785289 0.00175442    0.0950087 ----
    70   0   0   F    F  4.46D-01 0.00155647 0.00047014 0.01458377 0.00325817    0.0949829 ----
    71   0   0   F    T  2.01D+00 0.00207653 0.00053552 0.01038422 0.00233990    0.0949802 ----
    72   0   0   F    F  4.44D-02 0.00207653 0.00053552 0.02090387 0.00471031    0.0949513 ----
    73   0   0   F    T  4.24D+00 0.00123260 0.00036553 0.00529794 0.00115938    0.0949513 ----
    74   0   0   F    F -4.17D-01 0.00123260 0.00036553 0.02248038 0.00491950    0.0949436 ----
    75   0   0   F    T  2.59D+00 0.00119178 0.00034799 0.00519875 0.00110480    0.0949354 ----
    76   0   0   F    F  7.55D-02 0.00119178 0.00034799 0.01348922 0.00286663    0.0949193 ----
    77   0   0   F    T  2.10D+00 0.00118981 0.00039343 0.00665594 0.00146973    0.0949192 ----
    78   0   0   F    F  3.19D-01 0.00118981 0.00039343 0.01396221 0.00308307    0.0948998 ----
    79   0   0   F    T  3.13D+00 0.00171542 0.00036169 0.00619576 0.00129797    0.0948986 ----
    80   0   0   F    F -3.40D-01 0.00171542 0.00036169 0.01941634 0.00406759    0.0948891 ----
    81   0   0   F    T  1.65D+00 0.00194347 0.00039939 0.00812249 0.00162396    0.0948856 ----
    82   0   0   F    F  2.22D-01 0.00194347 0.00039939 0.01342286 0.00268367    0.0948707 ----
    83   0   0   F    T  3.98D+00 0.00100626 0.00027637 0.00416962 0.00082307    0.0948702 ----
    84   0   0   F    F -4.67D-01 0.00100626 0.00027637 0.01661044 0.00327886    0.0948684 ----
    85   0   0   F    T  1.94D+00 0.00124472 0.00028161 0.00457140 0.00089940    0.0948624 ----
    86   0   0   F    F  3.13D-01 0.00124472 0.00028161 0.00887689 0.00174649    0.0948532 ----
    87   0   0   F    T  2.33D+00 0.00095626 0.00028837 0.00495310 0.00098424    0.0948527 ----
    88   0   0   F    F  3.29D-01 0.00095626 0.00028837 0.01154395 0.00229391    0.0948411 ----
    89   0   0   F    T  1.60D+00 0.00143805 0.00039647 0.00945116 0.00190066    0.0948403 ----
    90   0   0   F    F  7.67D-01 0.00143805 0.00039647 0.01515621 0.00304797    0.0948230 ----
    91   0   0   F    T  3.62D+00 0.00106390 0.00034436 0.00716278 0.00148774    0.0948190 ----
    92   0   0   T    F  3.71D-01 0.00106390 0.00034436 0.02592848 0.00538546    0.0948332 ----
    93   0   0   F    T  2.72D+00 0.00079629 0.00023516 0.00328673 0.00073589    0.0948114 ----
    94   0   0   F    F  2.74D-01 0.00079629 0.00023516 0.00893509 0.00200053    0.0948026 ----
    95   0   0   F    T  1.60D+00 0.00113422 0.00034234 0.00690297 0.00159784    0.0948022 ----
    96   0   0   F    F  4.99D-01 0.00113422 0.00034234 0.01101045 0.00254860    0.0947902 ----
    97   0   0   F    T  4.38D+00 0.00075645 0.00024814 0.00362645 0.00087168    0.0947887 ----
    98   0   0   T    F  3.75D-01 0.00075645 0.00024814 0.01589519 0.00382069    0.0947973 ----
    99   0   0   F    T  2.28D+00 0.00085632 0.00020530 0.00252413 0.00062939    0.0947838 ----
   100   0   0   F    F  7.32D-01 0.00085632 0.00020530 0.00575307 0.00143452    0.0947773 ----
   101   0   0   F    T  2.95D+00 0.00069773 0.00023294 0.00307205 0.00084286    0.0947759 ----
   102   0   0   F    F -1.34D-01 0.00069773 0.00023294 0.00905624 0.00248472    0.0947694 ----
   103   0   0   F    T  2.98D+00 0.00075660 0.00021085 0.00238657 0.00072210    0.0947692 ----
   104   0   0   F    F -1.86D-01 0.00075660 0.00021085 0.00711263 0.00215206    0.0947643 ----
   105   0   0   F    T  2.24D+00 0.00106772 0.00021539 0.00261239 0.00078375    0.0947640 ----
   106   0   0   F    F -1.33D-01 0.00106772 0.00021539 0.00584072 0.00175229    0.0947598 ----
   107   0   0   F    T  1.53D+00 0.00118400 0.00023862 0.00328985 0.00099089    0.0947597 ----
   108   0   0   F    F  7.91D-01 0.00118400 0.00023862 0.00504276 0.00151886    0.0947537 ----
   109   0   0   F    T  6.31D+00 0.00050760 0.00015245 0.00138648 0.00043078    0.0947522 ----
   110   0   0   T    F  3.02D-01 0.00050760 0.00015245 0.00875402 0.00271990    0.0947614 ----
   111   0   0   F    T  2.82D+00 0.00047457 0.00011972 0.00092588 0.00029101    0.0947501 ---+
   112   0   0   F    F  5.71D-02 0.00047457 0.00011972 0.00261407 0.00082163    0.0947480 ----
   113   0   0   F    T  1.85D+00 0.00043772 0.00014825 0.00150129 0.00047019    0.0947480 ----
   114   0   0   F    F  1.72D-01 0.00043772 0.00014825 0.00277309 0.00086851    0.0947458 ----
   115   0   0   F    T  2.07D+00 0.00061313 0.00014789 0.00158726 0.00049118    0.0947457 ----
   116   0   0   F    T  3.76D+00 0.00037098 0.00010593 0.00093335 0.00027084    0.0947435 ---+
   117   0   0   F    F -3.97D-01 0.00037098 0.00010593 0.00350844 0.00101809    0.0947429 ----
   118   0   0   F    T  1.82D+00 0.00032917 0.00011415 0.00123664 0.00033760    0.0947423 ----
   119   0   0   F    F  5.85D-01 0.00032917 0.00011415 0.00224813 0.00061374    0.0947408 ----
   120   0   0   F    T  2.10D+00 0.00039367 0.00013165 0.00176352 0.00046399    0.0947405 ----
   121   0   0   F    F  3.41D-01 0.00039367 0.00013165 0.00369775 0.00097290    0.0947383 ----
   122   0   0   F    T  2.53D+00 0.00057156 0.00013632 0.00197723 0.00051555    0.0947382 ----
   123   0   0   F    F  4.01D-02 0.00057156 0.00013632 0.00500496 0.00130502    0.0947358 ----
   124   0   0   F    T  2.04D+00 0.00041770 0.00015281 0.00249683 0.00066456    0.0947358 ----
   125   0   0   F    F  2.16D-01 0.00041770 0.00015281 0.00509951 0.00135729    0.0947331 ----
   126   0   0   F    T  3.02D+00 0.00034137 0.00013645 0.00204671 0.00054634    0.0947330 ----
   127   0   0   F    F -2.22D-01 0.00034137 0.00013645 0.00618133 0.00165001    0.0947311 ----
   128   0   0   F    T  1.71D+00 0.00068614 0.00015789 0.00281317 0.00075003    0.0947309 ----
   129   0   0   F    F  2.60D-01 0.00068614 0.00015789 0.00481652 0.00128416    0.0947285 ----
   130   0   0   F    T  2.45D+00 0.00038737 0.00014604 0.00245660 0.00065950    0.0947284 ----
   131   0   0   F    F -5.99D-02 0.00038737 0.00014604 0.00602471 0.00161740    0.0947260 ----
   132   0   0   F    T  2.70D+00 0.00039916 0.00013320 0.00209180 0.00056346    0.0947260 ----
   133   0   0   F    F -2.69D-01 0.00039916 0.00013320 0.00564473 0.00152050    0.0947246 ----
   134   0   0   F    T  2.55D+00 0.00051373 0.00011497 0.00158170 0.00043529    0.0947243 ----
   135   0   0   F    F  1.47D-01 0.00051373 0.00011497 0.00403987 0.00111179    0.0947225 ----
   136   0   0   F    T  2.98D+00 0.00047201 0.00011186 0.00151425 0.00042753    0.0947225 ----
   137   0   0   F    F -2.27D-01 0.00047201 0.00011186 0.00451661 0.00127522    0.0947212 ----
   138   0   0   F    T  2.83D+00 0.00058038 0.00009906 0.00122968 0.00034880    0.0947211 ----
   139   0   0   F    F -4.30D-01 0.00058038 0.00009906 0.00347680 0.00098620    0.0947208 ----
   140   0   0   F    T  1.83D+00 0.00032238 0.00009079 0.00107532 0.00030636    0.0947203 ----
   141   0   0   F    F  5.38D-01 0.00032238 0.00009079 0.00197208 0.00056185    0.0947193 ----
   142   0   0   F    T  4.05D+00 0.00031077 0.00007337 0.00070637 0.00021323    0.0947192 -+-+
   143   0   0   F    F -3.52D-01 0.00031077 0.00007337 0.00286297 0.00086423    0.0947187 -+--
   144   0   0   F    T  2.21D+00 0.00026898 0.00007797 0.00083238 0.00025318    0.0947185 ---+
   145   0   0   F    T  3.60D+00 0.00021473 0.00006065 0.00054916 0.00015542    0.0947179 -+-+
   146   0   0   F    F -4.33D-01 0.00021473 0.00006065 0.00197727 0.00055959    0.0947177 -+--
   147   0   0   F    T  2.33D+00 0.00013546 0.00005248 0.00050637 0.00013643    0.0947175 -+-+
   148   0   0   F    F  4.05D-01 0.00013546 0.00005248 0.00117803 0.00031739    0.0947171 -+--
   149   0   0   F    T  1.56D+00 0.00035424 0.00007554 0.00105079 0.00028515    0.0947170 ---+
   150   0   0   F    F  2.94D-01 0.00035424 0.00007554 0.00164344 0.00044598    0.0947165 ----
   151   0   0   F    T  2.08D+00 0.00030351 0.00007319 0.00099745 0.00027722    0.0947165 -+-+
   152   0   0   F    F  3.18D-01 0.00030351 0.00007319 0.00207656 0.00057713    0.0947158 -+--
   153   0   0   F    T  3.48D+00 0.00025902 0.00006359 0.00075588 0.00021860    0.0947158 -+-+
   154   0   0   F    F -2.37D-01 0.00025902 0.00006359 0.00262933 0.00076039    0.0947153 -+--
   155   0   0   F    T  1.93D+00 0.00021043 0.00007347 0.00098601 0.00030105    0.0947153 -+--
   156   0   0   F    F  2.62D-01 0.00021043 0.00007347 0.00190140 0.00058054    0.0947147 -+--
   157   0   0   F    T  2.36D+00 0.00026125 0.00007348 0.00097479 0.00031033    0.0947146 -+--
   158   0   0   F    F  7.07D-02 0.00026125 0.00007348 0.00230040 0.00073235    0.0947140 -+--
   159   0   0   F    T  2.87D+00 0.00017831 0.00006782 0.00080725 0.00027310    0.0947140 -+-+
   160   0   0   F    F -3.54D-01 0.00017831 0.00006782 0.00231775 0.00078411    0.0947137 -+--
   161   0   0   F    T  3.83D+00 0.00015683 0.00004572 0.00039091 0.00013240    0.0947136 -+++
   162   0   0   F    F -3.05D-01 0.00015683 0.00004572 0.00149601 0.00050668    0.0947134 -+--
   163   0   0   F    T  1.81D+00 0.00028060 0.00005437 0.00055891 0.00019495    0.0947133 -+-+
   164   0   0   F    T  3.10D+00 0.00020148 0.00004223 0.00031547 0.00011371    0.0947130 -+++
   165   0   0   F    F -3.80D-01 0.00020148 0.00004223 0.00097741 0.00035228    0.0947129 -+--
   166   0   0   F    T  2.53D+00 0.00008973 0.00003292 0.00026236 0.00008623    0.0947129 ====
 Energy=    0.094712860370 NIter=   0.
 Dipole moment=       0.000000       0.000000       0.000000
 ***** Axes restored to original set *****
 -------------------------------------------------------------------
 Center     Atomic                   Forces (Hartrees/Bohr)
 Number     Number              X              Y              Z
 -------------------------------------------------------------------
    1          8           0.000000080    0.000021198    0.000035762
    2          6           0.000084315   -0.000079451   -0.000061182
    3          6          -0.000040081    0.000034733    0.000012455
    4          6          -0.000052793   -0.000028847   -0.000001509
    5          6           0.000067528    0.000039835   -0.000016168
    6          8           0.000008390   -0.000014173    0.000014125
    7          6           0.000039732   -0.000000083   -0.000000680
    8          6           0.000037938    0.000032425   -0.000066981
    9          7           0.000026621   -0.000043167   -0.000044021
   10          6          -0.000001995    0.000035067    0.000044880
   11          6           0.000048865   -0.000012932   -0.000031155
   12          6           0.000054614   -0.000002317    0.000027237
   13          1           0.000027016   -0.000005736    0.000006515
   14          1          -0.000032083   -0.000022370    0.000002983
   15          1          -0.000029536   -0.000010813   -0.000014168
   16          1          -0.000042232   -0.000041388   -0.000004809
   17          1          -0.000000396   -0.000026473    0.000036503
   18          1          -0.000012490   -0.000020365    0.000024122
   19          1           0.000019743    0.000005827    0.000011474
   20          1          -0.000025940    0.000059625   -0.000031239
   21          1          -0.000038653   -0.000026475    0.000005914
   22          1          -0.000002338    0.000039065   -0.000003284
   23          1          -0.000005600    0.000016706    0.000021033
   24          1          -0.000021221    0.000042646    0.000068342
   25          1          -0.000038714   -0.000018984    0.000001208
   26          1           0.000031286    0.000000387   -0.000020297
   27          1           0.000021901   -0.000003996    0.000001104
   28          1          -0.000003185   -0.000038546    0.000029417
   29          1          -0.000058387    0.000032423   -0.000008810
   30          1           0.000029278   -0.000028485   -0.000018654
   31          1          -0.000040956    0.000005408   -0.000009781
   32          1          -0.000050707    0.000059257   -0.000010337
 -------------------------------------------------------------------
 Cartesian Forces:  Max     0.000084315 RMS     0.000032922

 GradGradGradGradGradGradGradGradGradGradGradGradGradGradGradGradGradGrad
 Berny optimization.
 Search for a local minimum.
 Step number   1 out of a maximum of   2
 All quantities printed in internal units (Hartrees-Bohrs-Radians)
 Second derivative matrix not updated -- unit matrix used.
 RFO step:  Lambda=-1.04050850D-07.
 Linear search not attempted -- first point.
 TrRot=  0.000000  0.000000  0.000000  0.000000  0.000000  0.000000
 Variable       Old X    -DE/DX   Delta X   Delta X   Delta X     New X
                                 (Linear)    (Quad)   (Total)
    X1       -0.35307   0.00000   0.00000   0.00000   0.00000  -0.35307
    Y1        0.78716   0.00002   0.00000   0.00002   0.00002   0.78718
    Z1        2.12600   0.00004   0.00000   0.00004   0.00004   2.12603
    X2        1.88901   0.00008   0.00000   0.00008   0.00008   1.88910
    Y2        0.31057  -0.00008   0.00000  -0.00008  -0.00008   0.31049
    Z2        0.77781  -0.00006   0.00000  -0.00006  -0.00006   0.77774
    X3        2.04558  -0.00004   0.00000  -0.00004  -0.00004   2.04554
    Y3        2.10685   0.00003   0.00000   0.00003   0.00003   2.10688
    Z3       -1.46519   0.00001   0.00000   0.00001   0.00001  -1.46518
    X4       -1.30602  -0.00005   0.00000  -0.00005  -0.00005  -1.30607
    Y4        3.14670  -0.00003   0.00000  -0.00003  -0.00003   3.14667
    Z4        1.31944   0.00000   0.00000   0.00000   0.00000   1.31944
    X5        0.53757   0.00007   0.00000   0.00007   0.00007   0.53764
    Y5        4.33557   0.00004   0.00000   0.00004   0.00004   4.33561
    Z5       -0.56081  -0.00002   0.00000  -0.00002  -0.00002  -0.56082
    X6       -0.76624   0.00001   0.00000   0.00001   0.00001  -0.76623
    Y6        5.50028  -0.00001   0.00000  -0.00001  -0.00001   5.50027
    Z6       -2.55591   0.00001   0.00000   0.00001   0.00001  -2.55590
    X7       -1.75909   0.00004   0.00000   0.00004   0.00004  -1.75905
    Y7        4.84748   0.00000   0.00000   0.00000   0.00000   4.84748
    Z7        3.60932   0.00000   0.00000   0.00000   0.00000   3.60932
    X8        2.27529   0.00004   0.00000   0.00004   0.00004   2.27533
    Y8       -2.53002   0.00003   0.00000   0.00003   0.00003  -2.52998
    Z8        0.07671  -0.00007   0.00000  -0.00007  -0.00007   0.07665
    X9        0.00242   0.00003   0.00000   0.00003   0.00003   0.00244
    Y9       -4.11086  -0.00004   0.00000  -0.00004  -0.00004  -4.11090
    Z9       -0.54297  -0.00004   0.00000  -0.00004  -0.00004  -0.54301
   X10        0.92824   0.00000   0.00000   0.00000   0.00000   0.92824
   Y10       -6.59162   0.00004   0.00000   0.00004   0.00004  -6.59158
   Z10       -1.46848   0.00004   0.00000   0.00004   0.00004  -1.46843
   X11       -1.58450   0.00005   0.00000   0.00005   0.00005  -1.58445
   Y11       -4.57971  -0.00001   0.00000  -0.00001  -0.00001  -4.57972
   Z11        1.72338  -0.00003   0.00000  -0.00003  -0.00003   1.72335
   X12       -1.55963   0.00005   0.00000   0.00005   0.00005  -1.55957
   Y12       -2.96207   0.00000   0.00000   0.00000   0.00000  -2.96207
   Z12       -2.55713   0.00003   0.00000   0.00003   0.00003  -2.55710
   X13        0.51240   0.00003   0.00000   0.00003   0.00003   0.51242
   Y13        6.46029  -0.00001   0.00000  -0.00001  -0.00001   6.46028
   Z13       -3.53724   0.00001   0.00000   0.00001   0.00001  -3.53723
   X14        0.03002  -0.00003   0.00000  -0.00003  -0.00003   0.02999
   Y14        5.14394  -0.00002   0.00000  -0.00002  -0.00002   5.14392
   Z14        4.66783   0.00000   0.00000   0.00000   0.00000   4.66783
   X15       -3.15723  -0.00003   0.00000  -0.00003  -0.00003  -3.15726
   Y15        3.95106  -0.00001   0.00000  -0.00001  -0.00001   3.95104
   Z15        4.89230  -0.00001   0.00000  -0.00001  -0.00001   4.89229
   X16       -0.66563  -0.00004   0.00000  -0.00004  -0.00004  -0.66567
   Y16       -7.87279  -0.00004   0.00000  -0.00004  -0.00004  -7.87283
   Z16       -1.96508   0.00000   0.00000   0.00000   0.00000  -1.96509
   X17        2.10999   0.00000   0.00000   0.00000   0.00000   2.10999
   Y17       -6.37007  -0.00003   0.00000  -0.00003  -0.00003  -6.37010
   Z17       -3.19555   0.00004   0.00000   0.00004   0.00004  -3.19551
   X18        2.09310  -0.00001   0.00000  -0.00001  -0.00001   2.09309
   Y18       -7.55752  -0.00002   0.00000  -0.00002  -0.00002  -7.55754
   Z18       -0.00615   0.00002   0.00000   0.00002   0.00002  -0.00612
   X19       -2.98761   0.00002   0.00000   0.00002   0.00002  -2.98759
   Y19       -6.10567   0.00001   0.00000   0.00001   0.00001  -6.10567
   Z19        1.36195   0.00001   0.00000   0.00001   0.00001   1.36197
   X20       -0.41364  -0.00003   0.00000  -0.00003  -0.00003  -0.41367
   Y20       -5.17140   0.00006   0.00000   0.00006   0.00006  -5.17134
   Z20        3.36650  -0.00003   0.00000  -0.00003  -0.00003   3.36647
   X21       -2.72110  -0.00004   0.00000  -0.00004  -0.00004  -2.72114
   Y21       -2.91045  -0.00003   0.00000  -0.00003  -0.00003  -2.91047
   Z21        2.26995   0.00001   0.00000   0.00001   0.00001   2.26996
   X22       -3.16158   0.00000   0.00000   0.00000   0.00000  -3.16158
   Y22       -4.22380   0.00004   0.00000   0.00004   0.00004  -4.22376
   Z22       -3.07573   0.00000   0.00000   0.00000   0.00000  -3.07573
   X23       -2.40123  -0.00001   0.00000  -0.00001  -0.00001  -2.40123
   Y23       -1.14464   0.00002   0.00000   0.00002   0.00002  -1.14463
   Z23       -1.94294   0.00002   0.00000   0.00002   0.00002  -1.94292
   X24       -0.42439  -0.00002   0.00000  -0.00002  -0.00002  -0.42441
   Y24       -2.63548   0.00004   0.00000   0.00004   0.00004  -2.63544
   Z24       -4.29623   0.00007   0.00000   0.00007   0.00007  -4.29616
   X25        1.18578  -0.00004   0.00000  -0.00004  -0.00004   1.18574
   Y25        1.29143  -0.00002   0.00000  -0.00002  -0.00002   1.29141
   Z25       -3.19204   0.00000   0.00000   0.00000   0.00000  -3.19204
   X26        4.03326   0.00003   0.00000   0.00003   0.00003   4.03329
   Y26        2.64602   0.00000   0.00000   0.00000   0.00000   2.64602
   Z26       -1.88408  -0.00002   0.00000  -0.00002  -0.00002  -1.88410
   X27       -3.15699   0.00002   0.00000   0.00002   0.00002  -3.15696
   Y27        2.80953   0.00000   0.00000   0.00000   0.00000   2.80953
   Z27        0.37949   0.00000   0.00000   0.00000   0.00000   0.37949
   X28        1.81678   0.00000   0.00000   0.00000   0.00000   1.81677
   Y28        5.71313  -0.00004   0.00000  -0.00004  -0.00004   5.71309
   Z28        0.39736   0.00003   0.00000   0.00003   0.00003   0.39739
   X29        3.64441  -0.00006   0.00000  -0.00006  -0.00006   3.64435
   Y29       -2.58445   0.00003   0.00000   0.00003   0.00003  -2.58441
   Z29       -1.52394  -0.00001   0.00000  -0.00001  -0.00001  -1.52395
   X30        3.30795   0.00003   0.00000   0.00003   0.00003   3.30798
   Y30       -3.42300  -0.00003   0.00000  -0.00003  -0.00003  -3.42303
   Z30        1.68097  -0.00002   0.00000  -0.00002  -0.00002   1.68095
   X31       -2.51198  -0.00004   0.00000  -0.00004  -0.00004  -2.51203
   Y31        6.70687   0.00001   0.00000   0.00001   0.00001   6.70688
   Z31        2.99093  -0.00001   0.00000  -0.00001  -0.00001   2.99092
   X32        3.48179  -0.00005   0.00000  -0.00005  -0.00005   3.48174
   Y32        0.82734   0.00006   0.00000   0.00006   0.00006   0.82740
   Z32        2.05598  -0.00001   0.00000  -0.00001  -0.00001   2.05597
         Item               Value     Threshold  Converged?
 Maximum Force            0.000084     0.000450     YES
 RMS     Force            0.000033     0.000300     YES
 Maximum Displacement     0.000084     0.001800     YES
 RMS     Displacement     0.000033     0.001200     YES
 Predicted change in Energy=-5.202541D-08
 Optimization completed.
    -- Stationary point found.
 GradGradGradGradGradGradGradGradGradGradGradGradGradGradGradGradGradGrad

                          Input orientation:                          
 ---------------------------------------------------------------------
 Center     Atomic     Atomic              Coordinates (Angstroms)
 Number     Number      Type              X           Y           Z
 ---------------------------------------------------------------------
    1          8      10081003       -0.186835    0.416548    1.125030
    2          6      10061003        0.999623    0.164347    0.411597
    3          6      10061003        1.082474    1.114897   -0.775344
    4          6      10061003       -0.691114    1.665162    0.698220
    5          6      10061003        0.284469    2.294285   -0.296766
    6          8      10081003       -0.405474    2.910623   -1.352529
    7          6      10061003       -0.930869    2.565177    1.909969
    8          6      10061003        1.204033   -1.338827    0.040594
    9          7      10071000        0.001279   -2.175373   -0.287327
   10          6      10061003        0.491203   -3.488133   -0.777084
   11          6      10061003       -0.838482   -2.423476    0.911974
   12          6      10061003       -0.825320   -1.567460   -1.353174
   13          1      10011000        0.271148    3.418636   -1.871827
   14          1      10011000        0.015888    2.722057    2.470109
   15          1      10011000       -1.670736    2.090808    2.588895
   16          1      10011000       -0.352235   -4.166099   -1.039878
   17          1      10011000        1.116557   -3.370895   -1.691010
   18          1      10011000        1.107621   -3.999268   -0.003252
   19          1      10011000       -1.580976   -3.230982    0.720715
   20          1      10011000       -0.218889   -2.736585    1.781473
   21          1      10011000       -1.439947   -1.540141    1.201206
   22          1      10011000       -1.673037   -2.235136   -1.627605
   23          1      10011000       -1.270675   -0.605718   -1.028159
   24          1      10011000       -0.224578   -1.394638   -2.273469
   25          1      10011000        0.627488    0.683397   -1.689155
   26          1      10011000        2.134309    1.400213   -0.997014
   27          1      10011000       -1.670605    1.486741    0.200816
   28          1      10011000        0.961396    3.023257    0.210272
   29          1      10011000        1.928540   -1.367630   -0.806432
   30          1      10011000        1.750494   -1.811372    0.889529
   31          1      10011000       -1.329285    3.549123    1.582731
   32          1      10011000        1.842482    0.437812    1.087977
 ---------------------------------------------------------------------
                    Distance matrix (angstroms):
                    1          2          3          4          5
     1  O    0.000000
     2  C    1.407222   0.000000
     3  C    2.389615   1.522904   0.000000
     4  C    1.412622   2.278857   2.370611   0.000000
     5  C    2.401984   2.355814   1.502267   1.528906   0.000000
     6  O    3.522287   3.553656   2.402450   2.416264   1.403756
     7  C    2.405478   3.425771   3.656197   1.528348   2.533794
     8  C    2.488345   1.561717   2.588685   3.612202   3.762833
     9  N    2.957735   2.638082   3.497573   4.024975   4.478630
    10  C    4.395943   3.874540   4.640850   5.489157   5.806014
    11  C    2.921605   3.213384   4.365455   4.096873   4.997934
    12  C    3.238123   3.073107   3.341946   3.830936   4.154600
    13  H    4.266547   4.041670   2.677263   3.256648   1.935241
    14  H    2.676883   3.427402   3.775386   2.180933   2.812601
    15  H    2.673576   3.947492   4.455409   2.171517   3.491600
    16  H    5.070980   4.763094   5.478803   6.094213   6.534077
    17  H    4.896288   4.114920   4.578420   5.859860   5.893263
    18  H    4.737939   4.185624   5.172179   5.984419   6.353938
    19  H    3.925758   4.275898   5.312139   4.976403   5.919774
    20  H    3.220900   3.431726   4.802580   4.557611   5.466452
    21  H    2.324806   3.079003   4.161560   3.329822   4.463222
    22  H    4.100881   4.130251   4.420624   4.646070   5.110638
    23  H    2.618389   2.796453   2.926045   2.910872   3.370968
    24  H    3.851183   3.337466   3.201644   4.290800   4.215997
    25  H    2.941763   2.195690   1.108267   2.898643   2.156703
    26  H    3.295205   2.190676   1.112160   3.305605   2.170626
    27  H    2.049648   2.987184   2.944588   1.112945   2.173023
    28  H    2.991680   2.866245   2.151265   2.193924   1.116565
    29  H    3.374708   2.166434   2.622925   4.280700   4.046276
    30  H    2.961813   2.166955   3.432361   4.252569   4.518069
    31  H    3.365666   4.272245   4.159635   2.176909   2.776929
    32  H    2.029767   1.114757   2.123210   2.842078   2.791309
                    6          7          8          9         10
     6  O    0.000000
     7  C    3.322539   0.000000
     8  C    4.752803   4.826347   0.000000
     9  N    5.212241   5.307526   1.501319   0.000000
    10  C    6.486852   6.773855   2.407538   1.484327   0.000000
    11  C    5.811031   5.088339   2.471363   1.484950   2.398849
    12  C    4.497721   5.266681   2.472476   1.479477   2.398770
    13  H    0.992756   4.058968   5.211630   5.820344   6.996452
    14  H    3.850411   1.111178   4.879038   5.620364   7.024005
    15  H    4.219930   1.110571   5.149809   5.410046   6.865011
    16  H    7.083825   7.372008   3.403360   2.157381   1.113592
    17  H    6.472142   7.238506   2.671218   2.154865   1.113585
    18  H    7.201152   7.134970   2.662548   2.152041   1.113573
    19  H    6.587826   5.952514   3.434980   2.152670   2.569719
    20  H    6.461249   5.350898   2.647470   2.154848   2.759578
    21  H    5.234596   4.197040   2.894508   2.167114   3.381959
    22  H    5.306715   6.009015   3.444386   2.145519   2.641462
    23  H    3.635718   4.336202   2.793539   2.151863   3.387561
    24  H    4.406373   5.803459   2.720098   2.146000   2.670998
    25  H    2.478077   4.350089   2.722834   3.244969   4.272248
    26  H    2.976277   4.382124   3.073172   4.223540   5.161792
    27  H    2.457819   2.152078   4.033987   4.055189   5.511722
    28  H    2.079271   2.584468   4.372121   5.309914   6.602587
    29  H    4.904008   5.569743   1.114986   2.153196   2.561900
    30  H    5.654402   5.233086   1.114724   2.139449   2.678608
    31  H    3.142747   1.110842   5.717337   6.167445   7.642374
    32  H    4.138136   3.590659   2.158952   3.479975   4.551642
                   11         12         13         14         15
    11  C    0.000000
    12  C    2.421534   0.000000
    13  H    6.565904   5.131510   0.000000
    14  H    5.443734   5.807330   4.404859   0.000000
    15  H    4.887072   5.444039   5.043023   1.804795   0.000000
    16  H    2.661371   2.659866   7.655648   7.739652   7.352233
    17  H    3.390472   2.671591   6.844351   7.459923   7.477753
    18  H    2.666097   3.387069   7.695229   7.244695   7.178267
    19  H    1.113527   2.763935   7.373537   6.406951   5.640887
    20  H    1.112638   3.400092   7.174502   5.506915   5.105244
    21  H    1.107111   2.627426   6.079543   4.679306   3.893936
    22  H    2.679816   1.113431   5.983698   6.649624   6.040917
    23  H    2.693538   1.108568   4.391403   4.996720   4.529281
    24  H    3.403297   1.112520   4.855375   6.285422   6.154859
    25  H    4.309013   2.699979   2.764395   4.672223   5.056120
    26  H    5.205989   4.206345   2.882827   4.272695   5.273900
    27  H    4.060538   3.529523   3.434890   3.085442   2.463294
    28  H    5.779174   5.168307   2.228879   2.468111   3.668164
    29  H    3.424054   2.814712   5.175940   5.578486   6.036873
    30  H    2.660446   3.424037   6.096436   5.104809   5.460739
    31  H    6.030153   5.920552   3.809512   1.811344   1.804339
    32  H    3.924986   4.134912   4.484957   3.234890   4.162673
                   16         17         18         19         20
    16  H    0.000000
    17  H    1.792672   0.000000
    18  H    1.798223   1.800960   0.000000
    19  H    2.341780   3.621143   2.888415   0.000000
    20  H    3.165646   3.774110   2.557194   1.795805   0.000000
    21  H    3.619562   4.272269   3.740070   1.763435   1.805317
    22  H    2.412169   3.012608   3.671885   2.552409   3.740029
    23  H    3.676952   3.712741   4.268829   3.169678   3.679794
    24  H    3.036287   2.458352   3.703070   3.765251   4.271231
    25  H    4.989892   4.083684   5.000014   5.099720   4.945492
    26  H    6.096603   4.927568   5.585342   6.180769   5.510956
    27  H    5.935657   5.911337   6.152761   4.747130   4.737345
    28  H    7.414536   6.672641   7.027292   6.770503   6.085847
    29  H    3.617715   2.335565   2.871328   4.256872   3.630805
    30  H    3.699841   3.081099   2.448925   3.625256   2.351607
    31  H    8.207153   8.036553   8.089009   6.839316   6.386126
    32  H    5.526350   4.770323   4.628010   5.031400   3.847984
                   21         22         23         24         25
    21  H    0.000000
    22  H    2.922246   0.000000
    23  H    2.423194   1.782199   0.000000
    24  H    3.683973   1.794885   1.807625   0.000000
    25  H    4.191968   3.716724   2.387835   2.320704   0.000000
    26  H    5.123783   5.301820   3.952043   3.873613   1.806487
    27  H    3.196248   4.146746   2.459413   4.063917   3.081977
    28  H    5.251000   6.161878   4.436814   5.205122   3.032205
    29  H    3.925185   3.794503   3.296157   2.605540   2.584308
    30  H    3.217083   4.270376   3.776055   3.752217   3.759605
    31  H    5.104745   6.624356   4.907432   6.366430   4.769338
    32  H    3.833987   5.184391   3.906242   4.350853   3.041214
                   26         27         28         29         30
    26  H    0.000000
    27  H    3.989943   0.000000
    28  H    2.338276   3.047688   0.000000
    29  H    2.782017   4.702747   4.609658   0.000000
    30  H    3.744415   4.801645   4.945473   1.762071   0.000000
    31  H    4.823834   2.505915   2.721654   6.363646   6.220971
    32  H    2.314858   3.772146   2.869008   2.618361   2.259795
                   31         32
    31  H    0.000000
    32  H    4.470475   0.000000
 Stoichiometry    C9H20NO2(1+)
 Framework group  C1[X(C9H20NO2)]
 Deg. of freedom    90
 Full point group                 C1
 Largest Abelian subgroup         C1      NOp   1
 Largest concise Abelian subgroup C1      NOp   1
                         Standard orientation:                         
 ---------------------------------------------------------------------
 Center     Atomic     Atomic              Coordinates (Angstroms)
 Number     Number      Type              X           Y           Z
 ---------------------------------------------------------------------
    1          8      10081003        0.574084    1.040385    0.268990
    2          6      10061003        0.171052   -0.037473    1.078967
    3          6      10061003        0.975862   -1.274726    0.703837
    4          6      10061003        1.795742    0.686443   -0.345645
    5          6      10061003        2.248283   -0.679243    0.171718
    6          8      10081003        2.783879   -1.455815   -0.867802
    7          6      10061003        2.838772    1.771780   -0.081112
    8          6      10061003       -1.373917   -0.264350    1.102548
    9          7      10071000       -2.166267    0.006694   -0.143516
   10          6      10061003       -3.553251   -0.463113    0.098935
   11          6      10061003       -2.226403    1.458201   -0.451067
   12          6      10061003       -1.631742   -0.725262   -1.312866
   13          1      10011000        3.187950   -2.256066   -0.441317
   14          1      10011000        2.998775    1.898110    1.011206
   15          1      10011000        2.489829    2.738020   -0.502996
   16          1      10011000       -4.203151   -0.291437   -0.788896
   17          1      10011000       -3.577766   -1.554473    0.318943
   18          1      10011000       -4.011534    0.070886    0.961992
   19          1      10011000       -3.002989    1.672725   -1.219725
   20          1      10011000       -2.477770    2.053218    0.454876
   21          1      10011000       -1.280903    1.842426   -0.880132
   22          1      10011000       -2.272476   -0.563875   -2.209048
   23          1      10011000       -0.614084   -0.378577   -1.583242
   24          1      10011000       -1.600327   -1.820003   -1.117275
   25          1      10011000        0.473628   -1.879159   -0.077621
   26          1      10011000        1.169275   -1.919603    1.589062
   27          1      10011000        1.623411    0.632808   -1.443858
   28          1      10011000        2.986360   -0.569954    1.002390
   29          1      10011000       -1.541893   -1.314309    1.438053
   30          1      10011000       -1.781214    0.360372    1.931065
   31          1      10011000        3.802558    1.501575   -0.562853
   32          1      10011000        0.466092    0.220360    2.122594
 ---------------------------------------------------------------------
 Rotational constants (GHZ):      1.6633375      0.5596298      0.5055729
 1|1|UNPC-UNK|FOpt|UFF|ZDO|C9H20N1O2(1+)|PCUSER|13-Dec-2007|0||# opt uf
 f||muscarine-C||1,1|O,-0.1868353385,0.4165484772,1.1250297153|C,0.9996
 227257,0.1643471638,0.4115968275|C,1.0824740339,1.1148966406,-0.775344
 2592|C,-0.6911137806,1.6651622444,0.6982196789|C,0.2844693282,2.294284
 9134,-0.2967661603|O,-0.4054743515,2.9106230591,-1.3525289751|C,-0.930
 8694472,2.5651774341,1.9099693535|C,1.2040333542,-1.3388270654,0.04059
 44022|N,0.0012792789,-2.1753732248,-0.2873272651|C,0.4912034434,-3.488
 1330243,-0.7770841|C,-0.8384821617,-2.4234760076,0.9119736096|C,-0.825
 3199121,-1.5674598085,-1.3531736684|H,0.2711479704,3.4186358811,-1.871
 826674|H,0.0158876885,2.722056965,2.4701091817|H,-1.6707356947,2.09080
 83015,2.5888950521|H,-0.3522352114,-4.1660990368,-1.0398779244|H,1.116
 5571079,-3.3708951866,-1.691009597|H,1.1076207052,-3.9992676384,-0.003
 2520743|H,-1.5809755492,-3.2309819472,0.7207151738|H,-0.2188890656,-2.
 7365850432,1.7814734804|H,-1.4399465729,-1.5401412224,1.2012060511|H,-
 1.673037168,-2.2351364218,-1.627605151|H,-1.2706746498,-0.6057183818,-
 1.0281589875|H,-0.2245775098,-1.3946380496,-2.2734687059|H,0.627488005
 4,0.6833966518,-1.689155121|H,2.1343085713,1.4002134508,-0.9970138521|
 H,-1.6706047113,1.4867411767,0.2008158442|H,0.9613960425,3.0232572835,
 0.2102719373|H,1.9285402744,-1.3676303349,-0.8064324164|H,1.7504941508
 ,-1.8113720819,0.8895293737|H,-1.3292848806,3.5491234049,1.5827310374|
 H,1.8424818042,0.4378118272,1.0879767732||Version=IA32W-G03RevD.01|HF=
 0.0947129|RMSD=0.000e+000|RMSF=3.292e-005|Thermal=0.|Dipole=0.,0.,0.|P
 G=C01 [X(C9H20N1O2)]||@


 DEMOCRATS BUY MOST OF THE BOOKS THAT HAVE BEEN
 BANNED; REPUBLICANS FORM CENSORSHIP COMMITTEES AND
 READ THEM AS A GROUP.
 Job cpu time:  0 days  0 hours  0 minutes  3.0 seconds.
 File lengths (MBytes):  RWF=     11 Int=      0 D2E=      0 Chk=      4 Scr=      1
 Normal termination of Gaussian 03 at Thu Dec 13 11:51:56 2007.
