 Entering Link 1 = C:\G03W\l1.exe PID=      3356.
  
 Copyright (c) 1988,1990,1992,1993,1995,1998,2003,2004, Gaussian, Inc.
                  All Rights Reserved.
  
 This is the Gaussian(R) 03 program.  It is based on the
 the Gaussian(R) 98 system (copyright 1998, Gaussian, Inc.),
 the Gaussian(R) 94 system (copyright 1995, Gaussian, Inc.),
 the Gaussian 92(TM) system (copyright 1992, Gaussian, Inc.),
 the Gaussian 90(TM) system (copyright 1990, Gaussian, Inc.),
 the Gaussian 88(TM) system (copyright 1988, Gaussian, Inc.),
 the Gaussian 86(TM) system (copyright 1986, Carnegie Mellon
 University), and the Gaussian 82(TM) system (copyright 1983,
 Carnegie Mellon University). Gaussian is a federally registered
 trademark of Gaussian, Inc.
  
 This software contains proprietary and confidential information,
 including trade secrets, belonging to Gaussian, Inc.
  
 This software is provided under written license and may be
 used, copied, transmitted, or stored only in accord with that
 written license.
  
 The following legend is applicable only to US Government
 contracts under FAR:
  
                    RESTRICTED RIGHTS LEGEND
  
 Use, reproduction and disclosure by the US Government is
 subject to restrictions as set forth in subparagraphs (a)
 and (c) of the Commercial Computer Software - Restricted
 Rights clause in FAR 52.227-19.
  
 Gaussian, Inc.
 340 Quinnipiac St., Bldg. 40, Wallingford CT 06492
  
  
 ---------------------------------------------------------------
 Warning -- This program may not be used in any manner that
 competes with the business of Gaussian, Inc. or will provide
 assistance to any competitor of Gaussian, Inc.  The licensee
 of this program is prohibited from giving any competitor of
 Gaussian, Inc. access to this program.  By using this program,
 the user acknowledges that Gaussian, Inc. is engaged in the
 business of creating and licensing software in the field of
 computational chemistry and represents and warrants to the
 licensee that it is not a competitor of Gaussian, Inc. and that
 it will not use this program in any manner prohibited above.
 ---------------------------------------------------------------
  

 Cite this work as:
 Gaussian 03, Revision D.01,
 M. J. Frisch, G. W. Trucks, H. B. Schlegel, G. E. Scuseria, 
 M. A. Robb, J. R. Cheeseman, J. A. Montgomery, Jr., T. Vreven, 
 K. N. Kudin, J. C. Burant, J. M. Millam, S. S. Iyengar, J. Tomasi, 
 V. Barone, B. Mennucci, M. Cossi, G. Scalmani, N. Rega, 
 G. A. Petersson, H. Nakatsuji, M. Hada, M. Ehara, K. Toyota, 
 R. Fukuda, J. Hasegawa, M. Ishida, T. Nakajima, Y. Honda, O. Kitao, 
 H. Nakai, M. Klene, X. Li, J. E. Knox, H. P. Hratchian, J. B. Cross, 
 V. Bakken, C. Adamo, J. Jaramillo, R. Gomperts, R. E. Stratmann, 
 O. Yazyev, A. J. Austin, R. Cammi, C. Pomelli, J. W. Ochterski, 
 P. Y. Ayala, K. Morokuma, G. A. Voth, P. Salvador, J. J. Dannenberg, 
 V. G. Zakrzewski, S. Dapprich, A. D. Daniels, M. C. Strain, 
 O. Farkas, D. K. Malick, A. D. Rabuck, K. Raghavachari, 
 J. B. Foresman, J. V. Ortiz, Q. Cui, A. G. Baboul, S. Clifford, 
 J. Cioslowski, B. B. Stefanov, G. Liu, A. Liashenko, P. Piskorz, 
 I. Komaromi, R. L. Martin, D. J. Fox, T. Keith, M. A. Al-Laham, 
 C. Y. Peng, A. Nanayakkara, M. Challacombe, P. M. W. Gill, 
 B. Johnson, W. Chen, M. W. Wong, C. Gonzalez, and J. A. Pople, 
 Gaussian, Inc., Wallingford CT, 2004.
 
 ******************************************
 Gaussian 03:  IA32W-G03RevD.01 13-Oct-2005
                13-Dec-2007 
 ******************************************
 --------------
 # opt dreiding
 --------------
 1/6=10,10=10,14=-1,18=4000020,38=1,56=1,64=1/1,3;
 2/9=110,17=6,18=5,40=1/2;
 3/5=30,11=9,16=1,25=1,30=1/1;
 4/20=9,22=1001,24=3/2;
 7/44=-1/16;
 1/6=10,10=10,14=-1,18=4000020,64=1/3(2);
 2/9=110/2;
 99//99;
 2/9=110/2;
 3/5=30,11=9,16=1,25=1,30=1/1;
 4/16=2,20=9,22=1001,24=3/2;
 7/44=-1/16;
 1/6=10,10=10,14=-1,18=4000020,64=1/3(-4);
 2/9=110/2;
 99//99;
 ---------------------
 P-Me-phosphorinane-ax
 ---------------------
 Symbolic Z-matrix:
 Charge =  0 Multiplicity = 1
 C                    -0.83539  -1.18863  -0.60164 
 C                     0.13361  -1.72363   0.46736 
 C                     1.56761  -1.18063   0.29736 
 P                    -0.83339   0.62638  -0.56164 
 C                     1.69461   0.34838   0.46536 
 C                     0.91161   1.13038  -0.60364 
 H                    -1.86539  -1.58363  -0.44364 
 H                    -0.49239  -1.53363  -1.60464 
 H                     0.15361  -2.83863   0.40936 
 H                    -0.24139  -1.46663   1.48736 
 H                     1.95761  -1.47563  -0.70664 
 H                     2.22661  -1.67563   1.05136 
 H                     2.77161   0.63638   0.40536 
 H                     1.34561   0.63938   1.48436 
 H                     1.33661   0.89438  -1.60764 
 H                     1.00661   2.22938  -0.44864 
 C                    -1.76839   1.33338   0.81636 
 H                    -1.34139   1.01238   1.79236 
 H                    -1.74739   2.44538   0.77836 
 H                    -2.83139   1.00537   0.78036 
 
 Include all MM classes
 MMInit generated parameter data with length LenPar=  2261.

 GradGradGradGradGradGradGradGradGradGradGradGradGradGradGradGradGradGrad
 Berny optimization.
 Initialization pass.
 No Z-matrix variables, so optimization will use Cartesian coordinates.
 Trust Radius=1.00D-01 FncErr=1.00D-07 GrdErr=1.00D-07
 Number of steps in this run=   2 maximum allowed number of steps=   2.
 GradGradGradGradGradGradGradGradGradGradGradGradGradGradGradGradGradGrad

                          Input orientation:                          
 ---------------------------------------------------------------------
 Center     Atomic     Atomic              Coordinates (Angstroms)
 Number     Number      Type              X           Y           Z
 ---------------------------------------------------------------------
    1          6      10061003       -0.835391   -1.188625   -0.601641
    2          6      10061003        0.133609   -1.723625    0.467359
    3          6      10061003        1.567609   -1.180625    0.297359
    4         15      10151003       -0.833391    0.626375   -0.561641
    5          6      10061003        1.694609    0.348375    0.465359
    6          6      10061003        0.911609    1.130375   -0.603641
    7          1      10011000       -1.865391   -1.583625   -0.443641
    8          1      10011000       -0.492391   -1.533625   -1.604641
    9          1      10011000        0.153609   -2.838625    0.409359
   10          1      10011000       -0.241391   -1.466625    1.487359
   11          1      10011000        1.957609   -1.475625   -0.706641
   12          1      10011000        2.226609   -1.675625    1.051359
   13          1      10011000        2.771609    0.636375    0.405359
   14          1      10011000        1.345609    0.639375    1.484359
   15          1      10011000        1.336609    0.894375   -1.607641
   16          1      10011000        1.006609    2.229375   -0.448641
   17          6      10061003       -1.768391    1.333375    0.816359
   18          1      10011000       -1.341391    1.012375    1.792359
   19          1      10011000       -1.747391    2.445375    0.778359
   20          1      10011000       -2.831391    1.005375    0.780359
 ---------------------------------------------------------------------
                    Distance matrix (angstroms):
                    1          2          3          4          5
     1  C    0.000000
     2  C    1.538814   0.000000
     3  C    2.565672   1.542759   0.000000
     4  P    1.815442   2.741611   3.125369   0.000000
     5  C    3.146706   2.594207   1.543436   2.742772   0.000000
     6  C    2.903407   3.146052   2.565708   1.816812   1.538627
     7  H    1.114401   2.201255   3.535107   2.441935   4.151205
     8  H    1.114757   2.172823   2.825918   2.422753   3.551027
     9  H    2.173187   1.116687   2.181950   3.731385   3.540450
    10  H    2.189530   1.116725   2.184119   2.988229   2.843731
    11  H    2.809670   2.183290   1.116755   3.497014   2.183971
    12  H    3.513605   2.173479   1.117060   4.155066   2.173245
    13  H    4.165948   3.540125   2.182377   3.732454   1.116456
    14  H    3.528419   2.843765   2.184182   2.989034   1.115725
    15  H    3.173091   3.550600   2.826307   2.423807   2.173387
    16  H    3.885756   4.150590   3.535440   2.442945   2.201568
    17  C    3.040016   3.617272   4.209329   1.809132   3.617429
    18  H    3.291151   3.378897   3.937836   2.438929   3.379219
    19  H    3.992756   4.584260   4.936442   2.437162   4.042616
    20  H    3.272243   4.041860   4.935898   2.436516   4.584272
                    6          7          8          9         10
     6  C    0.000000
     7  H    3.886274   0.000000
     8  H    3.173344   1.798763   0.000000
     9  H    4.165777   2.525667   2.485264   0.000000
    10  H    3.527903   2.525832   3.102894   1.788992   0.000000
    11  H    2.809975   3.833557   2.610032   2.521436   3.106335
    12  H    3.513102   4.357517   3.803612   2.462125   2.514916
    13  H    2.172951   5.210659   4.404849   4.350812   3.830340
    14  H    2.188420   4.355391   4.200249   3.830532   2.637009
    15  H    1.115499   4.212859   3.039808   4.404891   4.200408
    16  H    1.113935   4.773613   4.212304   5.210412   4.354999
    17  C    3.039738   3.178978   3.963471   4.611433   3.259136
    18  H    3.291010   3.466048   4.329264   4.356365   2.729188
    19  H    3.272527   4.211894   4.804805   5.627665   4.251407
    20  H    3.992634   3.022293   4.195911   4.881004   3.649484
                   11         12         13         14         15
    11  H    0.000000
    12  H    1.789672   0.000000
    13  H    2.521841   2.461643   0.000000
    14  H    3.106163   2.514533   1.788219   0.000000
    15  H    2.610429   3.803588   2.485550   3.102510   0.000000
    16  H    3.833796   4.357456   2.526300   2.525769   1.798445
    17  C    4.908471   5.006928   4.611543   3.259579   3.963524
    18  H    4.828928   4.528250   4.356824   2.730194   4.329620
    19  H    5.595220   5.731479   4.881902   3.650578   4.196386
    20  H    5.594734   5.731018   5.627646   4.251694   4.804903
                   16         17         18         19         20
    16  H    0.000000
    17  C    3.178626   0.000000
    18  H    3.466450   1.112630   0.000000
    19  H    3.022698   1.112847   1.801810   0.000000
    20  H    4.211753   1.113036   1.801192   1.802404   0.000000
 Stoichiometry    C6H13P
 Framework group  C1[X(C6H13P)]
 Deg. of freedom    54
 Full point group                 C1
 Largest Abelian subgroup         C1      NOp   1
 Largest concise Abelian subgroup C1      NOp   1
                         Standard orientation:                         
 ---------------------------------------------------------------------
 Center     Atomic     Atomic              Coordinates (Angstroms)
 Number     Number      Type              X           Y           Z
 ---------------------------------------------------------------------
    1          6      10061003        0.024823   -1.451673   -0.603911
    2          6      10061003        1.160085   -1.296983    0.423318
    3          6      10061003        1.972241   -0.000607    0.223524
    4         15      10151003       -1.062875   -0.000448   -0.522133
    5          6      10061003        1.161025    1.297224    0.422916
    6          6      10061003        0.025817    1.451734   -0.604121
    7          1      10011000       -0.554185   -2.386822   -0.424651
    8          1      10011000        0.468378   -1.520379   -1.624314
    9          1      10011000        1.843979   -2.175718    0.339048
   10          1      10011000        0.744507   -1.317838    1.459626
   11          1      10011000        2.423232   -0.001100   -0.798116
   12          1      10011000        2.824148   -0.000206    0.946072
   13          1      10011000        1.845540    2.175093    0.337728
   14          1      10011000        0.745733    1.319170    1.458239
   15          1      10011000        0.469293    1.519429   -1.625435
   16          1      10011000       -0.553009    2.386790   -0.426691
   17          6      10061003       -2.182558    0.001186    0.898876
   18          1      10011000       -1.612117    0.000928    1.854147
   19          1      10011000       -2.835517    0.902243    0.885931
   20          1      10011000       -2.835457   -0.900161    0.886795
 ---------------------------------------------------------------------
 Rotational constants (GHZ):      2.9714328      1.9338986      1.5094865
 Standard basis: Dummy (5D, 7F)
 There are    20 symmetry adapted basis functions of A   symmetry.
 Integral buffers will be    262144 words long.
 Raffenetti 1 integral format.
 Two-electron integral symmetry is turned on.
    20 basis functions,    20 primitive gaussians,    20 cartesian basis functions
    13 alpha electrons       13 beta electrons
       nuclear repulsion energy        65.4808907398 Hartrees.
 NAtoms=   20 NActive=   20 NUniq=   20 SFac= 7.50D-01 NAtFMM=   80 NAOKFM=F Big=F
 Dreiding calculation of energy and first derivatives.
 MO and density RWFs will be updated without deorthogonalization.
 NRF= 0 NRA=   0 NVA=  20 HaveQM=F
 Convergence limit is  0.750E-04 MaxStp=  5000 StMxLn= 1.00D-04 StpMin= 1.00D-06.
 Convergence criteria           0.00011250 0.00007500 0.00045000 0.00030000
  Step  NS  ND Rises OKQ   Scale  Max. Force  RMS Force Max. Disp.  RMS Disp.     Energy   Flag
     1   0   0   F    T  1.00D+00 0.06566960 0.02086040 0.06566960 0.02086040    0.0855133 ----
     2   0   0   F    F  4.89D-01 0.06566960 0.02086040 0.06566960 0.02086040    0.0680781 ----
     3   0   0   F    T  2.91D+00 0.02363371 0.00969709 0.02632956 0.01069361    0.0659463 ----
     4   0   0   F    F  4.92D-01 0.02363371 0.00969709 0.07650098 0.03107048    0.0550558 ----
     5   0   0   F    T  3.30D+00 0.02720284 0.00952062 0.03338599 0.01404471    0.0537309 ----
     6   0   0   F    F -2.87D-01 0.02720284 0.00952062 0.11017141 0.04634657    0.0483793 ----
     7   0   0   F    T  2.96D+00 0.01703744 0.00735222 0.02725146 0.01115129    0.0473614 ----
     8   0   0   F    F  3.18D-01 0.01703744 0.00735222 0.08076800 0.03305023    0.0413586 ----
     9   0   0   F    T  3.64D+00 0.02036519 0.00689270 0.03325464 0.01197766    0.0409830 ----
    10   0   0   F    F -4.11D-01 0.02036519 0.00689270 0.12097951 0.04357441    0.0394251 ----
    11   0   0   F    T  4.63D+00 0.01010162 0.00393976 0.01593067 0.00554470    0.0379259 ----
    12   0   0   F    F -3.82D-01 0.01010162 0.00393976 0.07371147 0.02565543    0.0371040 ----
    13   0   0   F    T  4.14D+00 0.00915009 0.00274023 0.01374000 0.00383112    0.0365922 ----
    14   0   0   F    F -3.55D-01 0.00915009 0.00274023 0.05686815 0.01585651    0.0361728 ----
    15   0   0   F    T  3.32D+00 0.00441526 0.00209919 0.01203022 0.00307864    0.0359909 ----
    16   0   0   F    F  2.15D-01 0.00441526 0.00209919 0.03996941 0.01022854    0.0354747 ----
    17   0   0   F    T  2.98D+00 0.00574162 0.00224074 0.01687189 0.00417763    0.0354580 ----
    18   0   0   F    F  6.36D-01 0.00574162 0.00224074 0.05019757 0.01242937    0.0348341 ----
    19   0   0   F    T  5.31D+00 0.00519366 0.00198497 0.01479939 0.00382746    0.0347225 ----
    20   0   0   F    F -2.28D-01 0.00519366 0.00198497 0.07864165 0.02033851    0.0342797 ----
    21   0   0   F    T  3.41D+00 0.00763035 0.00206666 0.01782936 0.00461144    0.0342374 ----
    22   0   0   F    F -2.05D-01 0.00763035 0.00206666 0.06071572 0.01570369    0.0339130 ----
    23   0   0   F    T  3.67D+00 0.00491506 0.00167434 0.01056657 0.00339840    0.0338898 ----
    24   0   0   F    F -1.56D-01 0.00491506 0.00167434 0.03882139 0.01248566    0.0336375 ----
    25   0   0   F    T  4.86D+00 0.00325358 0.00121976 0.00590066 0.00216781    0.0336285 ----
    26   0   0   F    F -4.78D-01 0.00325358 0.00121976 0.02868815 0.01053960    0.0336102 ----
    27   0   0   F    T  2.22D+00 0.00456170 0.00121795 0.00589776 0.00247812    0.0335152 ----
    28   0   0   F    F  2.24D+00 0.00456170 0.00121795 0.01309829 0.00550363    0.0333479 ----
    29   0   0   F    T  8.28D+00 0.00303514 0.00106539 0.00545036 0.00215319    0.0331945 ----
    30   0   0   T    F  1.69D-01 0.00303514 0.00106539 0.04514179 0.01783348    0.0343015 ----
    31   0   0   F    T  6.85D+00 0.00101750 0.00036412 0.00096094 0.00044002    0.0331469 ----
    32   0   0   F    F  6.58D-01 0.00101750 0.00036412 0.00657842 0.00301230    0.0331089 ----
    33   0   0   F    T  3.31D+00 0.00202962 0.00064093 0.00355833 0.00150686    0.0331018 ----
    34   0   0   F    F -2.85D-01 0.00202962 0.00064093 0.01179142 0.00499335    0.0330772 ----
    35   0   0   F    T  5.63D+00 0.00092606 0.00037376 0.00182345 0.00063426    0.0330726 ----
    36   0   0   F    F -2.91D-01 0.00092606 0.00037376 0.01026453 0.00357036    0.0330587 ----
    37   0   0   F    T  1.93D+00 0.00150316 0.00051502 0.00387911 0.00130945    0.0330559 ----
    38   0   0   F    F  2.14D+00 0.00150316 0.00051502 0.00749557 0.00253025    0.0330300 ----
    39   0   0   F    T  3.38D+00 0.00157828 0.00067494 0.00655664 0.00234948    0.0330076 ----
    40   0   0   F    F  3.34D-02 0.00157828 0.00067494 0.02215745 0.00793980    0.0329600 ----
    41   0   0   F    T  4.00D+00 0.00126639 0.00061623 0.00518405 0.00205214    0.0329599 ----
    42   0   0   F    F  8.27D-01 0.00126639 0.00061623 0.02072768 0.00820519    0.0328935 ----
    43   0   0   F    T  3.08D+00 0.00283434 0.00094160 0.01174285 0.00487063    0.0328764 ----
    44   0   0   F    F -2.37D-01 0.00283434 0.00094160 0.03614213 0.01499083    0.0328197 ----
    45   0   0   F    T  5.27D+00 0.00178905 0.00063583 0.00496332 0.00217033    0.0328136 ----
    46   0   0   F    F -4.54D-01 0.00178905 0.00063583 0.02614839 0.01143401    0.0328027 ----
    47   0   0   F    T  5.90D+00 0.00113051 0.00042550 0.00235322 0.00105822    0.0327787 ----
    48   0   0   T    F  4.28D-01 0.00113051 0.00042550 0.01387838 0.00624096    0.0327894 ----
    49   0   0   F    T  3.88D+00 0.00096928 0.00032177 0.00144972 0.00068850    0.0327650 ----
    50   0   0   F    F -1.61D-01 0.00096928 0.00032177 0.00562958 0.00267362    0.0327553 ----
    51   0   0   F    T  4.08D+00 0.00087293 0.00026801 0.00154078 0.00054905    0.0327549 ----
    52   0   0   F    F -2.15D-01 0.00087293 0.00026801 0.00629327 0.00224258    0.0327485 ----
    53   0   0   F    T  4.55D+00 0.00049412 0.00020667 0.00125465 0.00038673    0.0327480 ----
    54   0   0   F    F -4.66D-01 0.00049412 0.00020667 0.00571032 0.00176012    0.0327473 ----
    55   0   0   F    T  3.69D+00 0.00042417 0.00015060 0.00109018 0.00025461    0.0327449 ---+
    56   0   0   F    F  1.39D-01 0.00042417 0.00015060 0.00402384 0.00093975    0.0327421 ----
    57   0   0   F    T  4.43D+00 0.00031849 0.00013396 0.00083035 0.00024181    0.0327420 ---+
    58   0   0   F    F -4.18D-01 0.00031849 0.00013396 0.00367679 0.00107072    0.0327414 ----
    59   0   0   F    T  2.23D+00 0.00039805 0.00013471 0.00085200 0.00027910    0.0327406 ---+
    60   0   0   F    F  1.85D+00 0.00039805 0.00013471 0.00190076 0.00062267    0.0327386 ----
    61   0   0   F    T  4.09D+00 0.00048911 0.00016171 0.00127595 0.00043371    0.0327372 ----
    62   0   0   F    F  1.57D-01 0.00048911 0.00016171 0.00521889 0.00177395    0.0327335 ----
    63   0   0   F    T  5.21D+00 0.00036835 0.00014786 0.00122933 0.00039364    0.0327335 ----
    64   0   0   T    F  4.83D-01 0.00036835 0.00014786 0.00641025 0.00205261    0.0327337 ----
    65   0   0   F    T  3.62D+00 0.00040320 0.00011722 0.00072929 0.00027386    0.0327318 ---+
    66   0   0   F    F  1.86D-01 0.00040320 0.00011722 0.00263882 0.00099092    0.0327301 ----
    67   0   0   F    T  6.09D+00 0.00033823 0.00009225 0.00054873 0.00019309    0.0327300 ---+
    68   0   0   T    F  2.67D-01 0.00033823 0.00009225 0.00334092 0.00117565    0.0327328 ----
    69   0   0   F    T  5.85D+00 0.00009735 0.00003980 0.00013925 0.00005366    0.0327296 ====
 Energy=    0.032729634014 NIter=   0.
 Dipole moment=       0.000000       0.000000       0.000000
 ***** Axes restored to original set *****
 -------------------------------------------------------------------
 Center     Atomic                   Forces (Hartrees/Bohr)
 Number     Number              X              Y              Z
 -------------------------------------------------------------------
    1          6           0.000042548   -0.000045114    0.000046129
    2          6          -0.000065504    0.000036233   -0.000044388
    3          6           0.000017753    0.000032277   -0.000013628
    4         15           0.000069729   -0.000003603   -0.000007084
    5          6          -0.000049644    0.000094751   -0.000020537
    6          6           0.000068288   -0.000008167    0.000021097
    7          1          -0.000029884   -0.000034531    0.000027295
    8          1           0.000018040   -0.000088062   -0.000046335
    9          1          -0.000026210   -0.000023192   -0.000006877
   10          1          -0.000027190   -0.000024309   -0.000024419
   11          1          -0.000035599    0.000017198   -0.000042298
   12          1          -0.000040028    0.000019561    0.000035387
   13          1          -0.000025711    0.000008680   -0.000005157
   14          1           0.000028348    0.000011899   -0.000061299
   15          1           0.000067722    0.000010956   -0.000010795
   16          1           0.000012450   -0.000015986    0.000023571
   17          6           0.000056972   -0.000042191   -0.000002515
   18          1          -0.000072049    0.000053238    0.000045428
   19          1          -0.000031853   -0.000041791    0.000040173
   20          1           0.000021820    0.000042152    0.000046252
 -------------------------------------------------------------------
 Cartesian Forces:  Max     0.000094751 RMS     0.000039800

 GradGradGradGradGradGradGradGradGradGradGradGradGradGradGradGradGradGrad
 Berny optimization.
 Search for a local minimum.
 Step number   1 out of a maximum of   2
 All quantities printed in internal units (Hartrees-Bohrs-Radians)
 Second derivative matrix not updated -- unit matrix used.
 RFO step:  Lambda=-9.50432857D-08.
 Linear search not attempted -- first point.
 TrRot=  0.000000  0.000000  0.000000  0.000000  0.000000  0.000000
 Variable       Old X    -DE/DX   Delta X   Delta X   Delta X     New X
                                 (Linear)    (Quad)   (Total)
    X1       -1.57740   0.00004   0.00000   0.00004   0.00004  -1.57736
    Y1       -1.93328  -0.00005   0.00000  -0.00005  -0.00005  -1.93332
    Z1       -1.11975   0.00005   0.00000   0.00005   0.00005  -1.11971
    X2        0.16495  -0.00007   0.00000  -0.00007  -0.00007   0.16488
    Y2       -3.15179   0.00004   0.00000   0.00004   0.00004  -3.15175
    Z2        0.90725  -0.00004   0.00000  -0.00004  -0.00004   0.90721
    X3        2.92776   0.00002   0.00000   0.00002   0.00002   2.92778
    Y3       -2.20435   0.00003   0.00000   0.00003   0.00003  -2.20432
    Z3        0.73415  -0.00001   0.00000  -0.00001  -0.00001   0.73414
    X4       -1.63621   0.00007   0.00000   0.00007   0.00007  -1.63614
    Y4        1.23095   0.00000   0.00000   0.00000   0.00000   1.23095
    Z4       -1.30271  -0.00001   0.00000  -0.00001  -0.00001  -1.30272
    X5        3.07614  -0.00005   0.00000  -0.00005  -0.00005   3.07609
    Y5        0.71295   0.00009   0.00000   0.00009   0.00009   0.71305
    Z5        0.90253  -0.00002   0.00000  -0.00002  -0.00002   0.90251
    X6        1.42162   0.00007   0.00000   0.00007   0.00007   1.42169
    Y6        2.04824  -0.00001   0.00000  -0.00001  -0.00001   2.04823
    Z6       -1.12459   0.00002   0.00000   0.00002   0.00002  -1.12457
    X7       -3.50698  -0.00003   0.00000  -0.00003  -0.00003  -3.50701
    Y7       -2.60413  -0.00003   0.00000  -0.00003  -0.00003  -2.60416
    Z7       -0.82369   0.00003   0.00000   0.00003   0.00003  -0.82367
    X8       -0.98490   0.00002   0.00000   0.00002   0.00002  -0.98488
    Y8       -2.62536  -0.00009   0.00000  -0.00009  -0.00009  -2.62545
    Z8       -2.97242  -0.00005   0.00000  -0.00005  -0.00005  -2.97246
    X9        0.15439  -0.00003   0.00000  -0.00003  -0.00003   0.15437
    Y9       -5.20095  -0.00002   0.00000  -0.00002  -0.00002  -5.20098
    Z9        0.64253  -0.00001   0.00000  -0.00001  -0.00001   0.64252
   X10       -0.57606  -0.00003   0.00000  -0.00003  -0.00003  -0.57608
   Y10       -2.78235  -0.00002   0.00000  -0.00002  -0.00002  -2.78237
   Z10        2.79880  -0.00002   0.00000  -0.00002  -0.00002   2.79877
   X11        3.75898  -0.00004   0.00000  -0.00004  -0.00004   3.75894
   Y11       -2.83251   0.00002   0.00000   0.00002   0.00002  -2.83249
   Z11       -1.05115  -0.00004   0.00000  -0.00004  -0.00004  -1.05120
   X12        4.03125  -0.00004   0.00000  -0.00004  -0.00004   4.03121
   Y12       -3.03353   0.00002   0.00000   0.00002   0.00002  -3.03351
   Z12        2.27131   0.00004   0.00000   0.00004   0.00004   2.27135
   X13        5.04259  -0.00003   0.00000  -0.00003  -0.00003   5.04256
   Y13        1.28844   0.00001   0.00000   0.00001   0.00001   1.28845
   Z13        0.63464  -0.00001   0.00000  -0.00001  -0.00001   0.63464
   X14        2.51867   0.00003   0.00000   0.00003   0.00003   2.51870
   Y14        1.32629   0.00001   0.00000   0.00001   0.00001   1.32630
   Z14        2.79386  -0.00006   0.00000  -0.00006  -0.00006   2.79380
   X15        2.24832   0.00007   0.00000   0.00007   0.00007   2.24839
   Y15        1.66693   0.00001   0.00000   0.00001   0.00001   1.66694
   Z15       -2.97774  -0.00001   0.00000  -0.00001  -0.00001  -2.97775
   X16        1.53428   0.00001   0.00000   0.00001   0.00001   1.53429
   Y16        4.08866  -0.00002   0.00000  -0.00002  -0.00002   4.08864
   Z16       -0.83182   0.00002   0.00000   0.00002   0.00002  -0.83180
   X17       -2.92089   0.00006   0.00000   0.00006   0.00006  -2.92083
   Y17        2.20207  -0.00004   0.00000  -0.00004  -0.00004   2.20203
   Z17        1.40887   0.00000   0.00000   0.00000   0.00000   1.40887
   X18       -1.95383  -0.00007   0.00000  -0.00007  -0.00007  -1.95390
   Y18        1.47571   0.00005   0.00000   0.00005   0.00005   1.47576
   Z18        3.07228   0.00005   0.00000   0.00005   0.00005   3.07232
   X19       -2.88193  -0.00003   0.00000  -0.00003  -0.00003  -2.88197
   Y19        4.26174  -0.00004   0.00000  -0.00004  -0.00004   4.26169
   Z19        1.47274   0.00004   0.00000   0.00004   0.00004   1.47278
   X20       -4.88966   0.00002   0.00000   0.00002   0.00002  -4.88964
   Y20        1.59613   0.00004   0.00000   0.00004   0.00004   1.59617
   Z20        1.47599   0.00005   0.00000   0.00005   0.00005   1.47604
         Item               Value     Threshold  Converged?
 Maximum Force            0.000095     0.000450     YES
 RMS     Force            0.000040     0.000300     YES
 Maximum Displacement     0.000095     0.001800     YES
 RMS     Displacement     0.000040     0.001200     YES
 Predicted change in Energy=-4.752163D-08
 Optimization completed.
    -- Stationary point found.
 GradGradGradGradGradGradGradGradGradGradGradGradGradGradGradGradGradGrad

                          Input orientation:                          
 ---------------------------------------------------------------------
 Center     Atomic     Atomic              Coordinates (Angstroms)
 Number     Number      Type              X           Y           Z
 ---------------------------------------------------------------------
    1          6      10061003       -0.834723   -1.023045   -0.592547
    2          6      10061003        0.087286   -1.667855    0.480098
    3          6      10061003        1.549306   -1.166493    0.388496
    4         15      10151003       -0.865844    0.651392   -0.689366
    5          6      10061003        1.627823    0.377279    0.477599
    6          6      10061003        0.752291    1.083882   -0.595110
    7          1      10011000       -1.855815   -1.378046   -0.435880
    8          1      10011000       -0.521185   -1.389282   -1.572936
    9          1      10011000        0.081701   -2.752226    0.340012
   10          1      10011000       -0.304835   -1.472356    1.481061
   11          1      10011000        1.989165   -1.498898   -0.556246
   12          1      10011000        2.133245   -1.605273    1.201925
   13          1      10011000        2.668422    0.681814    0.335839
   14          1      10011000        1.332824    0.701842    1.478448
   15          1      10011000        1.189758    0.882099   -1.575750
   16          1      10011000        0.811907    2.163624   -0.440180
   17          6      10061003       -1.545669    1.165284    0.745544
   18          1      10011000       -1.033920    0.780911    1.625779
   19          1      10011000       -1.525053    2.255213    0.779341
   20          1      10011000       -2.587495    0.844635    0.781062
 ---------------------------------------------------------------------
                    Distance matrix (angstroms):
                    1          2          3          4          5
     1  C    0.000000
     2  C    1.554493   0.000000
     3  C    2.581979   1.548307   0.000000
     4  P    1.677523   2.766769   3.209274   0.000000
     5  C    3.028243   2.560437   1.548334   2.766825   0.000000
     6  C    2.637757   3.028260   2.582034   1.677585   1.554525
     7  H    1.092337   2.167636   3.509872   2.272205   4.006413
     8  H    1.092519   2.159349   2.860731   2.250296   3.455962
     9  H    2.167848   1.093396   2.161195   3.679956   3.493312
    10  H    2.186895   1.092660   2.173727   3.088007   2.857141
    11  H    2.863931   2.172487   1.093850   3.576667   2.172429
    12  H    3.516811   2.170461   1.093243   4.202863   2.170395
    13  H    4.005055   3.493424   2.161350   3.680082   1.093472
    14  H    3.458687   2.857189   2.173830   3.088058   1.092732
    15  H    2.948692   3.456041   2.860816   2.250423   2.159395
    16  H    3.590190   4.006522   3.510006   2.272397   2.167733
    17  C    2.661713   3.280805   3.891470   1.668896   3.280823
    18  H    2.866166   2.926798   3.463568   2.324849   2.926792
    19  H    3.620167   4.252017   4.616548   2.272422   3.682162
    20  H    2.906413   3.682070   4.616477   2.272352   4.251990
                    6          7          8          9         10
     6  C    0.000000
     7  H    3.590078   0.000000
     8  H    2.948630   1.753357   0.000000
     9  H    4.004980   2.498869   2.424965   0.000000
    10  H    3.458663   2.467609   3.062777   1.757689   0.000000
    11  H    2.863934   3.848762   2.710633   2.452046   3.068186
    12  H    3.516806   4.318176   3.846103   2.503444   2.457605
    13  H    2.167921   5.030635   4.255167   4.299276   3.846068
    14  H    2.186919   4.261221   4.137764   3.846028   2.721961
    15  H    1.092589   3.960186   2.843678   4.255144   4.137796
    16  H    1.092429   4.433980   3.960228   5.030654   4.261294
    17  C    2.661691   2.821432   3.598711   4.261417   3.006293
    18  H    2.866127   3.096295   3.899284   3.921845   2.372703
    19  H    2.906446   3.845352   4.452337   5.277226   3.984484
    20  H    3.620118   2.637539   3.847249   4.500727   3.327008
                   11         12         13         14         15
    11  H    0.000000
    12  H    1.767270   0.000000
    13  H    2.452082   2.503455   0.000000
    14  H    3.068228   2.457625   1.757777   0.000000
    15  H    2.710643   3.846124   2.425022   3.062856   0.000000
    16  H    3.848828   4.318221   2.498923   2.467650   1.753453
    17  C    4.613847   4.628033   4.261474   3.006268   3.598772
    18  H    4.370104   3.988040   3.921874   2.372643   3.899330
    19  H    5.312897   5.335268   4.500835   3.327037   3.847349
    20  H    5.312849   5.335219   5.277252   3.984424   4.452371
                   16         17         18         19         20
    16  H    0.000000
    17  C    2.821487   0.000000
    18  H    3.096314   1.088322   0.000000
    19  H    2.637613   1.090648   1.769530   0.000000
    20  H    3.845399   1.090632   1.769521   1.765932   0.000000
 Stoichiometry    C6H13P
 Framework group  C1[X(C6H13P)]
 Deg. of freedom    54
 Full point group                 C1
 Largest Abelian subgroup         C1      NOp   1
 Largest concise Abelian subgroup C1      NOp   1
                         Standard orientation:                         
 ---------------------------------------------------------------------
 Center     Atomic     Atomic              Coordinates (Angstroms)
 Number     Number      Type              X           Y           Z
 ---------------------------------------------------------------------
    1          6      10061003       -0.116680   -1.318870   -0.559885
    2          6      10061003        1.149097   -1.280224    0.341649
    3          6      10061003        1.993539   -0.000042    0.128798
    4         15      10151003       -1.152049   -0.000031   -0.507377
    5          6      10061003        1.149149    1.280212    0.341617
    6          6      10061003       -0.116680    1.318886   -0.559899
    7          1      10011000       -0.690358   -2.216923   -0.319900
    8          1      10011000        0.209607   -1.421816   -1.597449
    9          1      10011000        1.770361   -2.149599    0.109841
   10          1      10011000        0.865264   -1.360956    1.393708
   11          1      10011000        2.404642    0.000003   -0.884860
   12          1      10011000        2.832403    0.000022    0.829860
   13          1      10011000        1.770422    2.149677    0.109813
   14          1      10011000        0.865248    1.361005    1.393728
   15          1      10011000        0.209645    1.421862   -1.597521
   16          1      10011000       -0.690351    2.217057   -0.319918
   17          6      10061003       -1.791111    0.000039    1.034315
   18          1      10011000       -1.032203    0.000063    1.814381
   19          1      10011000       -2.418943    0.882999    1.159697
   20          1      10011000       -2.418897   -0.882933    1.159705
 ---------------------------------------------------------------------
 Rotational constants (GHZ):      3.2082425      2.0815285      1.6589798
 1|1|UNPC-UNK|FOpt|Dreiding|ZDO|C6H13P1|PCUSER|13-Dec-2007|0||# opt dre
 iding||P-Me-phosphorinane-ax||0,1|C,-0.8347231927,-1.023045178,-0.5925
 47111|C,0.0872861852,-1.66785522,0.480097719|C,1.5493057344,-1.1664932
 955,0.3884963212|P,-0.8658439179,0.6513918435,-0.6893663585|C,1.627823
 2139,0.3772794239,0.4775994021|C,0.7522906487,1.0838815197,-0.59510973
 38|H,-1.8558152922,-1.3780457039,-0.4358796691|H,-0.5211849872,-1.3892
 818137,-1.5729361543|H,0.0817009617,-2.7522261166,0.3400115556|H,-0.30
 48353087,-1.4723559272,1.4810607632|H,1.9891654709,-1.4988977935,-0.55
 62464885|H,2.1332453789,-1.6052731486,1.2019254916|H,2.6684215248,0.68
 18137137,0.3358387884|H,1.3328235517,0.7018418658,1.4784482277|H,1.189
 7584774,0.8820987624,-1.5757499592|H,0.8119066352,2.1636239369,-0.4401
 801906|C,-1.5456693899,1.1652841574,0.7455435401|H,-1.0339198242,0.780
 9109003,1.6257791592|H,-1.5250533934,2.2552131919,0.7793405557|H,-2.58
 74949466,0.8446348815,0.7810617411||Version=IA32W-G03RevD.01|HF=0.0327
 296|RMSD=0.000e+000|RMSF=3.980e-005|Thermal=0.|Dipole=0.,0.,0.|PG=C01 
 [X(C6H13P1)]||@


 The lyf so short, the craft so long to lerne.
                             -- Chaucer
 Job cpu time:  0 days  0 hours  0 minutes  3.0 seconds.
 File lengths (MBytes):  RWF=     11 Int=      0 D2E=      0 Chk=      4 Scr=      1
 Normal termination of Gaussian 03 at Thu Dec 13 16:39:30 2007.
