 Entering Gaussian System, Link 0=g09
 Input=1_2_dichloroethane_g.gjf
 Output=1_2_dichloroethane_g.out
 Initial command:
 /usr/local/g09/l1.exe /home/scratch/stylianakis/Gau-20281.inp -scrdir=/home/scratch/stylianakis/
 Entering Link 1 = /usr/local/g09/l1.exe PID=     20282.
  
 Copyright (c) 1988,1990,1992,1993,1995,1998,2003,2009, Gaussian, Inc.
                  All Rights Reserved.
  
 This is part of the Gaussian(R) 09 program.  It is based on
 the Gaussian(R) 03 system (copyright 2003, Gaussian, Inc.),
 the Gaussian(R) 98 system (copyright 1998, Gaussian, Inc.),
 the Gaussian(R) 94 system (copyright 1995, Gaussian, Inc.),
 the Gaussian 92(TM) system (copyright 1992, Gaussian, Inc.),
 the Gaussian 90(TM) system (copyright 1990, Gaussian, Inc.),
 the Gaussian 88(TM) system (copyright 1988, Gaussian, Inc.),
 the Gaussian 86(TM) system (copyright 1986, Carnegie Mellon
 University), and the Gaussian 82(TM) system (copyright 1983,
 Carnegie Mellon University). Gaussian is a federally registered
 trademark of Gaussian, Inc.
  
 This software contains proprietary and confidential information,
 including trade secrets, belonging to Gaussian, Inc.
  
 This software is provided under written license and may be
 used, copied, transmitted, or stored only in accord with that
 written license.
  
 The following legend is applicable only to US Government
 contracts under FAR:
  
                    RESTRICTED RIGHTS LEGEND
  
 Use, reproduction and disclosure by the US Government is
 subject to restrictions as set forth in subparagraphs (a)
 and (c) of the Commercial Computer Software - Restricted
 Rights clause in FAR 52.227-19.
  
 Gaussian, Inc.
 340 Quinnipiac St., Bldg. 40, Wallingford CT 06492
  
  
 ---------------------------------------------------------------
 Warning -- This program may not be used in any manner that
 competes with the business of Gaussian, Inc. or will provide
 assistance to any competitor of Gaussian, Inc.  The licensee
 of this program is prohibited from giving any competitor of
 Gaussian, Inc. access to this program.  By using this program,
 the user acknowledges that Gaussian, Inc. is engaged in the
 business of creating and licensing software in the field of
 computational chemistry and represents and warrants to the
 licensee that it is not a competitor of Gaussian, Inc. and that
 it will not use this program in any manner prohibited above.
 ---------------------------------------------------------------
  

 Cite this work as:
 Gaussian 09, Revision A.01,
 M. J. Frisch, G. W. Trucks, H. B. Schlegel, G. E. Scuseria, 
 M. A. Robb, J. R. Cheeseman, G. Scalmani, V. Barone, B. Mennucci, 
 G. A. Petersson, H. Nakatsuji, M. Caricato, X. Li, H. P. Hratchian, 
 A. F. Izmaylov, J. Bloino, G. Zheng, J. L. Sonnenberg, M. Hada, 
 M. Ehara, K. Toyota, R. Fukuda, J. Hasegawa, M. Ishida, T. Nakajima, 
 Y. Honda, O. Kitao, H. Nakai, T. Vreven, J. A. Montgomery, Jr., 
 J. E. Peralta, F. Ogliaro, M. Bearpark, J. J. Heyd, E. Brothers, 
 K. N. Kudin, V. N. Staroverov, R. Kobayashi, J. Normand, 
 K. Raghavachari, A. Rendell, J. C. Burant, S. S. Iyengar, J. Tomasi, 
 M. Cossi, N. Rega, J. M. Millam, M. Klene, J. E. Knox, J. B. Cross, 
 V. Bakken, C. Adamo, J. Jaramillo, R. Gomperts, R. E. Stratmann, 
 O. Yazyev, A. J. Austin, R. Cammi, C. Pomelli, J. W. Ochterski, 
 R. L. Martin, K. Morokuma, V. G. Zakrzewski, G. A. Voth, 
 P. Salvador, J. J. Dannenberg, S. Dapprich, A. D. Daniels, 
 O. Farkas, J. B. Foresman, J. V. Ortiz, J. Cioslowski, 
 and D. J. Fox, Gaussian, Inc., Wallingford CT, 2009.
 
 ******************************************
 Gaussian 09:  EM64L-G09RevA.01  8-May-2009
                14-Feb-2016 
 ******************************************
 %mem=8000Mb
 %nproc=4
 Will use up to    4 processors via shared memory.
 -------------
 # mp2/cc-pVTZ
 -------------
 1/38=1/1;
 2/12=2,17=6,18=5,40=1/2;
 3/5=16,6=1,11=9,16=1,25=1,30=1/1,2,3;
 4//1;
 5/5=2,38=5/2;
 8/10=1/1;
 9/16=-3/6;
 6/7=2,8=2,9=2,10=2/1;
 99/5=1,9=1/99;
 ---------------------------------
 1-2-dichloroethane-g_single_point
 ---------------------------------
 Symbolic Z-matrix:
 Charge =  0 Multiplicity = 1
 c
 cl                   1    clc2
 c                    1    cc3      2    cccl3
 cl                   3    clc4     1    clcc4    2    dih4     0
 h                    1    hc5      3    hcc5     4    dih5     0
 h                    1    hc6      3    hcc6     4    dih6     0
 h                    3    hc7      1    hcc7     2    dih7     0
 h                    3    hc8      1    hcc8     2    dih8     0
       Variables:
  clc2                  1.80948                  
  cc3                   1.51518                  
  cccl3               113.098                    
  clc4                  1.80948                  
  clcc4               113.098                    
  dih4                -69.738                    
  hc5                   1.09058                  
  hcc5                111.568                    
  dih5                 51.073                    
  hc6                   1.09301                  
  hcc6                108.96                     
  dih6                171.996                    
  hc7                   1.09058                  
  hcc7                111.568                    
  dih7                 51.073                    
  hc8                   1.09301                  
  hcc8                108.96                     
  dih8                171.996                    
 
                          Input orientation:                          
 ---------------------------------------------------------------------
 Center     Atomic      Atomic             Coordinates (Angstroms)
 Number     Number       Type             X           Y           Z
 ---------------------------------------------------------------------
      1          6           0        0.000000    0.000000    0.000000
      2         17           0        0.000000    0.000000    1.809476
      3          6           0        1.393719    0.000000   -0.594414
      4         17           0        2.272809    1.561425   -0.342695
      5          1           0       -0.572563    0.871074   -0.320570
      6          1           0       -0.518702   -0.910445   -0.310967
      7          1           0        2.012485   -0.789009   -0.165512
      8          1           0        1.318799   -0.143935   -1.675307
 ---------------------------------------------------------------------
                    Distance matrix (angstroms):
                    1          2          3          4          5
     1  C    0.000000
     2  Cl   1.809476   0.000000
     3  C    1.515183   2.778694   0.000000
     4  Cl   2.778695   3.497935   1.809478   0.000000
     5  H    1.090579   2.371433   2.167954   2.928005   0.000000
     6  H    1.093006   2.365214   2.136962   3.728764   1.782358
     7  H    2.167954   2.928004   1.090579   2.371434   3.076099
     8  H    2.136961   3.728761   1.093005   2.365216   2.538268
                    6          7          8
     6  H    0.000000
     7  H    2.538269   0.000000
     8  H    2.413580   1.782358   0.000000
 Stoichiometry    C2H4Cl2
 Framework group  C1[X(C2H4Cl2)]
 Deg. of freedom    18
 Full point group                 C1      NOp   1
 Largest Abelian subgroup         C1      NOp   1
 Largest concise Abelian subgroup C1      NOp   1
                         Standard orientation:                         
 ---------------------------------------------------------------------
 Center     Atomic      Atomic             Coordinates (Angstroms)
 Number     Number       Type             X           Y           Z
 ---------------------------------------------------------------------
      1          6           0       -0.654044    0.894588    0.382326
      2         17           0       -1.747094   -0.471005   -0.080926
      3          6           0        0.654042    0.894589   -0.382326
      4         17           0        1.747095   -0.471004    0.080926
      5          1           0       -0.489598    0.822815    1.458044
      6          1           0       -1.196369    1.816729    0.158270
      7          1           0        0.489596    0.822817   -1.458044
      8          1           0        1.196365    1.816730   -0.158269
 ---------------------------------------------------------------------
 Rotational constants (GHZ):      9.9806936      2.1468046      1.8753781
 Standard basis: CC-pVTZ (5D, 7F)
 There are   184 symmetry adapted basis functions of A   symmetry.
 Integral buffers will be    131072 words long.
 Raffenetti 1 integral format.
 Two-electron integral symmetry is turned on.
   184 basis functions,   360 primitive gaussians,   208 cartesian basis functions
    25 alpha electrons       25 beta electrons
       nuclear repulsion energy       199.9020757501 Hartrees.
 NAtoms=    8 NActive=    8 NUniq=    8 SFac= 7.50D-01 NAtFMM=   80 NAOKFM=F Big=F
 One-electron integrals computed using PRISM.
 NBasis=   184 RedAO= T  NBF=   184
 NBsUse=   184 1.00D-06 NBFU=   184
 Harris functional with IExCor=  205 diagonalized for initial guess.
 ExpMin= 1.03D-01 ExpMax= 4.56D+05 ExpMxC= 1.44D+03 IAcc=2 IRadAn=         0 AccDes= 0.00D+00
 HarFok:  IExCor=  205 AccDes= 0.00D+00 IRadAn=         0 IDoV= 1
 ScaDFX=  1.000000  1.000000  1.000000  1.000000
 FoFCou: FMM=F IPFlag=           0 FMFlag=      100000 FMFlg1=           0
         NFxFlg=           0 DoJE=T BraDBF=F KetDBF=T FulRan=T
         Omega=  0.000000  0.000000  1.000000  0.000000  0.000000 ICntrl=     500 IOpCl=  0
         NMat0=    1 NMatS0=    1 NMatT0=    0 NMatD0=    1 NMtDS0=    0 NMtDT0=    0
         I1Cent=           4 NGrid=           0.
 Petite list used in FoFCou.
 Initial guess orbital symmetries:
       Occupied  (A) (A) (A) (A) (A) (A) (A) (A) (A) (A) (A) (A)
                 (A) (A) (A) (A) (A) (A) (A) (A) (A) (A) (A) (A)
                 (A)
       Virtual   (A) (A) (A) (A) (A) (A) (A) (A) (A) (A) (A) (A)
                 (A) (A) (A) (A) (A) (A) (A) (A) (A) (A) (A) (A)
                 (A) (A) (A) (A) (A) (A) (A) (A) (A) (A) (A) (A)
                 (A) (A) (A) (A) (A) (A) (A) (A) (A) (A) (A) (A)
                 (A) (A) (A) (A) (A) (A) (A) (A) (A) (A) (A) (A)
                 (A) (A) (A) (A) (A) (A) (A) (A) (A) (A) (A) (A)
                 (A) (A) (A) (A) (A) (A) (A) (A) (A) (A) (A) (A)
                 (A) (A) (A) (A) (A) (A) (A) (A) (A) (A) (A) (A)
                 (A) (A) (A) (A) (A) (A) (A) (A) (A) (A) (A) (A)
                 (A) (A) (A) (A) (A) (A) (A) (A) (A) (A) (A) (A)
                 (A) (A) (A) (A) (A) (A) (A) (A) (A) (A) (A) (A)
                 (A) (A) (A) (A) (A) (A) (A) (A) (A) (A) (A) (A)
                 (A) (A) (A) (A) (A) (A) (A) (A) (A) (A) (A) (A)
                 (A) (A) (A)
 The electronic state of the initial guess is 1-A.
 Requested convergence on RMS density matrix=1.00D-08 within 128 cycles.
 Requested convergence on MAX density matrix=1.00D-06.
 Requested convergence on             energy=1.00D-06.
 No special actions if energy rises.
 Keep R1 ints in memory in canonical form, NReq=240952992.
 SCF Done:  E(RHF) =  -997.131615347     A.U. after   11 cycles
             Convg  =    0.3399D-08             -V/T =  2.0002
 ExpMin= 1.03D-01 ExpMax= 4.56D+05 ExpMxC= 1.44D+03 IAcc=3 IRadAn=         5 AccDes= 0.00D+00
 HarFok:  IExCor=  205 AccDes= 0.00D+00 IRadAn=         5 IDoV=-2
 ScaDFX=  1.000000  1.000000  1.000000  1.000000
 Range of M.O.s used for correlation:    13   184
 NBasis=   184 NAE=    25 NBE=    25 NFC=    12 NFV=     0
 NROrb=    172 NOA=    13 NOB=    13 NVA=   159 NVB=   159
 Fully in-core method, ICMem=   498253940.
 JobTyp=1 Pass  1 fully in-core, NPsUse=  4.
 Spin components of T(2) and E(2):
     alpha-alpha T2 =       0.3187601078D-01 E2=     -0.8661637766D-01
     alpha-beta  T2 =       0.1830344045D+00 E2=     -0.5518515198D+00
     beta-beta   T2 =       0.3187601078D-01 E2=     -0.8661637766D-01
 ANorm=    0.1116595910D+01
 E2 =    -0.7250842752D+00 EUMP2 =    -0.99785669962248D+03

 **********************************************************************

            Population analysis using the SCF density.

 **********************************************************************

 Orbital symmetries:
       Occupied  (A) (A) (A) (A) (A) (A) (A) (A) (A) (A) (A) (A)
                 (A) (A) (A) (A) (A) (A) (A) (A) (A) (A) (A) (A)
                 (A)
       Virtual   (A) (A) (A) (A) (A) (A) (A) (A) (A) (A) (A) (A)
                 (A) (A) (A) (A) (A) (A) (A) (A) (A) (A) (A) (A)
                 (A) (A) (A) (A) (A) (A) (A) (A) (A) (A) (A) (A)
                 (A) (A) (A) (A) (A) (A) (A) (A) (A) (A) (A) (A)
                 (A) (A) (A) (A) (A) (A) (A) (A) (A) (A) (A) (A)
                 (A) (A) (A) (A) (A) (A) (A) (A) (A) (A) (A) (A)
                 (A) (A) (A) (A) (A) (A) (A) (A) (A) (A) (A) (A)
                 (A) (A) (A) (A) (A) (A) (A) (A) (A) (A) (A) (A)
                 (A) (A) (A) (A) (A) (A) (A) (A) (A) (A) (A) (A)
                 (A) (A) (A) (A) (A) (A) (A) (A) (A) (A) (A) (A)
                 (A) (A) (A) (A) (A) (A) (A) (A) (A) (A) (A) (A)
                 (A) (A) (A) (A) (A) (A) (A) (A) (A) (A) (A) (A)
                 (A) (A) (A) (A) (A) (A) (A) (A) (A) (A) (A) (A)
                 (A) (A) (A)
 The electronic state is 1-A.
 Alpha  occ. eigenvalues -- -104.83019-104.83019 -11.31685 -11.31620 -10.55504
 Alpha  occ. eigenvalues --  -10.55504  -8.02180  -8.02180  -8.02003  -8.02003
 Alpha  occ. eigenvalues --   -8.01998  -8.01998  -1.16651  -1.10767  -0.98496
 Alpha  occ. eigenvalues --   -0.84470  -0.66559  -0.65080  -0.59963  -0.54087
 Alpha  occ. eigenvalues --   -0.52754  -0.45397  -0.44727  -0.43814  -0.43664
 Alpha virt. eigenvalues --    0.12217   0.16652   0.17171   0.17981   0.19832
 Alpha virt. eigenvalues --    0.19962   0.28423   0.37115   0.38229   0.40306
 Alpha virt. eigenvalues --    0.43865   0.44187   0.45049   0.45862   0.47946
 Alpha virt. eigenvalues --    0.50898   0.51409   0.52256   0.56720   0.57829
 Alpha virt. eigenvalues --    0.58814   0.60295   0.62927   0.63021   0.63616
 Alpha virt. eigenvalues --    0.64690   0.66512   0.68950   0.71512   0.74751
 Alpha virt. eigenvalues --    0.81510   0.85674   0.86860   0.91323   0.92403
 Alpha virt. eigenvalues --    0.94946   0.99504   1.06471   1.10512   1.18319
 Alpha virt. eigenvalues --    1.18387   1.21059   1.23863   1.24367   1.26317
 Alpha virt. eigenvalues --    1.28405   1.31125   1.32947   1.34582   1.35708
 Alpha virt. eigenvalues --    1.45272   1.48556   1.50092   1.50414   1.56122
 Alpha virt. eigenvalues --    1.64941   1.66102   1.75137   1.77165   2.22716
 Alpha virt. eigenvalues --    2.23526   2.25658   2.26623   2.27348   2.29133
 Alpha virt. eigenvalues --    2.29628   2.30829   2.31875   2.34537   2.34666
 Alpha virt. eigenvalues --    2.36483   2.40767   2.40871   2.41822   2.42110
 Alpha virt. eigenvalues --    2.42723   2.46049   2.49107   2.51624   2.54024
 Alpha virt. eigenvalues --    2.56983   2.57775   2.58916   2.62164   2.63593
 Alpha virt. eigenvalues --    2.64726   2.65334   2.66899   2.67138   2.71381
 Alpha virt. eigenvalues --    2.76248   2.78238   2.81174   2.85633   2.92166
 Alpha virt. eigenvalues --    2.99251   3.03260   3.05626   3.18216   3.20486
 Alpha virt. eigenvalues --    3.22360   3.30888   3.34168   3.34755   3.36646
 Alpha virt. eigenvalues --    3.41509   3.41601   3.46728   3.49022   3.52300
 Alpha virt. eigenvalues --    3.55138   3.61194   3.63506   3.76559   3.77473
 Alpha virt. eigenvalues --    3.78808   3.81372   3.88286   3.88539   4.02378
 Alpha virt. eigenvalues --    4.03098   4.05202   4.08990   4.10970   4.16412
 Alpha virt. eigenvalues --    4.17664   4.26966   4.27405   4.29295   4.31738
 Alpha virt. eigenvalues --    4.36450   4.43294   4.46442   4.48920   4.52633
 Alpha virt. eigenvalues --    4.54385   4.62862   4.70619   4.75284   4.93496
 Alpha virt. eigenvalues --    5.03926   5.14563   5.16630   5.18822   5.21420
 Alpha virt. eigenvalues --    5.29217   5.33203   5.43658   5.43807   5.55580
 Alpha virt. eigenvalues --    5.63756   5.64965   5.72827   5.75471   5.89855
 Alpha virt. eigenvalues --    6.23812   6.23920  12.03557  12.72232
          Condensed to atoms (all electrons):
              1          2          3          4          5          6
     1  C    4.728571   0.255686   0.350765  -0.050873   0.419493   0.425670
     2  Cl   0.255686  17.058605  -0.050873  -0.002219  -0.033282  -0.033194
     3  C    0.350765  -0.050873   4.728571   0.255686  -0.029028  -0.032981
     4  Cl  -0.050873  -0.002219   0.255686  17.058605   0.000355   0.004354
     5  H    0.419493  -0.033282  -0.029028   0.000355   0.532520  -0.028397
     6  H    0.425670  -0.033194  -0.032981   0.004354  -0.028397   0.538118
     7  H   -0.029028   0.000355   0.419493  -0.033282   0.006240  -0.002826
     8  H   -0.032981   0.004354   0.425670  -0.033194  -0.002826  -0.002554
              7          8
     1  C   -0.029028  -0.032981
     2  Cl   0.000355   0.004354
     3  C    0.419493   0.425670
     4  Cl  -0.033282  -0.033194
     5  H    0.006240  -0.002826
     6  H   -0.002826  -0.002554
     7  H    0.532520  -0.028397
     8  H   -0.028397   0.538117
 Mulliken atomic charges:
              1
     1  C   -0.067304
     2  Cl  -0.199431
     3  C   -0.067304
     4  Cl  -0.199432
     5  H    0.134925
     6  H    0.131810
     7  H    0.134925
     8  H    0.131810
 Sum of Mulliken atomic charges =   0.00000
 Mulliken charges with hydrogens summed into heavy atoms:
              1
     1  C    0.199431
     2  Cl  -0.199431
     3  C    0.199431
     4  Cl  -0.199432
 Sum of Mulliken charges with hydrogens summed into heavy atoms =   0.00000
 Electronic spatial extent (au):  <R**2>=            599.4301
 Charge=              0.0000 electrons
 Dipole moment (field-independent basis, Debye):
    X=              0.0000    Y=              3.0887    Z=              0.0000  Tot=              3.0887
 Quadrupole moment (field-independent basis, Debye-Ang):
   XX=            -43.5213   YY=            -35.4398   ZZ=            -37.3864
   XY=              0.0000   XZ=             -0.6515   YZ=              0.0000
 Traceless Quadrupole moment (field-independent basis, Debye-Ang):
   XX=             -4.7388   YY=              3.3427   ZZ=              1.3961
   XY=              0.0000   XZ=             -0.6515   YZ=              0.0000
 Octapole moment (field-independent basis, Debye-Ang**2):
  XXX=              0.0000  YYY=              1.9374  ZZZ=              0.0000  XYY=              0.0000
  XXY=              0.2396  XXZ=              0.0000  XZZ=              0.0000  YZZ=              0.7884
  YYZ=              0.0000  XYZ=             -1.5889
 Hexadecapole moment (field-independent basis, Debye-Ang**3):
 XXXX=           -569.8273 YYYY=           -146.7371 ZZZZ=            -64.4133 XXXY=              0.0000
 XXXZ=              4.0267 YYYX=              0.0000 YYYZ=              0.0000 ZZZX=             -1.4580
 ZZZY=              0.0000 XXYY=           -106.2540 XXZZ=           -106.3951 YYZZ=            -38.0987
 XXYZ=              0.0000 YYXZ=              2.1099 ZZXY=              0.0000
 N-N= 1.999020757501D+02 E-N=-2.770212905963D+03  KE= 9.969284189056D+02
 1\1\GINC-ROCK\SP\RMP2-FC\CC-pVTZ\C2H4Cl2\STYLIANAKIS\14-Feb-2016\0\\# 
 mp2/cc-pVTZ\\1-2-dichloroethane-g_single_point\\0,1\C\Cl,1,1.809476\C,
 1,1.515183,2,113.098\Cl,3,1.809478,1,113.098,2,-69.738,0\H,1,1.090579,
 3,111.568,4,51.073,0\H,1,1.093006,3,108.96,4,171.996,0\H,3,1.090579,1,
 111.568,2,51.073,0\H,3,1.093005,1,108.96,2,171.996,0\\Version=EM64L-G0
 9RevA.01\State=1-A\HF=-997.1316153\MP2=-997.8566996\RMSD=3.399e-09\PG=
 C01 [X(C2H4Cl2)]\\@


 NEVER LOSE YOUR IGNORANCE, IT CAN'T BE REPLACED.
   -- ANDY CAPP
 Job cpu time:  0 days  0 hours  7 minutes  7.3 seconds.
 File lengths (MBytes):  RWF=     15 Int=      0 D2E=      0 Chk=      3 Scr=      1
 Normal termination of Gaussian 09 at Sun Feb 14 21:33:00 2016.
