 Entering Gaussian System, Link 0=g09
 Input=chloropropane_a.gjf
 Output=chloropropane_a.out
 Initial command:
 /usr/local/g09/l1.exe /home/scratch/stylianakis/Gau-20695.inp -scrdir=/home/scratch/stylianakis/
 Entering Link 1 = /usr/local/g09/l1.exe PID=     20696.
  
 Copyright (c) 1988,1990,1992,1993,1995,1998,2003,2009, Gaussian, Inc.
                  All Rights Reserved.
  
 This is part of the Gaussian(R) 09 program.  It is based on
 the Gaussian(R) 03 system (copyright 2003, Gaussian, Inc.),
 the Gaussian(R) 98 system (copyright 1998, Gaussian, Inc.),
 the Gaussian(R) 94 system (copyright 1995, Gaussian, Inc.),
 the Gaussian 92(TM) system (copyright 1992, Gaussian, Inc.),
 the Gaussian 90(TM) system (copyright 1990, Gaussian, Inc.),
 the Gaussian 88(TM) system (copyright 1988, Gaussian, Inc.),
 the Gaussian 86(TM) system (copyright 1986, Carnegie Mellon
 University), and the Gaussian 82(TM) system (copyright 1983,
 Carnegie Mellon University). Gaussian is a federally registered
 trademark of Gaussian, Inc.
  
 This software contains proprietary and confidential information,
 including trade secrets, belonging to Gaussian, Inc.
  
 This software is provided under written license and may be
 used, copied, transmitted, or stored only in accord with that
 written license.
  
 The following legend is applicable only to US Government
 contracts under FAR:
  
                    RESTRICTED RIGHTS LEGEND
  
 Use, reproduction and disclosure by the US Government is
 subject to restrictions as set forth in subparagraphs (a)
 and (c) of the Commercial Computer Software - Restricted
 Rights clause in FAR 52.227-19.
  
 Gaussian, Inc.
 340 Quinnipiac St., Bldg. 40, Wallingford CT 06492
  
  
 ---------------------------------------------------------------
 Warning -- This program may not be used in any manner that
 competes with the business of Gaussian, Inc. or will provide
 assistance to any competitor of Gaussian, Inc.  The licensee
 of this program is prohibited from giving any competitor of
 Gaussian, Inc. access to this program.  By using this program,
 the user acknowledges that Gaussian, Inc. is engaged in the
 business of creating and licensing software in the field of
 computational chemistry and represents and warrants to the
 licensee that it is not a competitor of Gaussian, Inc. and that
 it will not use this program in any manner prohibited above.
 ---------------------------------------------------------------
  

 Cite this work as:
 Gaussian 09, Revision A.01,
 M. J. Frisch, G. W. Trucks, H. B. Schlegel, G. E. Scuseria, 
 M. A. Robb, J. R. Cheeseman, G. Scalmani, V. Barone, B. Mennucci, 
 G. A. Petersson, H. Nakatsuji, M. Caricato, X. Li, H. P. Hratchian, 
 A. F. Izmaylov, J. Bloino, G. Zheng, J. L. Sonnenberg, M. Hada, 
 M. Ehara, K. Toyota, R. Fukuda, J. Hasegawa, M. Ishida, T. Nakajima, 
 Y. Honda, O. Kitao, H. Nakai, T. Vreven, J. A. Montgomery, Jr., 
 J. E. Peralta, F. Ogliaro, M. Bearpark, J. J. Heyd, E. Brothers, 
 K. N. Kudin, V. N. Staroverov, R. Kobayashi, J. Normand, 
 K. Raghavachari, A. Rendell, J. C. Burant, S. S. Iyengar, J. Tomasi, 
 M. Cossi, N. Rega, J. M. Millam, M. Klene, J. E. Knox, J. B. Cross, 
 V. Bakken, C. Adamo, J. Jaramillo, R. Gomperts, R. E. Stratmann, 
 O. Yazyev, A. J. Austin, R. Cammi, C. Pomelli, J. W. Ochterski, 
 R. L. Martin, K. Morokuma, V. G. Zakrzewski, G. A. Voth, 
 P. Salvador, J. J. Dannenberg, S. Dapprich, A. D. Daniels, 
 O. Farkas, J. B. Foresman, J. V. Ortiz, J. Cioslowski, 
 and D. J. Fox, Gaussian, Inc., Wallingford CT, 2009.
 
 ******************************************
 Gaussian 09:  EM64L-G09RevA.01  8-May-2009
                14-Feb-2016 
 ******************************************
 %mem=8000Mb
 %nproc=4
 Will use up to    4 processors via shared memory.
 -------------
 # mp2/cc-pVTZ
 -------------
 1/38=1/1;
 2/12=2,17=6,18=5,40=1/2;
 3/5=16,6=1,11=9,16=1,25=1,30=1/1,2,3;
 4//1;
 5/5=2,38=5/2;
 8/10=1/1;
 9/16=-3/6;
 6/7=2,8=2,9=2,10=2/1;
 99/5=1,9=1/99;
 ----------------------------
 chloropropane-a_single_point
 ----------------------------
 Symbolic Z-matrix:
 Charge =  0 Multiplicity = 1
 c
 cl                   1    clc2
 c                    1    cc3      2    cccl3
 c                    3    cc4      1    ccc4     2    dih4     0
 h                    1    hc5      3    hcc5     4    dih5     0
 h                    1    hc6      3    hcc6     4    dih6     0
 h                    3    hc7      1    hcc7     2    dih7     0
 h                    3    hc8      1    hcc8     2    dih8     0
 h                    4    hc9      3    hcc9     1    dih9     0
 h                    4    hc10     3    hcc10    1    dih10    0
 h                    4    hc11     3    hcc11    1    dih11    0
       Variables:
  clc2                  1.82127                  
  cc3                   1.52317                  
  cccl3               111.929                    
  cc4                   1.53496                  
  ccc4                111.325                    
  dih4                179.999                    
  hc5                   1.09208                  
  hcc5                111.786                    
  dih5                -61.207                    
  hc6                   1.09209                  
  hcc6                111.784                    
  dih6                 61.205                    
  hc7                   1.09573                  
  hcc7                109.145                    
  dih7                -58.214                    
  hc8                   1.09572                  
  hcc8                109.146                    
  dih8                 58.21                     
  hc9                   1.09457                  
  hcc9                110.571                    
  dih9                180.                       
  hc10                  1.09592                  
  hcc10               111.482                    
  dih10               -60.285                    
  hc11                  1.09593                  
  hcc11               111.483                    
  dih11                60.287                    
 
                          Input orientation:                          
 ---------------------------------------------------------------------
 Center     Atomic      Atomic             Coordinates (Angstroms)
 Number     Number       Type             X           Y           Z
 ---------------------------------------------------------------------
      1          6           0        0.000000    0.000000    0.000000
      2         17           0        0.000000    0.000000    1.821267
      3          6           0        1.412962    0.000000   -0.568838
      4          6           0        1.396781   -0.000025   -2.103708
      5          1           0       -0.558404    0.888699   -0.301736
      6          1           0       -0.558378   -0.888717   -0.301758
      7          1           0        1.949947    0.879883   -0.197240
      8          1           0        1.949978   -0.879827   -0.197198
      9          1           0        2.417444   -0.000025   -2.499084
     10          1           0        0.887087   -0.885726   -2.499679
     11          1           0        0.887109    0.885670   -2.499727
 ---------------------------------------------------------------------
                    Distance matrix (angstroms):
                    1          2          3          4          5
     1  C    0.000000
     2  Cl   1.821267   0.000000
     3  C    1.523167   2.776520   0.000000
     4  C    2.525190   4.166104   1.534955   0.000000
     5  H    1.092083   2.368279   2.178856   2.803512   0.000000
     6  H    1.092091   2.368299   2.178837   2.803470   1.777416
     7  H    2.148346   2.941234   1.095734   2.171371   2.510543
     8  H    2.148347   2.941209   1.095718   2.171372   3.070927
     9  H    3.476989   4.950704   2.175967   1.094566   3.804450
    10  H    2.796396   4.499112   2.188425   1.095923   3.173166
    11  H    2.796427   4.499151   2.188439   1.095925   2.630719
                    6          7          8          9         10
     6  H    0.000000
     7  H    3.070923   0.000000
     8  H    2.510550   1.759710   0.000000
     9  H    3.804410   2.508242   2.508238   0.000000
    10  H    2.630634   3.090028   2.535979   1.768179   0.000000
    11  H    3.173161   2.535962   3.090033   1.768157   1.771396
                   11
    11  H    0.000000
 Stoichiometry    C3H7Cl
 Framework group  C1[X(C3H7Cl)]
 Deg. of freedom    27
 Full point group                 C1      NOp   1
 Largest Abelian subgroup         C1      NOp   1
 Largest concise Abelian subgroup C1      NOp   1
                         Standard orientation:                         
 ---------------------------------------------------------------------
 Center     Atomic      Atomic             Coordinates (Angstroms)
 Number     Number       Type             X           Y           Z
 ---------------------------------------------------------------------
      1          6           0       -0.069785    0.583589    0.000011
      2         17           0       -1.759420   -0.096226   -0.000004
      3          6           0        0.985349   -0.514924    0.000003
      4          6           0        2.403246    0.072999   -0.000009
      5          1           0        0.001707    1.214252    0.888717
      6          1           0        0.001744    1.214255   -0.888699
      7          1           0        0.841041   -1.151813    0.879879
      8          1           0        0.841022   -1.151838   -0.879832
      9          1           0        3.151024   -0.726315   -0.000014
     10          1           0        2.580352    0.693667   -0.885702
     11          1           0        2.580396    0.693645    0.885693
 ---------------------------------------------------------------------
 Rotational constants (GHZ):     25.8830178      2.3276265      2.2245712
 Standard basis: CC-pVTZ (5D, 7F)
 There are   222 symmetry adapted basis functions of A   symmetry.
 Integral buffers will be    131072 words long.
 Raffenetti 1 integral format.
 Two-electron integral symmetry is turned on.
   222 basis functions,   369 primitive gaussians,   249 cartesian basis functions
    21 alpha electrons       21 beta electrons
       nuclear repulsion energy       157.3928645547 Hartrees.
 NAtoms=   11 NActive=   11 NUniq=   11 SFac= 7.50D-01 NAtFMM=   80 NAOKFM=F Big=F
 One-electron integrals computed using PRISM.
 NBasis=   222 RedAO= T  NBF=   222
 NBsUse=   222 1.00D-06 NBFU=   222
 Harris functional with IExCor=  205 diagonalized for initial guess.
 ExpMin= 1.03D-01 ExpMax= 4.56D+05 ExpMxC= 1.44D+03 IAcc=2 IRadAn=         0 AccDes= 0.00D+00
 HarFok:  IExCor=  205 AccDes= 0.00D+00 IRadAn=         0 IDoV= 1
 ScaDFX=  1.000000  1.000000  1.000000  1.000000
 FoFCou: FMM=F IPFlag=           0 FMFlag=      100000 FMFlg1=           0
         NFxFlg=           0 DoJE=T BraDBF=F KetDBF=T FulRan=T
         Omega=  0.000000  0.000000  1.000000  0.000000  0.000000 ICntrl=     500 IOpCl=  0
         NMat0=    1 NMatS0=    1 NMatT0=    0 NMatD0=    1 NMtDS0=    0 NMtDT0=    0
         I1Cent=           4 NGrid=           0.
 Petite list used in FoFCou.
 Initial guess orbital symmetries:
       Occupied  (A) (A) (A) (A) (A) (A) (A) (A) (A) (A) (A) (A)
                 (A) (A) (A) (A) (A) (A) (A) (A) (A)
       Virtual   (A) (A) (A) (A) (A) (A) (A) (A) (A) (A) (A) (A)
                 (A) (A) (A) (A) (A) (A) (A) (A) (A) (A) (A) (A)
                 (A) (A) (A) (A) (A) (A) (A) (A) (A) (A) (A) (A)
                 (A) (A) (A) (A) (A) (A) (A) (A) (A) (A) (A) (A)
                 (A) (A) (A) (A) (A) (A) (A) (A) (A) (A) (A) (A)
                 (A) (A) (A) (A) (A) (A) (A) (A) (A) (A) (A) (A)
                 (A) (A) (A) (A) (A) (A) (A) (A) (A) (A) (A) (A)
                 (A) (A) (A) (A) (A) (A) (A) (A) (A) (A) (A) (A)
                 (A) (A) (A) (A) (A) (A) (A) (A) (A) (A) (A) (A)
                 (A) (A) (A) (A) (A) (A) (A) (A) (A) (A) (A) (A)
                 (A) (A) (A) (A) (A) (A) (A) (A) (A) (A) (A) (A)
                 (A) (A) (A) (A) (A) (A) (A) (A) (A) (A) (A) (A)
                 (A) (A) (A) (A) (A) (A) (A) (A) (A) (A) (A) (A)
                 (A) (A) (A) (A) (A) (A) (A) (A) (A) (A) (A) (A)
                 (A) (A) (A) (A) (A) (A) (A) (A) (A) (A) (A) (A)
                 (A) (A) (A) (A) (A) (A) (A) (A) (A) (A) (A) (A)
                 (A) (A) (A) (A) (A) (A) (A) (A) (A)
 The electronic state of the initial guess is 1-A.
 Requested convergence on RMS density matrix=1.00D-08 within 128 cycles.
 Requested convergence on MAX density matrix=1.00D-06.
 Requested convergence on             energy=1.00D-06.
 No special actions if energy rises.
 Keep R1 ints in memory in canonical form, NReq=492418229.
 SCF Done:  E(RHF) =  -577.246340270     A.U. after   11 cycles
             Convg  =    0.8250D-08             -V/T =  2.0004
 ExpMin= 1.03D-01 ExpMax= 4.56D+05 ExpMxC= 1.44D+03 IAcc=3 IRadAn=         5 AccDes= 0.00D+00
 HarFok:  IExCor=  205 AccDes= 0.00D+00 IRadAn=         5 IDoV=-2
 ScaDFX=  1.000000  1.000000  1.000000  1.000000
 Range of M.O.s used for correlation:     9   222
 NBasis=   222 NAE=    21 NBE=    21 NFC=     8 NFV=     0
 NROrb=    214 NOA=    13 NOB=    13 NVA=   201 NVB=   201

 **** Warning!!: The largest alpha MO coefficient is  0.11892563D+02

 Fully in-core method, ICMem=  1006860873.
 JobTyp=1 Pass  1 fully in-core, NPsUse=  4.
 Spin components of T(2) and E(2):
     alpha-alpha T2 =       0.2881313927D-01 E2=     -0.8136703324D-01
     alpha-beta  T2 =       0.1773386600D+00 E2=     -0.5582961404D+00
     beta-beta   T2 =       0.2881313927D-01 E2=     -0.8136703324D-01
 ANorm=    0.1111289764D+01
 E2 =    -0.7210302069D+00 EUMP2 =    -0.57796737047646D+03

 **********************************************************************

            Population analysis using the SCF density.

 **********************************************************************

 Orbital symmetries:
       Occupied  (A) (A) (A) (A) (A) (A) (A) (A) (A) (A) (A) (A)
                 (A) (A) (A) (A) (A) (A) (A) (A) (A)
       Virtual   (A) (A) (A) (A) (A) (A) (A) (A) (A) (A) (A) (A)
                 (A) (A) (A) (A) (A) (A) (A) (A) (A) (A) (A) (A)
                 (A) (A) (A) (A) (A) (A) (A) (A) (A) (A) (A) (A)
                 (A) (A) (A) (A) (A) (A) (A) (A) (A) (A) (A) (A)
                 (A) (A) (A) (A) (A) (A) (A) (A) (A) (A) (A) (A)
                 (A) (A) (A) (A) (A) (A) (A) (A) (A) (A) (A) (A)
                 (A) (A) (A) (A) (A) (A) (A) (A) (A) (A) (A) (A)
                 (A) (A) (A) (A) (A) (A) (A) (A) (A) (A) (A) (A)
                 (A) (A) (A) (A) (A) (A) (A) (A) (A) (A) (A) (A)
                 (A) (A) (A) (A) (A) (A) (A) (A) (A) (A) (A) (A)
                 (A) (A) (A) (A) (A) (A) (A) (A) (A) (A) (A) (A)
                 (A) (A) (A) (A) (A) (A) (A) (A) (A) (A) (A) (A)
                 (A) (A) (A) (A) (A) (A) (A) (A) (A) (A) (A) (A)
                 (A) (A) (A) (A) (A) (A) (A) (A) (A) (A) (A) (A)
                 (A) (A) (A) (A) (A) (A) (A) (A) (A) (A) (A) (A)
                 (A) (A) (A) (A) (A) (A) (A) (A) (A) (A) (A) (A)
                 (A) (A) (A) (A) (A) (A) (A) (A) (A)
 The electronic state is 1-A.
 Alpha  occ. eigenvalues -- -104.81499 -11.29435 -11.24014 -11.23010 -10.53995
 Alpha  occ. eigenvalues --   -8.00668  -8.00502  -8.00500  -1.12953  -1.04211
 Alpha  occ. eigenvalues --   -0.91234  -0.81804  -0.66054  -0.60125  -0.57595
 Alpha  occ. eigenvalues --   -0.57345  -0.51145  -0.49536  -0.49230  -0.42858
 Alpha  occ. eigenvalues --   -0.42704
 Alpha virt. eigenvalues --    0.12727   0.16975   0.17526   0.18201   0.19641
 Alpha virt. eigenvalues --    0.22522   0.22833   0.24378   0.29279   0.33102
 Alpha virt. eigenvalues --    0.36239   0.38495   0.41475   0.43362   0.43932
 Alpha virt. eigenvalues --    0.44761   0.49550   0.50351   0.52511   0.53488
 Alpha virt. eigenvalues --    0.57054   0.57146   0.60741   0.62138   0.62828
 Alpha virt. eigenvalues --    0.64471   0.65182   0.66455   0.66643   0.66798
 Alpha virt. eigenvalues --    0.69620   0.71372   0.76211   0.77309   0.85492
 Alpha virt. eigenvalues --    0.88861   0.89589   0.90198   0.94432   0.94812
 Alpha virt. eigenvalues --    1.00523   1.05792   1.08444   1.11108   1.15371
 Alpha virt. eigenvalues --    1.18562   1.21059   1.23653   1.23697   1.24806
 Alpha virt. eigenvalues --    1.27563   1.28188   1.33895   1.34297   1.35188
 Alpha virt. eigenvalues --    1.37105   1.37912   1.38798   1.44076   1.46529
 Alpha virt. eigenvalues --    1.47971   1.50469   1.52023   1.54755   1.56133
 Alpha virt. eigenvalues --    1.58434   1.62660   1.67148   1.70451   1.73984
 Alpha virt. eigenvalues --    1.78069   1.80453   1.83566   1.87301   2.28076
 Alpha virt. eigenvalues --    2.28722   2.30557   2.32470   2.34580   2.38935
 Alpha virt. eigenvalues --    2.41701   2.43433   2.44395   2.49822   2.53316
 Alpha virt. eigenvalues --    2.56583   2.57927   2.59406   2.60055   2.62301
 Alpha virt. eigenvalues --    2.65790   2.66225   2.68979   2.72352   2.74602
 Alpha virt. eigenvalues --    2.77537   2.79802   2.83978   2.88431   2.89662
 Alpha virt. eigenvalues --    2.96235   2.98012   3.00251   3.03690   3.09486
 Alpha virt. eigenvalues --    3.11104   3.13986   3.15724   3.20435   3.24760
 Alpha virt. eigenvalues --    3.28203   3.28497   3.30183   3.33628   3.38085
 Alpha virt. eigenvalues --    3.38616   3.38729   3.40424   3.42233   3.46017
 Alpha virt. eigenvalues --    3.47702   3.48300   3.51204   3.55191   3.55359
 Alpha virt. eigenvalues --    3.62352   3.65915   3.69116   3.74546   3.74868
 Alpha virt. eigenvalues --    3.79841   3.80433   3.80595   3.84672   3.85681
 Alpha virt. eigenvalues --    3.88554   3.95096   4.02282   4.03209   4.09065
 Alpha virt. eigenvalues --    4.09648   4.10171   4.10589   4.13510   4.15509
 Alpha virt. eigenvalues --    4.17182   4.20226   4.22317   4.25609   4.27077
 Alpha virt. eigenvalues --    4.31030   4.32475   4.36039   4.37964   4.40669
 Alpha virt. eigenvalues --    4.41992   4.45438   4.46956   4.51180   4.53381
 Alpha virt. eigenvalues --    4.54105   4.58140   4.59778   4.60826   4.68643
 Alpha virt. eigenvalues --    4.71918   4.78210   4.87652   4.91340   4.94843
 Alpha virt. eigenvalues --    5.03560   5.09888   5.13269   5.17940   5.18780
 Alpha virt. eigenvalues --    5.19643   5.23260   5.24213   5.32002   5.37391
 Alpha virt. eigenvalues --    5.43173   5.49816   5.53376   5.55668   5.64812
 Alpha virt. eigenvalues --    5.68605   5.69357   5.70879   5.76928   5.81108
 Alpha virt. eigenvalues --    5.81918   5.83967   5.85793   5.96197   6.26015
 Alpha virt. eigenvalues --    6.27145   6.28519   6.35366  12.35818  13.23506
 Alpha virt. eigenvalues --   13.92780
          Condensed to atoms (all electrons):
              1          2          3          4          5          6
     1  C    4.712032   0.254261   0.353922  -0.043311   0.424389   0.424387
     2  Cl   0.254261  17.106269  -0.055258   0.003110  -0.035997  -0.035997
     3  C    0.353922  -0.055258   4.845000   0.342530  -0.031864  -0.031868
     4  C   -0.043311   0.003110   0.342530   4.802577  -0.000520  -0.000520
     5  H    0.424389  -0.035997  -0.031864  -0.000520   0.553642  -0.033723
     6  H    0.424387  -0.035997  -0.031868  -0.000520  -0.033723   0.553653
     7  H   -0.034156   0.001312   0.418586  -0.030765  -0.005069   0.006279
     8  H   -0.034154   0.001312   0.418589  -0.030763   0.006278  -0.005068
     9  H    0.005958  -0.000321  -0.034369   0.422536  -0.000048  -0.000048
    10  H   -0.003095   0.000083  -0.035047   0.415016  -0.000205   0.001523
    11  H   -0.003095   0.000083  -0.035045   0.415016   0.001523  -0.000205
              7          8          9         10         11
     1  C   -0.034156  -0.034154   0.005958  -0.003095  -0.003095
     2  Cl   0.001312   0.001312  -0.000321   0.000083   0.000083
     3  C    0.418586   0.418589  -0.034369  -0.035047  -0.035045
     4  C   -0.030765  -0.030763   0.422536   0.415016   0.415016
     5  H   -0.005069   0.006278  -0.000048  -0.000205   0.001523
     6  H    0.006279  -0.005068  -0.000048   0.001523  -0.000205
     7  H    0.571789  -0.031420  -0.004577   0.006094  -0.004475
     8  H   -0.031420   0.571771  -0.004577  -0.004475   0.006094
     9  H   -0.004577  -0.004577   0.566067  -0.029499  -0.029502
    10  H    0.006094  -0.004475  -0.029499   0.593083  -0.034329
    11  H   -0.004475   0.006094  -0.029502  -0.034329   0.593084
 Mulliken atomic charges:
              1
     1  C   -0.057137
     2  Cl  -0.238858
     3  C   -0.155177
     4  C   -0.294907
     5  H    0.121594
     6  H    0.121587
     7  H    0.106402
     8  H    0.106413
     9  H    0.108380
    10  H    0.090851
    11  H    0.090852
 Sum of Mulliken atomic charges =   0.00000
 Mulliken charges with hydrogens summed into heavy atoms:
              1
     1  C    0.186044
     2  Cl  -0.238858
     3  C    0.057638
     4  C   -0.004824
 Sum of Mulliken charges with hydrogens summed into heavy atoms =   0.00000
 Electronic spatial extent (au):  <R**2>=            552.3194
 Charge=              0.0000 electrons
 Dipole moment (field-independent basis, Debye):
    X=              2.4117    Y=              0.6334    Z=              0.0000  Tot=              2.4935
 Quadrupole moment (field-independent basis, Debye-Ang):
   XX=            -36.4463   YY=            -32.7808   ZZ=            -32.8870
   XY=             -0.3079   XZ=              0.0000   YZ=              0.0000
 Traceless Quadrupole moment (field-independent basis, Debye-Ang):
   XX=             -2.4083   YY=              1.2572   ZZ=              1.1510
   XY=             -0.3079   XZ=              0.0000   YZ=              0.0000
 Octapole moment (field-independent basis, Debye-Ang**2):
  XXX=             -2.9062  YYY=              0.5024  ZZZ=              0.0001  XYY=             -1.1900
  XXY=             -2.7000  XXZ=              0.0002  XZZ=             -0.7648  YZZ=              1.1040
  YYZ=             -0.0001  XYZ=             -0.0001
 Hexadecapole moment (field-independent basis, Debye-Ang**3):
 XXXX=           -600.4596 YYYY=            -88.3229 ZZZZ=            -55.6701 XXXY=              0.9501
 XXXZ=              0.0010 YYYX=             -1.1329 YYYZ=              0.0003 ZZZX=              0.0001
 ZZZY=              0.0001 XXYY=           -114.0364 XXZZ=           -111.6773 YYZZ=            -21.4167
 XXYZ=              0.0001 YYXZ=             -0.0001 ZZXY=              0.9133
 N-N= 1.573928645547D+02 E-N=-1.682676983813D+03  KE= 5.770069471987D+02
 1\1\GINC-ROCK\SP\RMP2-FC\CC-pVTZ\C3H7Cl1\STYLIANAKIS\14-Feb-2016\0\\# 
 mp2/cc-pVTZ\\chloropropane-a_single_point\\0,1\C\Cl,1,1.821267\C,1,1.5
 23167,2,111.929\C,3,1.534955,1,111.325,2,179.999,0\H,1,1.092083,3,111.
 786,4,-61.207,0\H,1,1.092091,3,111.784,4,61.205,0\H,3,1.095734,1,109.1
 45,2,-58.214,0\H,3,1.095718,1,109.146,2,58.21,0\H,4,1.094566,3,110.571
 ,1,180.,0\H,4,1.095923,3,111.482,1,-60.285,0\H,4,1.095925,3,111.483,1,
 60.287,0\\Version=EM64L-G09RevA.01\State=1-A\HF=-577.2463403\MP2=-577.
 9673705\RMSD=8.250e-09\PG=C01 [X(C3H7Cl1)]\\@


 A COMPUTER IS LIKE A HORSE, IT WILL SENSE WEAKNESS.
     -- GREG WETTSTEIN
 Job cpu time:  0 days  0 hours 11 minutes 25.2 seconds.
 File lengths (MBytes):  RWF=     23 Int=      0 D2E=      0 Chk=      3 Scr=      1
 Normal termination of Gaussian 09 at Sun Feb 14 21:46:55 2016.
