 Entering Gaussian System, Link 0=g09
 Input=chloropropane_g.gjf
 Output=chloropropane_g.out
 Initial command:
 /usr/local/g09/l1.exe /home/scratch/stylianakis/Gau-20754.inp -scrdir=/home/scratch/stylianakis/
 Entering Link 1 = /usr/local/g09/l1.exe PID=     20755.
  
 Copyright (c) 1988,1990,1992,1993,1995,1998,2003,2009, Gaussian, Inc.
                  All Rights Reserved.
  
 This is part of the Gaussian(R) 09 program.  It is based on
 the Gaussian(R) 03 system (copyright 2003, Gaussian, Inc.),
 the Gaussian(R) 98 system (copyright 1998, Gaussian, Inc.),
 the Gaussian(R) 94 system (copyright 1995, Gaussian, Inc.),
 the Gaussian 92(TM) system (copyright 1992, Gaussian, Inc.),
 the Gaussian 90(TM) system (copyright 1990, Gaussian, Inc.),
 the Gaussian 88(TM) system (copyright 1988, Gaussian, Inc.),
 the Gaussian 86(TM) system (copyright 1986, Carnegie Mellon
 University), and the Gaussian 82(TM) system (copyright 1983,
 Carnegie Mellon University). Gaussian is a federally registered
 trademark of Gaussian, Inc.
  
 This software contains proprietary and confidential information,
 including trade secrets, belonging to Gaussian, Inc.
  
 This software is provided under written license and may be
 used, copied, transmitted, or stored only in accord with that
 written license.
  
 The following legend is applicable only to US Government
 contracts under FAR:
  
                    RESTRICTED RIGHTS LEGEND
  
 Use, reproduction and disclosure by the US Government is
 subject to restrictions as set forth in subparagraphs (a)
 and (c) of the Commercial Computer Software - Restricted
 Rights clause in FAR 52.227-19.
  
 Gaussian, Inc.
 340 Quinnipiac St., Bldg. 40, Wallingford CT 06492
  
  
 ---------------------------------------------------------------
 Warning -- This program may not be used in any manner that
 competes with the business of Gaussian, Inc. or will provide
 assistance to any competitor of Gaussian, Inc.  The licensee
 of this program is prohibited from giving any competitor of
 Gaussian, Inc. access to this program.  By using this program,
 the user acknowledges that Gaussian, Inc. is engaged in the
 business of creating and licensing software in the field of
 computational chemistry and represents and warrants to the
 licensee that it is not a competitor of Gaussian, Inc. and that
 it will not use this program in any manner prohibited above.
 ---------------------------------------------------------------
  

 Cite this work as:
 Gaussian 09, Revision A.01,
 M. J. Frisch, G. W. Trucks, H. B. Schlegel, G. E. Scuseria, 
 M. A. Robb, J. R. Cheeseman, G. Scalmani, V. Barone, B. Mennucci, 
 G. A. Petersson, H. Nakatsuji, M. Caricato, X. Li, H. P. Hratchian, 
 A. F. Izmaylov, J. Bloino, G. Zheng, J. L. Sonnenberg, M. Hada, 
 M. Ehara, K. Toyota, R. Fukuda, J. Hasegawa, M. Ishida, T. Nakajima, 
 Y. Honda, O. Kitao, H. Nakai, T. Vreven, J. A. Montgomery, Jr., 
 J. E. Peralta, F. Ogliaro, M. Bearpark, J. J. Heyd, E. Brothers, 
 K. N. Kudin, V. N. Staroverov, R. Kobayashi, J. Normand, 
 K. Raghavachari, A. Rendell, J. C. Burant, S. S. Iyengar, J. Tomasi, 
 M. Cossi, N. Rega, J. M. Millam, M. Klene, J. E. Knox, J. B. Cross, 
 V. Bakken, C. Adamo, J. Jaramillo, R. Gomperts, R. E. Stratmann, 
 O. Yazyev, A. J. Austin, R. Cammi, C. Pomelli, J. W. Ochterski, 
 R. L. Martin, K. Morokuma, V. G. Zakrzewski, G. A. Voth, 
 P. Salvador, J. J. Dannenberg, S. Dapprich, A. D. Daniels, 
 O. Farkas, J. B. Foresman, J. V. Ortiz, J. Cioslowski, 
 and D. J. Fox, Gaussian, Inc., Wallingford CT, 2009.
 
 ******************************************
 Gaussian 09:  EM64L-G09RevA.01  8-May-2009
                14-Feb-2016 
 ******************************************
 %mem=8000Mb
 %nproc=4
 Will use up to    4 processors via shared memory.
 -------------
 # mp2/cc-pVTZ
 -------------
 1/38=1/1;
 2/12=2,17=6,18=5,40=1/2;
 3/5=16,6=1,11=9,16=1,25=1,30=1/1,2,3;
 4//1;
 5/5=2,38=5/2;
 8/10=1/1;
 9/16=-3/6;
 6/7=2,8=2,9=2,10=2/1;
 99/5=1,9=1/99;
 ----------------------------
 chloropropane-g_single_point
 ----------------------------
 Symbolic Z-matrix:
 Charge =  0 Multiplicity = 1
 c
 cl                   1    clc2
 c                    1    cc3      2    cccl3
 c                    3    cc4      1    ccc4     2    dih4     0
 h                    1    hc5      3    hcc5     4    dih5     0
 h                    1    hc6      3    hcc6     4    dih6     0
 h                    3    hc7      1    hcc7     2    dih7     0
 h                    3    hc8      1    hcc8     2    dih8     0
 h                    4    hc9      3    hcc9     1    dih9     0
 h                    4    hc10     3    hcc10    1    dih10    0
 h                    4    hc11     3    hcc11    1    dih11    0
       Variables:
  clc2                  1.82672                  
  cc3                   1.52334                  
  cccl3               112.617                    
  cc4                   1.53122                  
  ccc4                114.616                    
  dih4                 65.398                    
  hc5                   1.09098                  
  hcc5                111.595                    
  dih5               -176.108                    
  hc6                   1.09228                  
  hcc6                111.801                    
  dih6                -53.494                    
  hc7                   1.09973                  
  hcc7                106.21                     
  dih7               -173.346                    
  hc8                   1.09632                  
  hcc8                109.123                    
  dih8                -58.888                    
  hc9                   1.09471                  
  hcc9                110.699                    
  dih9                177.99                     
  hc10                  1.09388                  
  hcc10               111.167                    
  dih10               -62.003                    
  hc11                  1.0964                   
  hcc11               111.157                    
  dih11                58.235                    
 
                          Input orientation:                          
 ---------------------------------------------------------------------
 Center     Atomic      Atomic             Coordinates (Angstroms)
 Number     Number       Type             X           Y           Z
 ---------------------------------------------------------------------
      1          6           0        0.000000    0.000000    0.000000
      2         17           0        0.000000    0.000000    1.826716
      3          6           0        1.406187    0.000000   -0.585829
      4          6           0        2.217812   -1.265690   -0.296146
      5          1           0       -0.556755    0.891523   -0.292305
      6          1           0       -0.562900   -0.887932   -0.296317
      7          1           0        1.286204    0.122363   -1.672119
      8          1           0        1.943547    0.886825   -0.229887
      9          1           0        3.200956   -1.212889   -0.774716
     10          1           0        2.372193   -1.398561    0.778603
     11          1           0        1.707758   -2.158567   -0.676564
 ---------------------------------------------------------------------
                    Distance matrix (angstroms):
                    1          2          3          4          5
     1  C    0.000000
     2  Cl   1.826716   0.000000
     3  C    1.523338   2.792443   0.000000
     4  C    2.570674   3.320723   1.531216   0.000000
     5  H    1.090977   2.365383   2.175801   3.514513   0.000000
     6  H    1.092284   2.369082   2.179346   2.806255   1.779470
     7  H    2.113120   3.729764   1.099725   2.165153   2.427343
     8  H    2.148646   2.965375   1.096316   2.170929   2.501085
     9  H    3.509616   4.299380   2.174390   1.094710   4.333782
    10  H    2.861730   2.946492   2.179636   1.093880   3.869117
    11  H    2.834358   3.720518   2.181419   1.096404   3.818209
                    6          7          8          9         10
     6  H    0.000000
     7  H    2.516489   0.000000
     8  H    3.071881   1.759698   0.000000
     9  H    3.808028   2.500901   2.507333   0.000000
    10  H    3.167171   3.081983   2.534518   1.770346   0.000000
    11  H    2.629637   2.524179   3.086993   1.770192   1.771043
                   11
    11  H    0.000000
 Stoichiometry    C3H7Cl
 Framework group  C1[X(C3H7Cl)]
 Deg. of freedom    27
 Full point group                 C1      NOp   1
 Largest Abelian subgroup         C1      NOp   1
 Largest concise Abelian subgroup C1      NOp   1
                         Standard orientation:                         
 ---------------------------------------------------------------------
 Center     Atomic      Atomic             Coordinates (Angstroms)
 Number     Number       Type             X           Y           Z
 ---------------------------------------------------------------------
      1          6           0        0.175529    0.886450    0.309035
      2         17           0        1.469033   -0.347260   -0.067391
      3          6           0       -1.155236    0.561997   -0.357564
      4          6           0       -1.823813   -0.720965    0.144068
      5          1           0        0.574235    1.842099   -0.034477
      6          1           0        0.090297    0.903618    1.397854
      7          1           0       -1.812932    1.422025   -0.164737
      8          1           0       -1.011449    0.517053   -1.443480
      9          1           0       -2.788679   -0.873197   -0.350147
     10          1           0       -1.199559   -1.596390   -0.057207
     11          1           0       -2.004366   -0.676685    1.224597
 ---------------------------------------------------------------------
 Rotational constants (GHZ):     11.8474390      3.2070947      2.7675725
 Standard basis: CC-pVTZ (5D, 7F)
 There are   222 symmetry adapted basis functions of A   symmetry.
 Integral buffers will be    131072 words long.
 Raffenetti 1 integral format.
 Two-electron integral symmetry is turned on.
   222 basis functions,   369 primitive gaussians,   249 cartesian basis functions
    21 alpha electrons       21 beta electrons
       nuclear repulsion energy       161.1610504995 Hartrees.
 NAtoms=   11 NActive=   11 NUniq=   11 SFac= 7.50D-01 NAtFMM=   80 NAOKFM=F Big=F
 One-electron integrals computed using PRISM.
 NBasis=   222 RedAO= T  NBF=   222
 NBsUse=   222 1.00D-06 NBFU=   222
 Harris functional with IExCor=  205 diagonalized for initial guess.
 ExpMin= 1.03D-01 ExpMax= 4.56D+05 ExpMxC= 1.44D+03 IAcc=2 IRadAn=         0 AccDes= 0.00D+00
 HarFok:  IExCor=  205 AccDes= 0.00D+00 IRadAn=         0 IDoV= 1
 ScaDFX=  1.000000  1.000000  1.000000  1.000000
 FoFCou: FMM=F IPFlag=           0 FMFlag=      100000 FMFlg1=           0
         NFxFlg=           0 DoJE=T BraDBF=F KetDBF=T FulRan=T
         Omega=  0.000000  0.000000  1.000000  0.000000  0.000000 ICntrl=     500 IOpCl=  0
         NMat0=    1 NMatS0=    1 NMatT0=    0 NMatD0=    1 NMtDS0=    0 NMtDT0=    0
         I1Cent=           4 NGrid=           0.
 Petite list used in FoFCou.
 Initial guess orbital symmetries:
       Occupied  (A) (A) (A) (A) (A) (A) (A) (A) (A) (A) (A) (A)
                 (A) (A) (A) (A) (A) (A) (A) (A) (A)
       Virtual   (A) (A) (A) (A) (A) (A) (A) (A) (A) (A) (A) (A)
                 (A) (A) (A) (A) (A) (A) (A) (A) (A) (A) (A) (A)
                 (A) (A) (A) (A) (A) (A) (A) (A) (A) (A) (A) (A)
                 (A) (A) (A) (A) (A) (A) (A) (A) (A) (A) (A) (A)
                 (A) (A) (A) (A) (A) (A) (A) (A) (A) (A) (A) (A)
                 (A) (A) (A) (A) (A) (A) (A) (A) (A) (A) (A) (A)
                 (A) (A) (A) (A) (A) (A) (A) (A) (A) (A) (A) (A)
                 (A) (A) (A) (A) (A) (A) (A) (A) (A) (A) (A) (A)
                 (A) (A) (A) (A) (A) (A) (A) (A) (A) (A) (A) (A)
                 (A) (A) (A) (A) (A) (A) (A) (A) (A) (A) (A) (A)
                 (A) (A) (A) (A) (A) (A) (A) (A) (A) (A) (A) (A)
                 (A) (A) (A) (A) (A) (A) (A) (A) (A) (A) (A) (A)
                 (A) (A) (A) (A) (A) (A) (A) (A) (A) (A) (A) (A)
                 (A) (A) (A) (A) (A) (A) (A) (A) (A) (A) (A) (A)
                 (A) (A) (A) (A) (A) (A) (A) (A) (A) (A) (A) (A)
                 (A) (A) (A) (A) (A) (A) (A) (A) (A) (A) (A) (A)
                 (A) (A) (A) (A) (A) (A) (A) (A) (A)
 The electronic state of the initial guess is 1-A.
 Requested convergence on RMS density matrix=1.00D-08 within 128 cycles.
 Requested convergence on MAX density matrix=1.00D-06.
 Requested convergence on             energy=1.00D-06.
 No special actions if energy rises.
 Keep R1 ints in memory in canonical form, NReq=492418229.
 SCF Done:  E(RHF) =  -577.245792785     A.U. after   11 cycles
             Convg  =    0.9167D-08             -V/T =  2.0004
 ExpMin= 1.03D-01 ExpMax= 4.56D+05 ExpMxC= 1.44D+03 IAcc=3 IRadAn=         5 AccDes= 0.00D+00
 HarFok:  IExCor=  205 AccDes= 0.00D+00 IRadAn=         5 IDoV=-2
 ScaDFX=  1.000000  1.000000  1.000000  1.000000
 Range of M.O.s used for correlation:     9   222
 NBasis=   222 NAE=    21 NBE=    21 NFC=     8 NFV=     0
 NROrb=    214 NOA=    13 NOB=    13 NVA=   201 NVB=   201

 **** Warning!!: The largest alpha MO coefficient is  0.11979788D+02

 Fully in-core method, ICMem=  1006860873.
 JobTyp=1 Pass  1 fully in-core, NPsUse=  4.
 Spin components of T(2) and E(2):
     alpha-alpha T2 =       0.2889611916D-01 E2=     -0.8152375405D-01
     alpha-beta  T2 =       0.1775333695D+00 E2=     -0.5585871209D+00
     beta-beta   T2 =       0.2889611916D-01 E2=     -0.8152375405D-01
 ANorm=    0.1111452027D+01
 E2 =    -0.7216346290D+00 EUMP2 =    -0.57796742741404D+03

 **********************************************************************

            Population analysis using the SCF density.

 **********************************************************************

 Orbital symmetries:
       Occupied  (A) (A) (A) (A) (A) (A) (A) (A) (A) (A) (A) (A)
                 (A) (A) (A) (A) (A) (A) (A) (A) (A)
       Virtual   (A) (A) (A) (A) (A) (A) (A) (A) (A) (A) (A) (A)
                 (A) (A) (A) (A) (A) (A) (A) (A) (A) (A) (A) (A)
                 (A) (A) (A) (A) (A) (A) (A) (A) (A) (A) (A) (A)
                 (A) (A) (A) (A) (A) (A) (A) (A) (A) (A) (A) (A)
                 (A) (A) (A) (A) (A) (A) (A) (A) (A) (A) (A) (A)
                 (A) (A) (A) (A) (A) (A) (A) (A) (A) (A) (A) (A)
                 (A) (A) (A) (A) (A) (A) (A) (A) (A) (A) (A) (A)
                 (A) (A) (A) (A) (A) (A) (A) (A) (A) (A) (A) (A)
                 (A) (A) (A) (A) (A) (A) (A) (A) (A) (A) (A) (A)
                 (A) (A) (A) (A) (A) (A) (A) (A) (A) (A) (A) (A)
                 (A) (A) (A) (A) (A) (A) (A) (A) (A) (A) (A) (A)
                 (A) (A) (A) (A) (A) (A) (A) (A) (A) (A) (A) (A)
                 (A) (A) (A) (A) (A) (A) (A) (A) (A) (A) (A) (A)
                 (A) (A) (A) (A) (A) (A) (A) (A) (A) (A) (A) (A)
                 (A) (A) (A) (A) (A) (A) (A) (A) (A) (A) (A) (A)
                 (A) (A) (A) (A) (A) (A) (A) (A) (A) (A) (A) (A)
                 (A) (A) (A) (A) (A) (A) (A) (A) (A)
 The electronic state is 1-A.
 Alpha  occ. eigenvalues -- -104.81457 -11.29539 -11.24138 -11.22168 -10.53955
 Alpha  occ. eigenvalues --   -8.00626  -8.00463  -8.00460  -1.12915  -1.03629
 Alpha  occ. eigenvalues --   -0.92039  -0.80697  -0.64454  -0.63039  -0.58432
 Alpha  occ. eigenvalues --   -0.53872  -0.51450  -0.50170  -0.48242  -0.42836
 Alpha  occ. eigenvalues --   -0.42752
 Alpha virt. eigenvalues --    0.13309   0.16275   0.17332   0.19137   0.20124
 Alpha virt. eigenvalues --    0.21451   0.22973   0.24160   0.29547   0.34628
 Alpha virt. eigenvalues --    0.37667   0.38852   0.39651   0.42617   0.44168
 Alpha virt. eigenvalues --    0.46304   0.47606   0.50375   0.52571   0.54823
 Alpha virt. eigenvalues --    0.57686   0.58341   0.59789   0.62171   0.63555
 Alpha virt. eigenvalues --    0.64570   0.65889   0.66103   0.66395   0.66985
 Alpha virt. eigenvalues --    0.69127   0.71828   0.75665   0.76552   0.83622
 Alpha virt. eigenvalues --    0.86674   0.91201   0.93884   0.95508   0.95794
 Alpha virt. eigenvalues --    1.00185   1.06632   1.07682   1.12141   1.17190
 Alpha virt. eigenvalues --    1.18929   1.20574   1.22707   1.24473   1.26353
 Alpha virt. eigenvalues --    1.27639   1.30797   1.32336   1.33282   1.35982
 Alpha virt. eigenvalues --    1.38009   1.38111   1.39071   1.42726   1.45560
 Alpha virt. eigenvalues --    1.49247   1.51031   1.52068   1.55269   1.58272
 Alpha virt. eigenvalues --    1.60143   1.61107   1.65541   1.71174   1.72533
 Alpha virt. eigenvalues --    1.77279   1.80403   1.84275   1.88551   2.27918
 Alpha virt. eigenvalues --    2.30098   2.30817   2.33816   2.34723   2.40949
 Alpha virt. eigenvalues --    2.41099   2.43354   2.44456   2.47867   2.51792
 Alpha virt. eigenvalues --    2.54365   2.57602   2.59315   2.62043   2.65358
 Alpha virt. eigenvalues --    2.65813   2.68278   2.69824   2.74511   2.76872
 Alpha virt. eigenvalues --    2.78044   2.82292   2.85072   2.88626   2.91166
 Alpha virt. eigenvalues --    2.93376   2.98335   3.00530   3.04928   3.08965
 Alpha virt. eigenvalues --    3.11066   3.14088   3.18085   3.21447   3.22468
 Alpha virt. eigenvalues --    3.25319   3.31348   3.32229   3.35001   3.36956
 Alpha virt. eigenvalues --    3.38571   3.41063   3.42891   3.44153   3.46170
 Alpha virt. eigenvalues --    3.47205   3.49601   3.51962   3.57132   3.60149
 Alpha virt. eigenvalues --    3.60943   3.64336   3.69310   3.70217   3.74491
 Alpha virt. eigenvalues --    3.77134   3.80482   3.83268   3.84764   3.87546
 Alpha virt. eigenvalues --    3.89776   3.95369   3.98833   4.02393   4.04072
 Alpha virt. eigenvalues --    4.08562   4.09971   4.11626   4.14140   4.14864
 Alpha virt. eigenvalues --    4.17990   4.19900   4.23816   4.27214   4.27808
 Alpha virt. eigenvalues --    4.30432   4.34435   4.34885   4.36265   4.39486
 Alpha virt. eigenvalues --    4.42248   4.43787   4.46630   4.49046   4.54624
 Alpha virt. eigenvalues --    4.58131   4.59318   4.61546   4.63269   4.70124
 Alpha virt. eigenvalues --    4.70571   4.76918   4.87659   4.88876   4.92823
 Alpha virt. eigenvalues --    5.05331   5.08203   5.15971   5.17229   5.20361
 Alpha virt. eigenvalues --    5.20736   5.23715   5.28639   5.32631   5.36617
 Alpha virt. eigenvalues --    5.44781   5.48922   5.51614   5.58911   5.63428
 Alpha virt. eigenvalues --    5.67259   5.68869   5.70958   5.71852   5.76939
 Alpha virt. eigenvalues --    5.81670   5.84767   5.87433   5.98855   6.26963
 Alpha virt. eigenvalues --    6.28157   6.30555   6.34632  12.35118  13.18964
 Alpha virt. eigenvalues --   13.99141
          Condensed to atoms (all electrons):
              1          2          3          4          5          6
     1  C    4.732690   0.237279   0.356206  -0.043929   0.437062   0.424213
     2  Cl   0.237279  17.119213  -0.051397  -0.005523  -0.033444  -0.035258
     3  C    0.356206  -0.051397   4.849920   0.342110  -0.036130  -0.030615
     4  C   -0.043929  -0.005523   0.342110   4.801209   0.005920  -0.005113
     5  H    0.437062  -0.033444  -0.036130   0.005920   0.531439  -0.030958
     6  H    0.424213  -0.035258  -0.030615  -0.005113  -0.030958   0.549620
     7  H   -0.036705   0.005472   0.418521  -0.033217  -0.004135  -0.002907
     8  H   -0.033352  -0.000006   0.417158  -0.032757  -0.004838   0.006596
     9  H    0.005924  -0.000108  -0.034995   0.422292  -0.000155  -0.000119
    10  H   -0.005826   0.004477  -0.030170   0.418008   0.000042   0.000387
    11  H   -0.003039   0.000446  -0.037923   0.415279  -0.000050   0.002205
              7          8          9         10         11
     1  C   -0.036705  -0.033352   0.005924  -0.005826  -0.003039
     2  Cl   0.005472  -0.000006  -0.000108   0.004477   0.000446
     3  C    0.418521   0.417158  -0.034995  -0.030170  -0.037923
     4  C   -0.033217  -0.032757   0.422292   0.418008   0.415279
     5  H   -0.004135  -0.004838  -0.000155   0.000042  -0.000050
     6  H   -0.002907   0.006596  -0.000119   0.000387   0.002205
     7  H    0.589459  -0.031176  -0.005044   0.005908  -0.004268
     8  H   -0.031176   0.575045  -0.004834  -0.003100   0.006245
     9  H   -0.005044  -0.004834   0.575869  -0.029330  -0.031465
    10  H    0.005908  -0.003100  -0.029330   0.558453  -0.030269
    11  H   -0.004268   0.006245  -0.031465  -0.030269   0.597899
 Mulliken atomic charges:
              1
     1  C   -0.070525
     2  Cl  -0.241151
     3  C   -0.162684
     4  C   -0.284279
     5  H    0.135248
     6  H    0.121949
     7  H    0.098094
     8  H    0.105019
     9  H    0.101966
    10  H    0.111421
    11  H    0.084941
 Sum of Mulliken atomic charges =   0.00000
 Mulliken charges with hydrogens summed into heavy atoms:
              1
     1  C    0.186673
     2  Cl  -0.241151
     3  C    0.040429
     4  C    0.014050
 Sum of Mulliken charges with hydrogens summed into heavy atoms =   0.00000
 Electronic spatial extent (au):  <R**2>=            474.7411
 Charge=              0.0000 electrons
 Dipole moment (field-independent basis, Debye):
    X=             -1.8888    Y=              1.4418    Z=              0.3406  Tot=              2.4005
 Quadrupole moment (field-independent basis, Debye-Ang):
   XX=            -35.5322   YY=            -32.0914   ZZ=            -32.9703
   XY=              0.3674   XZ=              0.1597   YZ=              0.4813
 Traceless Quadrupole moment (field-independent basis, Debye-Ang):
   XX=             -2.0009   YY=              1.4399   ZZ=              0.5610
   XY=              0.3674   XZ=              0.1597   YZ=              0.4813
 Octapole moment (field-independent basis, Debye-Ang**2):
  XXX=              1.1078  YYY=              1.8508  ZZZ=              1.1771  XYY=              3.2643
  XXY=             -0.4604  XXZ=             -1.1368  XZZ=              0.8004  YZZ=              0.6228
  YYZ=             -0.4317  XYZ=              0.0182
 Hexadecapole moment (field-independent basis, Debye-Ang**3):
 XXXX=           -432.5051 YYYY=           -136.4444 ZZZZ=            -65.6241 XXXY=             -6.4795
 XXXZ=              1.1449 YYYX=             -2.7969 YYYZ=              0.6134 ZZZX=             -0.4239
 ZZZY=              1.0168 XXYY=            -93.2743 XXZZ=            -84.6663 YYZZ=            -36.1698
 XXYZ=              1.9665 YYXZ=             -0.8900 ZZXY=             -0.2205
 N-N= 1.611610504995D+02 E-N=-1.690272595012D+03  KE= 5.770056047784D+02
 1\1\GINC-ROCK\SP\RMP2-FC\CC-pVTZ\C3H7Cl1\STYLIANAKIS\14-Feb-2016\0\\# 
 mp2/cc-pVTZ\\chloropropane-g_single_point\\0,1\C\Cl,1,1.826716\C,1,1.5
 23338,2,112.617\C,3,1.531216,1,114.616,2,65.398,0\H,1,1.090977,3,111.5
 95,4,-176.108,0\H,1,1.092284,3,111.801,4,-53.494,0\H,3,1.099725,1,106.
 21,2,-173.346,0\H,3,1.096316,1,109.123,2,-58.888,0\H,4,1.09471,3,110.6
 99,1,177.99,0\H,4,1.09388,3,111.167,1,-62.003,0\H,4,1.096404,3,111.157
 ,1,58.235,0\\Version=EM64L-G09RevA.01\State=1-A\HF=-577.2457928\MP2=-5
 77.9674274\RMSD=9.167e-09\PG=C01 [X(C3H7Cl1)]\\@


 ASKING DUMB QUESTIONS IS EASIER THAN CORECTING DUMB MISTAKES.
 Job cpu time:  0 days  0 hours 12 minutes 18.7 seconds.
 File lengths (MBytes):  RWF=     23 Int=      0 D2E=      0 Chk=      3 Scr=      1
 Normal termination of Gaussian 09 at Sun Feb 14 21:50:01 2016.
